 Entering Gaussian System, Link 0=/opt/software/Gaussian/g16-AVX2-C.01/g16/g16
 Input=charge-conf-202.com
 Output=charge-conf-202.log
 Initial command:
 /opt/software/Gaussian/g16-AVX2-C.01/g16/l1.exe "/mnt/gs21/scratch/kengmith/Gau-31070.inp" -scrdir="/mnt/gs21/scratch/kengmith/"
 Entering Link 1 = /opt/software/Gaussian/g16-AVX2-C.01/g16/l1.exe PID=     31080.
  
 Copyright (c) 1988-2019, Gaussian, Inc.  All Rights Reserved.
  
 This is part of the Gaussian(R) 16 program.  It is based on
 the Gaussian(R) 09 system (copyright 2009, Gaussian, Inc.),
 the Gaussian(R) 03 system (copyright 2003, Gaussian, Inc.),
 the Gaussian(R) 98 system (copyright 1998, Gaussian, Inc.),
 the Gaussian(R) 94 system (copyright 1995, Gaussian, Inc.),
 the Gaussian 92(TM) system (copyright 1992, Gaussian, Inc.),
 the Gaussian 90(TM) system (copyright 1990, Gaussian, Inc.),
 the Gaussian 88(TM) system (copyright 1988, Gaussian, Inc.),
 the Gaussian 86(TM) system (copyright 1986, Carnegie Mellon
 University), and the Gaussian 82(TM) system (copyright 1983,
 Carnegie Mellon University). Gaussian is a federally registered
 trademark of Gaussian, Inc.
  
 This software contains proprietary and confidential information,
 including trade secrets, belonging to Gaussian, Inc.
  
 This software is provided under written license and may be
 used, copied, transmitted, or stored only in accord with that
 written license.
  
 The following legend is applicable only to US Government
 contracts under FAR:
  
                    RESTRICTED RIGHTS LEGEND
  
 Use, reproduction and disclosure by the US Government is
 subject to restrictions as set forth in subparagraphs (a)
 and (c) of the Commercial Computer Software - Restricted
 Rights clause in FAR 52.227-19.
  
 Gaussian, Inc.
 340 Quinnipiac St., Bldg. 40, Wallingford CT 06492
  
  
 ---------------------------------------------------------------
 Warning -- This program may not be used in any manner that
 competes with the business of Gaussian, Inc. or will provide
 assistance to any competitor of Gaussian, Inc.  The licensee
 of this program is prohibited from giving any competitor of
 Gaussian, Inc. access to this program.  By using this program,
 the user acknowledges that Gaussian, Inc. is engaged in the
 business of creating and licensing software in the field of
 computational chemistry and represents and warrants to the
 licensee that it is not a competitor of Gaussian, Inc. and that
 it will not use this program in any manner prohibited above.
 ---------------------------------------------------------------
  

 Cite this work as:
 Gaussian 16, Revision C.01,
 M. J. Frisch, G. W. Trucks, H. B. Schlegel, G. E. Scuseria, 
 M. A. Robb, J. R. Cheeseman, G. Scalmani, V. Barone, 
 G. A. Petersson, H. Nakatsuji, X. Li, M. Caricato, A. V. Marenich, 
 J. Bloino, B. G. Janesko, R. Gomperts, B. Mennucci, H. P. Hratchian, 
 J. V. Ortiz, A. F. Izmaylov, J. L. Sonnenberg, D. Williams-Young, 
 F. Ding, F. Lipparini, F. Egidi, J. Goings, B. Peng, A. Petrone, 
 T. Henderson, D. Ranasinghe, V. G. Zakrzewski, J. Gao, N. Rega, 
 G. Zheng, W. Liang, M. Hada, M. Ehara, K. Toyota, R. Fukuda, 
 J. Hasegawa, M. Ishida, T. Nakajima, Y. Honda, O. Kitao, H. Nakai, 
 T. Vreven, K. Throssell, J. A. Montgomery, Jr., J. E. Peralta, 
 F. Ogliaro, M. J. Bearpark, J. J. Heyd, E. N. Brothers, K. N. Kudin, 
 V. N. Staroverov, T. A. Keith, R. Kobayashi, J. Normand, 
 K. Raghavachari, A. P. Rendell, J. C. Burant, S. S. Iyengar, 
 J. Tomasi, M. Cossi, J. M. Millam, M. Klene, C. Adamo, R. Cammi, 
 J. W. Ochterski, R. L. Martin, K. Morokuma, O. Farkas, 
 J. B. Foresman, and D. J. Fox, Gaussian, Inc., Wallingford CT, 2019.
 
 ******************************************
 Gaussian 16:  ES64L-G16RevC.01  3-Jul-2019
                 6-Sep-2022 
 ******************************************
 %mem=8gb
 %nproc=4
 Will use up to    4 processors via shared memory.
 %chk=conf-202.chk
 ----------------------------------------------------------------------
 # B3LYP/6-31G** empiricaldispersion=gd3bj guess=read geom=check nosymm
  integral(ultrafinegrid)
 ----------------------------------------------------------------------
 1/29=2,38=1,172=1/1;
 2/12=2,15=1,40=1/2;
 3/5=1,6=6,7=101,11=2,14=-4,25=1,30=1,74=-5,75=-5,116=-2,124=41/1,2,3;
 4/5=1/1;
 5/5=2,38=6/2;
 6/7=2,8=2,9=2,10=2,28=1/1;
 99/5=1,9=1/99;
 ------------------------------------------------------
 Candidate Structure: Conf:202 Charge calc in gas phase
 ------------------------------------------------------
 Structure from the checkpoint file:  "conf-202.chk"
 Charge =  1 Multiplicity = 1
 Redundant internal coordinates found in file.  (old form).
 N,0,-0.1338747354,9.6583854742,-0.2014735556
 H,0,0.8767604651,9.4049650406,-0.4048339233
 H,0,-0.7515476674,8.8536211492,-0.4538317574
 H,0,-0.22173035,9.8506280129,0.7977654259
 C,0,-0.5017522278,10.8690512776,-1.0123477828
 H,0,-1.4401592195,11.2778372619,-0.6426535578
 H,0,0.3007457263,11.6013163046,-0.8990357653
 C,0,-0.7231486813,10.4884134066,-2.4810209144
 O,0,-1.8173123439,10.6627131092,-3.007547708
 N,0,0.3409156073,9.9406355335,-3.1197299295
 H,0,1.2091041647,9.8046125241,-2.6054925419
 C,0,0.1967833255,9.4229812245,-4.4834584472
 H,0,1.1781178405,9.3229803277,-4.945022853
 H,0,-0.4129476887,10.1189683591,-5.0634896271
 C,0,-0.4550221403,8.0408901097,-4.3856258353
 O,0,0.217008839,6.9968857037,-4.3948985789
 N,0,-1.7801077281,8.0450095943,-4.1241333086
 H,0,-2.2011415398,8.9567188235,-3.9484947656
 C,0,-2.3650432586,6.8954399068,-3.4422888195
 H,0,-3.4351397762,7.0669855342,-3.3199627013
 H,0,-2.2131081467,5.9909019809,-4.0335937336
 C,0,-1.7019549552,6.8123448594,-2.0634391224
 O,0,-1.7502753628,7.7829851332,-1.2972362147
 N,0,-0.9889637511,5.704668162,-1.7760652728
 H,0,-0.9447373676,4.9617328667,-2.4586875202
 C,0,-0.1361730014,5.655215466,-0.6019436919
 H,0,-0.6774638535,6.0340578848,0.26636311
 H,0,0.1354458057,4.6187846949,-0.390206292
 C,0,1.1707632248,6.4553870652,-0.7149913505
 O,0,1.8375865579,6.6367002057,0.3032015893
 N,0,1.51202713,6.9184458676,-1.9339359956
 H,0,0.908538232,6.756817661,-2.7350570616
 C,0,2.8149323748,7.4949907294,-2.2358149984
 H,0,3.5737508231,6.7097313026,-2.2671652534
 H,0,2.7428630238,7.9251483771,-3.2395955486
 C,0,3.195405959,8.5781713163,-1.2327948412
 O,0,2.3826954305,9.4871033733,-0.9210268905
 N,0,4.4205592779,8.4780845717,-0.7390006675
 H,0,5.0618408107,7.7521088086,-1.105386192
 C,0,4.8973035035,9.1301919944,0.4723777669
 H,0,5.819272486,9.6797961369,0.2779516204
 H,0,4.1335193657,9.8225981003,0.8322287631
 C,0,5.2185798892,8.045030814,1.5252696395
 O,0,6.2136935819,8.1262063792,2.2434046534
 N,0,4.3519024569,7.0118850485,1.5413622446
 H,0,3.515078162,7.0505007795,0.9677830328
 C,0,4.6091344992,5.7300304043,2.1778818511
 H,0,5.5928881659,5.7778373025,2.6515617363
 H,0,3.8547489916,5.4996337239,2.9323269554
 C,0,4.548106268,4.6231797457,1.1134889197
 O,0,3.7282509471,3.7066932868,1.1572073043
 N,0,5.4408469618,4.7491598476,0.0974113189
 H,0,6.0551495881,5.5499383273,0.0081872906
 C,0,5.4416365759,3.7893876192,-0.9888991993
 H,0,5.3779985056,2.7781665888,-0.5806738193
 H,0,6.371300254,3.8919518433,-1.5463698706
 C,0,4.2978276659,4.0534000765,-1.9673835008
 O,0,4.3720398189,4.9205196948,-2.847717799
 N,0,3.1938437699,3.2964494401,-1.8061696986
 H,0,3.1178694248,2.7582440908,-0.9515056001
 C,0,2.0484529158,3.4620072179,-2.6736921421
 H,0,1.3815774472,2.6086440414,-2.5228245907
 H,0,1.5023584359,4.3803414305,-2.4311061152
 C,0,2.4489816394,3.4832812557,-4.156030067
 O,0,3.235138914,2.6636656356,-4.6201973839
 N,0,1.8119210666,4.4183548633,-4.9039844975
 H,0,1.3096176776,5.1818379408,-4.4733186335
 C,0,2.0382238909,4.5287885454,-6.3403847826
 H,0,2.0725672532,3.5197643109,-6.7606375051
 H,0,1.2083066469,5.0802704872,-6.7801383291
 C,0,3.3256926197,5.2875954121,-6.7019382399
 O,0,3.3017029945,6.3685875867,-7.2738488641
 N,0,4.4769727624,4.6520807608,-6.3331151223
 H,0,4.3948251823,3.7574581387,-5.8569788795
 C,0,5.7727173718,5.1630697268,-6.7262387157
 H,0,5.6680915255,5.7008182189,-7.6740176318
 H,0,6.4694529001,4.3371346526,-6.8829272253
 C,0,6.4290983929,6.1408795588,-5.755968092
 O,0,7.6054946708,6.4828138611,-5.901900276
 N,0,5.6349519318,6.6362211946,-4.7737066827
 H,0,4.8358099512,6.0807362433,-4.4934134878
 C,0,6.1713512557,7.596714842,-3.8291469448
 H,0,6.834943957,8.2682143409,-4.3799405245
 H,0,5.360254111,8.1837657568,-3.3990708736
 C,0,6.9443195623,6.9212212675,-2.6966258141
 O,0,6.5010391722,6.8574767329,-1.5366443862
 N,0,8.1202517476,6.3858791737,-3.0667840897
 H,0,8.3291078685,6.4082145553,-4.066897515
 C,0,8.9048040821,5.5576674355,-2.1630469247
 H,0,9.6958156892,5.0820250172,-2.7478378637
 H,0,8.293127948,4.7705994893,-1.7179752431
 C,0,9.5477464445,6.3034987227,-0.9874405304
 O,0,9.7224958635,5.733945718,0.0786106584
 N,0,9.9695587549,7.5704519429,-1.2437624257
 H,0,9.6163118105,8.0330368349,-2.0671894818
 C,0,10.5054170647,8.3692885317,-0.1594004353
 H,0,10.855874166,9.3226985407,-0.5640597052
 H,0,11.3593763554,7.8624312227,0.2927779909
 C,0,9.5208663586,8.6500965465,0.9753892177
 O,0,9.8779192245,8.9165898103,2.0979889746
 O,0,8.2392917771,8.5978833207,0.5732350011
 H,0,7.659399111,8.6170822558,1.3732139941
 Recover connectivity data from disk.
                           ----------------------------
                           !    Current Parameters    !
                           ! (Angstroms and Degrees)  !
 --------------------------                            --------------------------
 ! Name  Definition              Value                                          !
 --------------------------------------------------------------------------------
 ! R1    R(1,2)                  1.0616                                         !
 ! R2    R(1,3)                  1.0454                                         !
 ! R3    R(1,4)                  1.0213                                         !
 ! R4    R(1,5)                  1.5029                                         !
 ! R5    R(5,6)                  1.0883                                         !
 ! R6    R(5,7)                  1.0923                                         !
 ! R7    R(5,8)                  1.5333                                         !
 ! R8    R(8,9)                  1.2267                                         !
 ! R9    R(8,10)                 1.3566                                         !
 ! R10   R(10,11)                1.0182                                         !
 ! R11   R(10,12)                1.4658                                         !
 ! R12   R(12,13)                1.0891                                         !
 ! R13   R(12,14)                1.0921                                         !
 ! R14   R(12,15)                1.5312                                         !
 ! R15   R(15,16)                1.2416                                         !
 ! R16   R(15,17)                1.3506                                         !
 ! R17   R(17,18)                1.0195                                         !
 ! R18   R(17,19)                1.459                                          !
 ! R19   R(19,20)                1.0906                                         !
 ! R20   R(19,21)                1.0913                                         !
 ! R21   R(19,22)                1.5323                                         !
 ! R22   R(22,23)                1.2376                                         !
 ! R23   R(22,24)                1.3483                                         !
 ! R24   R(24,25)                1.0099                                         !
 ! R25   R(24,26)                1.452                                          !
 ! R26   R(26,27)                1.0911                                         !
 ! R27   R(26,28)                1.0922                                         !
 ! R28   R(26,29)                1.5366                                         !
 ! R29   R(29,30)                1.2305                                         !
 ! R30   R(29,31)                1.3479                                         !
 ! R31   R(31,32)                1.0159                                         !
 ! R32   R(31,33)                1.4564                                         !
 ! R33   R(33,34)                1.0924                                         !
 ! R34   R(33,35)                1.0944                                         !
 ! R35   R(33,36)                1.5245                                         !
 ! R36   R(36,37)                1.2585                                         !
 ! R37   R(36,38)                1.3247                                         !
 ! R38   R(38,39)                1.0356                                         !
 ! R39   R(38,40)                1.456                                          !
 ! R40   R(40,41)                1.0908                                         !
 ! R41   R(40,42)                1.0919                                         !
 ! R42   R(40,43)                1.5458                                         !
 ! R43   R(43,44)                1.2299                                         !
 ! R44   R(43,45)                1.3486                                         !
 ! R45   R(45,46)                1.0153                                         !
 ! R46   R(45,47)                1.4541                                         !
 ! R47   R(47,48)                1.0929                                         !
 ! R48   R(47,49)                1.0915                                         !
 ! R49   R(47,50)                1.5368                                         !
 ! R50   R(50,51)                1.2305                                         !
 ! R51   R(50,52)                1.3584                                         !
 ! R52   R(52,53)                1.0132                                         !
 ! R53   R(52,54)                1.4496                                         !
 ! R54   R(54,55)                1.0924                                         !
 ! R55   R(54,56)                1.0888                                         !
 ! R56   R(54,57)                1.5282                                         !
 ! R57   R(57,58)                1.2379                                         !
 ! R58   R(57,59)                1.3482                                         !
 ! R59   R(59,60)                1.0129                                         !
 ! R60   R(59,61)                1.4463                                         !
 ! R61   R(61,62)                1.0935                                         !
 ! R62   R(61,63)                1.0956                                         !
 ! R63   R(61,64)                1.5356                                         !
 ! R64   R(64,65)                1.2269                                         !
 ! R65   R(64,66)                1.3563                                         !
 ! R66   R(66,67)                1.0103                                         !
 ! R67   R(66,68)                1.4583                                         !
 ! R68   R(68,69)                1.0936                                         !
 ! R69   R(68,70)                1.0892                                         !
 ! R70   R(68,71)                1.5376                                         !
 ! R71   R(71,72)                1.2232                                         !
 ! R72   R(71,73)                1.3658                                         !
 ! R73   R(73,74)                1.0168                                         !
 ! R74   R(73,75)                1.4473                                         !
 ! R75   R(75,76)                1.0947                                         !
 ! R76   R(75,77)                1.0919                                         !
 ! R77   R(75,78)                1.5259                                         !
 ! R78   R(78,79)                1.2337                                         !
 ! R79   R(78,80)                1.3568                                         !
 ! R80   R(80,81)                1.0128                                         !
 ! R81   R(80,82)                1.45                                           !
 ! R82   R(82,83)                1.093                                          !
 ! R83   R(82,84)                1.0897                                         !
 ! R84   R(82,85)                1.5285                                         !
 ! R85   R(85,86)                1.2434                                         !
 ! R86   R(85,87)                1.344                                          !
 ! R87   R(87,88)                1.0219                                         !
 ! R88   R(87,89)                1.4554                                         !
 ! R89   R(89,90)                1.0927                                         !
 ! R90   R(89,91)                1.0917                                         !
 ! R91   R(89,92)                1.5335                                         !
 ! R92   R(92,93)                1.2212                                         !
 ! R93   R(92,94)                1.3597                                         !
 ! R94   R(94,95)                1.0084                                         !
 ! R95   R(94,96)                1.4495                                         !
 ! R96   R(96,97)                1.0934                                         !
 ! R97   R(96,98)                1.0912                                         !
 ! R98   R(96,99)                1.5284                                         !
 ! R99   R(99,100)               1.2078                                         !
 ! R100  R(99,101)               1.3442                                         !
 ! R101  R(101,102)              0.9882                                         !
 ! A1    A(2,1,3)              109.4194                                         !
 ! A2    A(2,1,4)              108.3149                                         !
 ! A3    A(2,1,5)              108.7831                                         !
 ! A4    A(3,1,4)              109.2838                                         !
 ! A5    A(3,1,5)              110.1982                                         !
 ! A6    A(4,1,5)              110.8052                                         !
 ! A7    A(1,5,6)              109.2916                                         !
 ! A8    A(1,5,7)              107.7128                                         !
 ! A9    A(1,5,8)              110.6211                                         !
 ! A10   A(6,5,7)              110.2708                                         !
 ! A11   A(6,5,8)              107.1054                                         !
 ! A12   A(7,5,8)              111.8321                                         !
 ! A13   A(5,8,9)              120.3087                                         !
 ! A14   A(5,8,10)             115.975                                          !
 ! A15   A(9,8,10)             123.7053                                         !
 ! A16   A(8,10,11)            119.0115                                         !
 ! A17   A(8,10,12)            120.2337                                         !
 ! A18   A(11,10,12)           120.4349                                         !
 ! A19   A(10,12,13)           109.7633                                         !
 ! A20   A(10,12,14)           108.904                                          !
 ! A21   A(10,12,15)           107.5286                                         !
 ! A22   A(13,12,14)           109.6647                                         !
 ! A23   A(13,12,15)           109.1335                                         !
 ! A24   A(14,12,15)           111.809                                          !
 ! A25   A(12,15,16)           121.8752                                         !
 ! A26   A(12,15,17)           115.2926                                         !
 ! A27   A(16,15,17)           122.3449                                         !
 ! A28   A(15,17,18)           116.1841                                         !
 ! A29   A(15,17,19)           118.7779                                         !
 ! A30   A(18,17,19)           117.2936                                         !
 ! A31   A(17,19,20)           108.7753                                         !
 ! A32   A(17,19,21)           110.1238                                         !
 ! A33   A(17,19,22)           106.8452                                         !
 ! A34   A(20,19,21)           109.1321                                         !
 ! A35   A(20,19,22)           109.4023                                         !
 ! A36   A(21,19,22)           112.4819                                         !
 ! A37   A(19,22,23)           119.8485                                         !
 ! A38   A(19,22,24)           117.7229                                         !
 ! A39   A(23,22,24)           122.211                                          !
 ! A40   A(22,24,25)           118.9118                                         !
 ! A41   A(22,24,26)           120.725                                          !
 ! A42   A(25,24,26)           119.723                                          !
 ! A43   A(24,26,27)           109.8966                                         !
 ! A44   A(24,26,28)           109.5823                                         !
 ! A45   A(24,26,29)           114.981                                          !
 ! A46   A(27,26,28)           107.3732                                         !
 ! A47   A(27,26,29)           107.4391                                         !
 ! A48   A(28,26,29)           107.272                                          !
 ! A49   A(26,29,30)           118.4736                                         !
 ! A50   A(26,29,31)           117.4377                                         !
 ! A51   A(30,29,31)           124.0885                                         !
 ! A52   A(29,31,32)           120.5361                                         !
 ! A53   A(29,31,33)           123.3644                                         !
 ! A54   A(32,31,33)           115.5278                                         !
 ! A55   A(31,33,34)           110.0472                                         !
 ! A56   A(31,33,35)           106.6658                                         !
 ! A57   A(31,33,36)           111.6026                                         !
 ! A58   A(34,33,35)           107.5742                                         !
 ! A59   A(34,33,36)           110.8703                                         !
 ! A60   A(35,33,36)           109.9139                                         !
 ! A61   A(33,36,37)           120.9958                                         !
 ! A62   A(33,36,38)           114.9853                                         !
 ! A63   A(37,36,38)           124.0188                                         !
 ! A64   A(36,38,39)           119.589                                          !
 ! A65   A(36,38,40)           125.3883                                         !
 ! A66   A(39,38,40)           113.9255                                         !
 ! A67   A(38,40,41)           110.7391                                         !
 ! A68   A(38,40,42)           109.2176                                         !
 ! A69   A(38,40,43)           108.6836                                         !
 ! A70   A(41,40,42)           109.2964                                         !
 ! A71   A(41,40,43)           107.4244                                         !
 ! A72   A(42,40,43)           111.4736                                         !
 ! A73   A(40,43,44)           121.3033                                         !
 ! A74   A(40,43,45)           114.3534                                         !
 ! A75   A(44,43,45)           124.3033                                         !
 ! A76   A(43,45,46)           119.5915                                         !
 ! A77   A(43,45,47)           124.5316                                         !
 ! A78   A(46,45,47)           115.2543                                         !
 ! A79   A(45,47,48)           108.0828                                         !
 ! A80   A(45,47,49)           111.4923                                         !
 ! A81   A(45,47,50)           108.9476                                         !
 ! A82   A(48,47,49)           109.3768                                         !
 ! A83   A(48,47,50)           111.5575                                         !
 ! A84   A(49,47,50)           107.4127                                         !
 ! A85   A(47,50,51)           122.5681                                         !
 ! A86   A(47,50,52)           115.1612                                         !
 ! A87   A(51,50,52)           122.2453                                         !
 ! A88   A(50,52,53)           122.5221                                         !
 ! A89   A(50,52,54)           119.9671                                         !
 ! A90   A(53,52,54)           117.1919                                         !
 ! A91   A(52,54,55)           109.441                                          !
 ! A92   A(52,54,56)           108.7708                                         !
 ! A93   A(52,54,57)           111.4098                                         !
 ! A94   A(55,54,56)           109.164                                          !
 ! A95   A(55,54,57)           110.8302                                         !
 ! A96   A(56,54,57)           107.155                                          !
 ! A97   A(54,57,58)           122.1055                                         !
 ! A98   A(54,57,59)           116.06                                           !
 ! A99   A(58,57,59)           121.8298                                         !
 ! A100  A(57,59,60)           117.429                                          !
 ! A101  A(57,59,61)           120.8281                                         !
 ! A102  A(60,59,61)           120.5002                                         !
 ! A103  A(59,61,62)           108.1121                                         !
 ! A104  A(59,61,63)           110.9685                                         !
 ! A105  A(59,61,64)           111.9636                                         !
 ! A106  A(62,61,63)           108.6387                                         !
 ! A107  A(62,61,64)           107.6413                                         !
 ! A108  A(63,61,64)           109.3973                                         !
 ! A109  A(61,64,65)           121.5382                                         !
 ! A110  A(61,64,66)           114.7939                                         !
 ! A111  A(65,64,66)           123.5656                                         !
 ! A112  A(64,66,67)           121.295                                          !
 ! A113  A(64,66,68)           121.4993                                         !
 ! A114  A(67,66,68)           116.0913                                         !
 ! A115  A(66,68,69)           108.2714                                         !
 ! A116  A(66,68,70)           108.5291                                         !
 ! A117  A(66,68,71)           113.5113                                         !
 ! A118  A(69,68,70)           109.6306                                         !
 ! A119  A(69,68,71)           109.7973                                         !
 ! A120  A(70,68,71)           107.0504                                         !
 ! A121  A(68,71,72)           121.9827                                         !
 ! A122  A(68,71,73)           114.3745                                         !
 ! A123  A(72,71,73)           123.6427                                         !
 ! A124  A(71,73,74)           117.8897                                         !
 ! A125  A(71,73,75)           121.1345                                         !
 ! A126  A(74,73,75)           120.6766                                         !
 ! A127  A(73,75,76)           108.8468                                         !
 ! A128  A(73,75,77)           110.0724                                         !
 ! A129  A(73,75,78)           116.0178                                         !
 ! A130  A(76,75,77)           107.9584                                         !
 ! A131  A(76,75,78)           106.0724                                         !
 ! A132  A(77,75,78)           107.5475                                         !
 ! A133  A(75,78,79)           120.834                                          !
 ! A134  A(75,78,80)           116.2644                                         !
 ! A135  A(79,78,80)           122.8579                                         !
 ! A136  A(78,80,81)           117.5137                                         !
 ! A137  A(78,80,82)           119.7963                                         !
 ! A138  A(81,80,82)           118.3544                                         !
 ! A139  A(80,82,83)           107.6553                                         !
 ! A140  A(80,82,84)           109.7919                                         !
 ! A141  A(80,82,85)           112.1476                                         !
 ! A142  A(83,82,84)           108.6518                                         !
 ! A143  A(83,82,85)           109.7462                                         !
 ! A144  A(84,82,85)           108.7873                                         !
 ! A145  A(82,85,86)           122.2475                                         !
 ! A146  A(82,85,87)           114.4825                                         !
 ! A147  A(86,85,87)           123.2584                                         !
 ! A148  A(85,87,88)           116.0806                                         !
 ! A149  A(85,87,89)           121.8223                                         !
 ! A150  A(88,87,89)           120.6613                                         !
 ! A151  A(87,89,90)           107.7958                                         !
 ! A152  A(87,89,91)           111.1863                                         !
 ! A153  A(87,89,92)           115.1677                                         !
 ! A154  A(90,89,91)           108.0583                                         !
 ! A155  A(90,89,92)           108.5712                                         !
 ! A156  A(91,89,92)           105.8443                                         !
 ! A157  A(89,92,93)           120.1567                                         !
 ! A158  A(89,92,94)           116.0225                                         !
 ! A159  A(93,92,94)           123.6923                                         !
 ! A160  A(92,94,95)           118.2108                                         !
 ! A161  A(92,94,96)           119.1547                                         !
 ! A162  A(95,94,96)           119.1808                                         !
 ! A163  A(94,96,97)           108.7941                                         !
 ! A164  A(94,96,98)           110.0799                                         !
 ! A165  A(94,96,99)           114.743                                          !
 ! A166  A(97,96,98)           107.9122                                         !
 ! A167  A(97,96,99)           108.7263                                         !
 ! A168  A(98,96,99)           106.3681                                         !
 ! A169  A(96,99,100)          122.6984                                         !
 ! A170  A(96,99,101)          112.6373                                         !
 ! A171  A(100,99,101)         124.6457                                         !
 ! A172  A(99,101,102)         108.4524                                         !
 ! D1    D(2,1,5,6)           -166.5992                                         !
 ! D2    D(2,1,5,7)            -46.7887                                         !
 ! D3    D(2,1,5,8)             75.7116                                         !
 ! D4    D(3,1,5,6)             73.4462                                         !
 ! D5    D(3,1,5,7)           -166.7434                                         !
 ! D6    D(3,1,5,8)            -44.2431                                         !
 ! D7    D(4,1,5,6)            -47.6329                                         !
 ! D8    D(4,1,5,7)             72.1776                                         !
 ! D9    D(4,1,5,8)           -165.3222                                         !
 ! D10   D(1,5,8,9)            118.5895                                         !
 ! D11   D(1,5,8,10)           -60.25                                           !
 ! D12   D(6,5,8,9)             -0.4316                                         !
 ! D13   D(6,5,8,10)          -179.2711                                         !
 ! D14   D(7,5,8,9)           -121.3482                                         !
 ! D15   D(7,5,8,10)            59.8123                                         !
 ! D16   D(5,8,10,11)            0.5182                                         !
 ! D17   D(5,8,10,12)          174.0527                                         !
 ! D18   D(9,8,10,11)         -178.2775                                         !
 ! D19   D(9,8,10,12)           -4.743                                          !
 ! D20   D(8,10,12,13)         161.9698                                         !
 ! D21   D(8,10,12,14)          41.9032                                         !
 ! D22   D(8,10,12,15)         -79.4277                                         !
 ! D23   D(11,10,12,13)        -24.5884                                         !
 ! D24   D(11,10,12,14)       -144.6551                                         !
 ! D25   D(11,10,12,15)         94.014                                          !
 ! D26   D(10,12,15,16)        -96.4972                                         !
 ! D27   D(10,12,15,17)         75.6685                                         !
 ! D28   D(13,12,15,16)         22.5096                                         !
 ! D29   D(13,12,15,17)       -165.3246                                         !
 ! D30   D(14,12,15,16)        144.0084                                         !
 ! D31   D(14,12,15,17)        -43.8259                                         !
 ! D32   D(12,15,17,18)         -4.4456                                         !
 ! D33   D(12,15,17,19)       -152.9925                                         !
 ! D34   D(16,15,17,18)        167.6795                                         !
 ! D35   D(16,15,17,19)         19.1326                                         !
 ! D36   D(15,17,19,20)       -179.7013                                         !
 ! D37   D(15,17,19,21)        -60.1478                                         !
 ! D38   D(15,17,19,22)         62.2949                                         !
 ! D39   D(18,17,19,20)         32.0959                                         !
 ! D40   D(18,17,19,21)        151.6495                                         !
 ! D41   D(18,17,19,22)        -85.9078                                         !
 ! D42   D(17,19,22,23)         56.5791                                         !
 ! D43   D(17,19,22,24)       -118.1812                                         !
 ! D44   D(20,19,22,23)        -61.013                                          !
 ! D45   D(20,19,22,24)        124.2267                                         !
 ! D46   D(21,19,22,23)        177.5327                                         !
 ! D47   D(21,19,22,24)          2.7724                                         !
 ! D48   D(19,22,24,25)         -2.1762                                         !
 ! D49   D(19,22,24,26)        168.6273                                         !
 ! D50   D(23,22,24,25)       -176.8045                                         !
 ! D51   D(23,22,24,26)         -6.001                                          !
 ! D52   D(22,24,26,27)         46.9436                                         !
 ! D53   D(22,24,26,28)        164.7052                                         !
 ! D54   D(22,24,26,29)        -74.4044                                         !
 ! D55   D(25,24,26,27)       -142.327                                          !
 ! D56   D(25,24,26,28)        -24.5654                                         !
 ! D57   D(25,24,26,29)         96.325                                          !
 ! D58   D(24,26,29,30)        168.5691                                         !
 ! D59   D(24,26,29,31)        -11.3005                                         !
 ! D60   D(27,26,29,30)         45.8929                                         !
 ! D61   D(27,26,29,31)       -133.9767                                         !
 ! D62   D(28,26,29,30)        -69.2851                                         !
 ! D63   D(28,26,29,31)        110.8452                                         !
 ! D64   D(26,29,31,32)          1.4148                                         !
 ! D65   D(26,29,31,33)       -169.5216                                         !
 ! D66   D(30,29,31,32)       -178.4469                                         !
 ! D67   D(30,29,31,33)         10.6167                                         !
 ! D68   D(29,31,33,34)         72.6742                                         !
 ! D69   D(29,31,33,35)       -170.9185                                         !
 ! D70   D(29,31,33,36)        -50.856                                          !
 ! D71   D(32,31,33,34)        -98.6779                                         !
 ! D72   D(32,31,33,35)         17.7294                                         !
 ! D73   D(32,31,33,36)        137.7919                                         !
 ! D74   D(31,33,36,37)        -48.0527                                         !
 ! D75   D(31,33,36,38)        132.0718                                         !
 ! D76   D(34,33,36,37)       -171.1154                                         !
 ! D77   D(34,33,36,38)          9.0091                                         !
 ! D78   D(35,33,36,37)         70.0806                                         !
 ! D79   D(35,33,36,38)       -109.795                                          !
 ! D80   D(33,36,38,39)          5.2842                                         !
 ! D81   D(33,36,38,40)       -161.984                                          !
 ! D82   D(37,36,38,39)       -174.587                                          !
 ! D83   D(37,36,38,40)         18.1447                                         !
 ! D84   D(36,38,40,41)       -128.2593                                         !
 ! D85   D(36,38,40,42)         -7.8487                                         !
 ! D86   D(36,38,40,43)        113.9623                                         !
 ! D87   D(39,38,40,41)         63.8431                                         !
 ! D88   D(39,38,40,42)       -175.7462                                         !
 ! D89   D(39,38,40,43)        -53.9352                                         !
 ! D90   D(38,40,43,44)        139.3248                                         !
 ! D91   D(38,40,43,45)        -38.4685                                         !
 ! D92   D(41,40,43,44)         19.4622                                         !
 ! D93   D(41,40,43,45)       -158.3312                                         !
 ! D94   D(42,40,43,44)       -100.25                                           !
 ! D95   D(42,40,43,45)         81.9567                                         !
 ! D96   D(40,43,45,46)         -6.8951                                         !
 ! D97   D(40,43,45,47)        163.6155                                         !
 ! D98   D(44,43,45,46)        175.3873                                         !
 ! D99   D(44,43,45,47)        -14.1021                                         !
 ! D100  D(43,45,47,48)          1.7771                                         !
 ! D101  D(43,45,47,49)        122.0201                                         !
 ! D102  D(43,45,47,50)       -119.6063                                         !
 ! D103  D(46,45,47,48)        172.6566                                         !
 ! D104  D(46,45,47,49)        -67.1004                                         !
 ! D105  D(46,45,47,50)         51.2731                                         !
 ! D106  D(45,47,50,51)       -118.4308                                         !
 ! D107  D(45,47,50,52)         59.7729                                         !
 ! D108  D(48,47,50,51)        122.3281                                         !
 ! D109  D(48,47,50,52)        -59.4682                                         !
 ! D110  D(49,47,50,51)          2.4756                                         !
 ! D111  D(49,47,50,52)       -179.3207                                         !
 ! D112  D(47,50,52,53)         -4.4344                                         !
 ! D113  D(47,50,52,54)       -177.7645                                         !
 ! D114  D(51,50,52,53)        173.7757                                         !
 ! D115  D(51,50,52,54)          0.4456                                         !
 ! D116  D(50,52,54,55)        -45.7615                                         !
 ! D117  D(50,52,54,56)       -164.9467                                         !
 ! D118  D(50,52,54,57)         77.1569                                         !
 ! D119  D(53,52,54,55)        140.5597                                         !
 ! D120  D(53,52,54,56)         21.3746                                         !
 ! D121  D(53,52,54,57)        -96.5218                                         !
 ! D122  D(52,54,57,58)         80.8924                                         !
 ! D123  D(52,54,57,59)        -98.3403                                         !
 ! D124  D(55,54,57,58)       -156.9881                                         !
 ! D125  D(55,54,57,59)         23.7792                                         !
 ! D126  D(56,54,57,58)        -37.9736                                         !
 ! D127  D(56,54,57,59)        142.7937                                         !
 ! D128  D(54,57,59,60)         12.5472                                         !
 ! D129  D(54,57,59,61)        179.8752                                         !
 ! D130  D(58,57,59,60)       -166.6879                                         !
 ! D131  D(58,57,59,61)          0.6401                                         !
 ! D132  D(57,59,61,62)        166.8349                                         !
 ! D133  D(57,59,61,63)        -74.1227                                         !
 ! D134  D(57,59,61,64)         48.4288                                         !
 ! D135  D(60,59,61,62)        -26.2255                                         !
 ! D136  D(60,59,61,63)         92.8169                                         !
 ! D137  D(60,59,61,64)       -144.6316                                         !
 ! D138  D(59,61,64,65)         45.6422                                         !
 ! D139  D(59,61,64,66)       -137.9095                                         !
 ! D140  D(62,61,64,65)        -73.0431                                         !
 ! D141  D(62,61,64,66)        103.4052                                         !
 ! D142  D(63,61,64,65)        169.0832                                         !
 ! D143  D(63,61,64,66)        -14.4685                                         !
 ! D144  D(61,64,66,67)         15.2219                                         !
 ! D145  D(61,64,66,68)       -177.3187                                         !
 ! D146  D(65,64,66,67)       -168.411                                          !
 ! D147  D(65,64,66,68)         -0.9516                                         !
 ! D148  D(64,66,68,69)         41.8882                                         !
 ! D149  D(64,66,68,70)        160.8217                                         !
 ! D150  D(64,66,68,71)        -80.2934                                         !
 ! D151  D(67,66,68,69)       -150.0345                                         !
 ! D152  D(67,66,68,70)        -31.101                                          !
 ! D153  D(67,66,68,71)         87.7838                                         !
 ! D154  D(66,68,71,72)       -113.7389                                         !
 ! D155  D(66,68,71,73)         66.3503                                         !
 ! D156  D(69,68,71,72)        124.93                                           !
 ! D157  D(69,68,71,73)        -54.9808                                         !
 ! D158  D(70,68,71,72)          5.9913                                         !
 ! D159  D(70,68,71,73)       -173.9195                                         !
 ! D160  D(68,71,73,74)         -0.4149                                         !
 ! D161  D(68,71,73,75)        173.3439                                         !
 ! D162  D(72,71,73,74)        179.676                                          !
 ! D163  D(72,71,73,75)         -6.5652                                         !
 ! D164  D(71,73,75,76)        -28.7859                                         !
 ! D165  D(71,73,75,77)       -146.9233                                         !
 ! D166  D(71,73,75,78)         90.6954                                         !
 ! D167  D(74,73,75,76)        144.7996                                         !
 ! D168  D(74,73,75,77)         26.6622                                         !
 ! D169  D(74,73,75,78)        -95.7191                                         !
 ! D170  D(73,75,78,79)        169.5482                                         !
 ! D171  D(73,75,78,80)        -12.7889                                         !
 ! D172  D(76,75,78,79)        -69.4728                                         !
 ! D173  D(76,75,78,80)        108.19                                           !
 ! D174  D(77,75,78,79)         45.8446                                         !
 ! D175  D(77,75,78,80)       -136.4926                                         !
 ! D176  D(75,78,80,81)         25.254                                          !
 ! D177  D(75,78,80,82)       -178.4942                                         !
 ! D178  D(79,78,80,81)       -157.1351                                         !
 ! D179  D(79,78,80,82)         -0.8832                                         !
 ! D180  D(78,80,82,83)         38.5615                                         !
 ! D181  D(78,80,82,84)        156.6758                                         !
 ! D182  D(78,80,82,85)        -82.2589                                         !
 ! D183  D(81,80,82,83)       -165.3837                                         !
 ! D184  D(81,80,82,84)        -47.2694                                         !
 ! D185  D(81,80,82,85)         73.7959                                         !
 ! D186  D(80,82,85,86)       -107.8958                                         !
 ! D187  D(80,82,85,87)         70.9002                                         !
 ! D188  D(83,82,85,86)        132.4993                                         !
 ! D189  D(83,82,85,87)        -48.7047                                         !
 ! D190  D(84,82,85,86)         13.7465                                         !
 ! D191  D(84,82,85,87)       -167.4575                                         !
 ! D192  D(82,85,87,88)         -5.5371                                         !
 ! D193  D(82,85,87,89)       -171.939                                          !
 ! D194  D(86,85,87,88)        173.2451                                         !
 ! D195  D(86,85,87,89)          6.8433                                         !
 ! D196  D(85,87,89,90)        168.5814                                         !
 ! D197  D(85,87,89,91)         50.3148                                         !
 ! D198  D(85,87,89,92)        -70.0599                                         !
 ! D199  D(88,87,89,90)          2.7923                                         !
 ! D200  D(88,87,89,91)       -115.4743                                         !
 ! D201  D(88,87,89,92)        124.151                                          !
 ! D202  D(87,89,92,93)        149.0214                                         !
 ! D203  D(87,89,92,94)        -34.9485                                         !
 ! D204  D(90,89,92,93)        -90.0413                                         !
 ! D205  D(90,89,92,94)         85.9888                                         !
 ! D206  D(91,89,92,93)         25.7618                                         !
 ! D207  D(91,89,92,94)       -158.2081                                         !
 ! D208  D(89,92,94,95)         17.0289                                         !
 ! D209  D(89,92,94,96)        175.9054                                         !
 ! D210  D(93,92,94,95)       -167.0969                                         !
 ! D211  D(93,92,94,96)         -8.2204                                         !
 ! D212  D(92,94,96,97)        175.991                                          !
 ! D213  D(92,94,96,98)         57.9366                                         !
 ! D214  D(92,94,96,99)        -61.9868                                         !
 ! D215  D(95,94,96,97)        -25.3388                                         !
 ! D216  D(95,94,96,98)       -143.3932                                         !
 ! D217  D(95,94,96,99)         96.6833                                         !
 ! D218  D(94,96,99,100)       156.3535                                         !
 ! D219  D(94,96,99,101)       -25.1492                                         !
 ! D220  D(97,96,99,100)       -81.5875                                         !
 ! D221  D(97,96,99,101)        96.9098                                         !
 ! D222  D(98,96,99,100)        34.3911                                         !
 ! D223  D(98,96,99,101)      -147.1117                                         !
 ! D224  D(96,99,101,102)      169.4773                                         !
 ! D225  D(100,99,101,102)     -12.0599                                         !
 --------------------------------------------------------------------------------
 Symmetry turned off by external request.
 Stoichiometry    C28H45N14O15(1+)
 Framework group  C1[X(C28H45N14O15)]
 Deg. of freedom   300
 Full point group                 C1      NOp   1
                          Input orientation:                          
 ---------------------------------------------------------------------
 Center     Atomic      Atomic             Coordinates (Angstroms)
 Number     Number       Type             X           Y           Z
 ---------------------------------------------------------------------
      1          7           0       -0.133875    9.658385   -0.201474
      2          1           0        0.876760    9.404965   -0.404834
      3          1           0       -0.751548    8.853621   -0.453832
      4          1           0       -0.221730    9.850628    0.797765
      5          6           0       -0.501752   10.869051   -1.012348
      6          1           0       -1.440159   11.277837   -0.642654
      7          1           0        0.300746   11.601316   -0.899036
      8          6           0       -0.723149   10.488413   -2.481021
      9          8           0       -1.817312   10.662713   -3.007548
     10          7           0        0.340916    9.940636   -3.119730
     11          1           0        1.209104    9.804613   -2.605493
     12          6           0        0.196783    9.422981   -4.483458
     13          1           0        1.178118    9.322980   -4.945023
     14          1           0       -0.412948   10.118968   -5.063490
     15          6           0       -0.455022    8.040890   -4.385626
     16          8           0        0.217009    6.996886   -4.394899
     17          7           0       -1.780108    8.045010   -4.124133
     18          1           0       -2.201142    8.956719   -3.948495
     19          6           0       -2.365043    6.895440   -3.442289
     20          1           0       -3.435140    7.066986   -3.319963
     21          1           0       -2.213108    5.990902   -4.033594
     22          6           0       -1.701955    6.812345   -2.063439
     23          8           0       -1.750275    7.782985   -1.297236
     24          7           0       -0.988964    5.704668   -1.776065
     25          1           0       -0.944737    4.961733   -2.458688
     26          6           0       -0.136173    5.655215   -0.601944
     27          1           0       -0.677464    6.034058    0.266363
     28          1           0        0.135446    4.618785   -0.390206
     29          6           0        1.170763    6.455387   -0.714991
     30          8           0        1.837587    6.636700    0.303202
     31          7           0        1.512027    6.918446   -1.933936
     32          1           0        0.908538    6.756818   -2.735057
     33          6           0        2.814932    7.494991   -2.235815
     34          1           0        3.573751    6.709731   -2.267165
     35          1           0        2.742863    7.925148   -3.239596
     36          6           0        3.195406    8.578171   -1.232795
     37          8           0        2.382695    9.487103   -0.921027
     38          7           0        4.420559    8.478085   -0.739001
     39          1           0        5.061841    7.752109   -1.105386
     40          6           0        4.897304    9.130192    0.472378
     41          1           0        5.819272    9.679796    0.277952
     42          1           0        4.133519    9.822598    0.832229
     43          6           0        5.218580    8.045031    1.525270
     44          8           0        6.213694    8.126206    2.243405
     45          7           0        4.351902    7.011885    1.541362
     46          1           0        3.515078    7.050501    0.967783
     47          6           0        4.609134    5.730030    2.177882
     48          1           0        5.592888    5.777837    2.651562
     49          1           0        3.854749    5.499634    2.932327
     50          6           0        4.548106    4.623180    1.113489
     51          8           0        3.728251    3.706693    1.157207
     52          7           0        5.440847    4.749160    0.097411
     53          1           0        6.055150    5.549938    0.008187
     54          6           0        5.441637    3.789388   -0.988899
     55          1           0        5.377999    2.778167   -0.580674
     56          1           0        6.371300    3.891952   -1.546370
     57          6           0        4.297828    4.053400   -1.967384
     58          8           0        4.372040    4.920520   -2.847718
     59          7           0        3.193844    3.296449   -1.806170
     60          1           0        3.117869    2.758244   -0.951506
     61          6           0        2.048453    3.462007   -2.673692
     62          1           0        1.381577    2.608644   -2.522825
     63          1           0        1.502358    4.380341   -2.431106
     64          6           0        2.448982    3.483281   -4.156030
     65          8           0        3.235139    2.663666   -4.620197
     66          7           0        1.811921    4.418355   -4.903984
     67          1           0        1.309618    5.181838   -4.473319
     68          6           0        2.038224    4.528789   -6.340385
     69          1           0        2.072567    3.519764   -6.760638
     70          1           0        1.208307    5.080270   -6.780138
     71          6           0        3.325693    5.287595   -6.701938
     72          8           0        3.301703    6.368588   -7.273849
     73          7           0        4.476973    4.652081   -6.333115
     74          1           0        4.394825    3.757458   -5.856979
     75          6           0        5.772717    5.163070   -6.726239
     76          1           0        5.668092    5.700818   -7.674018
     77          1           0        6.469453    4.337135   -6.882927
     78          6           0        6.429098    6.140880   -5.755968
     79          8           0        7.605495    6.482814   -5.901900
     80          7           0        5.634952    6.636221   -4.773707
     81          1           0        4.835810    6.080736   -4.493413
     82          6           0        6.171351    7.596715   -3.829147
     83          1           0        6.834944    8.268214   -4.379941
     84          1           0        5.360254    8.183766   -3.399071
     85          6           0        6.944320    6.921221   -2.696626
     86          8           0        6.501039    6.857477   -1.536644
     87          7           0        8.120252    6.385879   -3.066784
     88          1           0        8.329108    6.408215   -4.066898
     89          6           0        8.904804    5.557667   -2.163047
     90          1           0        9.695816    5.082025   -2.747838
     91          1           0        8.293128    4.770599   -1.717975
     92          6           0        9.547746    6.303499   -0.987441
     93          8           0        9.722496    5.733946    0.078611
     94          7           0        9.969559    7.570452   -1.243762
     95          1           0        9.616312    8.033037   -2.067189
     96          6           0       10.505417    8.369289   -0.159400
     97          1           0       10.855874    9.322699   -0.564060
     98          1           0       11.359376    7.862431    0.292778
     99          6           0        9.520866    8.650097    0.975389
    100          8           0        9.877919    8.916590    2.097989
    101          8           0        8.239292    8.597883    0.573235
    102          1           0        7.659399    8.617082    1.373214
 ---------------------------------------------------------------------
 Rotational constants (GHZ):           0.0639827           0.0380499           0.0317041
 Standard basis: 6-31G(d,p) (6D, 7F)
  1080 basis functions,  1911 primitive gaussians,  1080 cartesian basis functions
   215 alpha electrons      215 beta electrons
       nuclear repulsion energy      9694.1637947618 Hartrees.
 NAtoms=  102 NActive=  102 NUniq=  102 SFac= 1.00D+00 NAtFMM=   60 NAOKFM=T Big=T
 Integral buffers will be    131072 words long.
 Raffenetti 2 integral format.
 Two-electron integral symmetry is turned off.
 Nuclear repulsion after empirical dispersion term =     9693.9040808274 Hartrees.
 One-electron integrals computed using PRISM.
 NBasis=  1080 RedAO= T EigKep=  1.75D-03  NBF=  1080
 NBsUse=  1080 1.00D-06 EigRej= -1.00D+00 NBFU=  1080
 Initial guess from the checkpoint file:  "conf-202.chk"
 B after Tr=     0.000000    0.000000    0.000000
         Rot=    1.000000    0.000000    0.000000    0.000000 Ang=   0.00 deg.
 Requested convergence on RMS density matrix=1.00D-08 within 128 cycles.
 Requested convergence on MAX density matrix=1.00D-06.
 Requested convergence on             energy=1.00D-06.
 No special actions if energy rises.
 SCF Done:  E(RB3LYP) =  -2989.35867806     A.U. after    3 cycles
            NFock=  3  Conv=0.59D-09     -V/T= 2.0090
 Hyperfine terms turned off by default for NAtoms > 100.

 **********************************************************************

            Population analysis using the SCF Density.

 **********************************************************************

 Alpha  occ. eigenvalues --  -19.27913 -19.27132 -19.26628 -19.26186 -19.25983
 Alpha  occ. eigenvalues --  -19.23862 -19.23250 -19.23163 -19.21902 -19.21775
 Alpha  occ. eigenvalues --  -19.20946 -19.20882 -19.19897 -19.18179 -19.17840
 Alpha  occ. eigenvalues --  -14.56761 -14.52394 -14.50716 -14.50184 -14.50001
 Alpha  occ. eigenvalues --  -14.48834 -14.47504 -14.46725 -14.46393 -14.45463
 Alpha  occ. eigenvalues --  -14.45371 -14.45134 -14.44111 -14.42991 -10.44789
 Alpha  occ. eigenvalues --  -10.43720 -10.43674 -10.43202 -10.43150 -10.39889
 Alpha  occ. eigenvalues --  -10.39835 -10.39626 -10.39092 -10.38980 -10.37920
 Alpha  occ. eigenvalues --  -10.37883 -10.37451 -10.37359 -10.37064 -10.36738
 Alpha  occ. eigenvalues --  -10.36387 -10.35910 -10.35655 -10.34901 -10.33814
 Alpha  occ. eigenvalues --  -10.33234 -10.32519 -10.31924 -10.31567 -10.31474
 Alpha  occ. eigenvalues --  -10.31188 -10.29168  -1.20120  -1.18695  -1.18348
 Alpha  occ. eigenvalues --   -1.18007  -1.17133  -1.15390  -1.14988  -1.14525
 Alpha  occ. eigenvalues --   -1.13775  -1.13495  -1.12845  -1.12489  -1.12048
 Alpha  occ. eigenvalues --   -1.11670  -1.10293  -1.08615  -1.07164  -1.06395
 Alpha  occ. eigenvalues --   -1.06078  -1.05796  -1.05532  -1.03707  -1.03115
 Alpha  occ. eigenvalues --   -1.02739  -1.02309  -1.01989  -1.00926  -1.00078
 Alpha  occ. eigenvalues --   -0.99049  -0.91493  -0.89897  -0.88353  -0.87384
 Alpha  occ. eigenvalues --   -0.86270  -0.85899  -0.84601  -0.83665  -0.83028
 Alpha  occ. eigenvalues --   -0.82100  -0.81044  -0.79344  -0.78433  -0.77705
 Alpha  occ. eigenvalues --   -0.75622  -0.74324  -0.73421  -0.72897  -0.71825
 Alpha  occ. eigenvalues --   -0.71711  -0.71317  -0.70436  -0.69593  -0.69172
 Alpha  occ. eigenvalues --   -0.68813  -0.68302  -0.68128  -0.67605  -0.67236
 Alpha  occ. eigenvalues --   -0.66986  -0.66553  -0.66366  -0.65674  -0.64941
 Alpha  occ. eigenvalues --   -0.64643  -0.64221  -0.63841  -0.63491  -0.63093
 Alpha  occ. eigenvalues --   -0.62770  -0.62660  -0.61984  -0.61879  -0.61083
 Alpha  occ. eigenvalues --   -0.60646  -0.60378  -0.60078  -0.59805  -0.59019
 Alpha  occ. eigenvalues --   -0.58726  -0.58079  -0.57976  -0.57780  -0.57586
 Alpha  occ. eigenvalues --   -0.57141  -0.56731  -0.56200  -0.56018  -0.55767
 Alpha  occ. eigenvalues --   -0.55368  -0.55257  -0.55037  -0.54792  -0.54322
 Alpha  occ. eigenvalues --   -0.54043  -0.53965  -0.53855  -0.53634  -0.53368
 Alpha  occ. eigenvalues --   -0.53105  -0.52800  -0.52451  -0.52388  -0.52121
 Alpha  occ. eigenvalues --   -0.52011  -0.51955  -0.51581  -0.51284  -0.51222
 Alpha  occ. eigenvalues --   -0.50938  -0.50805  -0.50437  -0.50393  -0.49834
 Alpha  occ. eigenvalues --   -0.49691  -0.49383  -0.49087  -0.48812  -0.48584
 Alpha  occ. eigenvalues --   -0.48450  -0.48005  -0.47451  -0.46860  -0.46777
 Alpha  occ. eigenvalues --   -0.46497  -0.46046  -0.45961  -0.45583  -0.44716
 Alpha  occ. eigenvalues --   -0.43826  -0.42984  -0.42877  -0.42838  -0.42460
 Alpha  occ. eigenvalues --   -0.41767  -0.40530  -0.40319  -0.40017  -0.39469
 Alpha  occ. eigenvalues --   -0.39031  -0.38799  -0.38469  -0.38220  -0.37786
 Alpha  occ. eigenvalues --   -0.37532  -0.37334  -0.36750  -0.36579  -0.35850
 Alpha  occ. eigenvalues --   -0.35694  -0.35392  -0.34623  -0.34201  -0.34014
 Alpha  occ. eigenvalues --   -0.33526  -0.33036  -0.32694  -0.31715  -0.30467
 Alpha virt. eigenvalues --   -0.14750  -0.14466  -0.12913  -0.12499  -0.12005
 Alpha virt. eigenvalues --   -0.09949  -0.09620  -0.08763  -0.08489  -0.07560
 Alpha virt. eigenvalues --   -0.06930  -0.06770  -0.06181  -0.06034  -0.04917
 Alpha virt. eigenvalues --   -0.04640  -0.03292  -0.02780  -0.01741  -0.01400
 Alpha virt. eigenvalues --   -0.00825  -0.00317  -0.00210   0.00648   0.00853
 Alpha virt. eigenvalues --    0.01007   0.01284   0.01564   0.02110   0.02544
 Alpha virt. eigenvalues --    0.02866   0.03207   0.03307   0.03453   0.03989
 Alpha virt. eigenvalues --    0.04143   0.04581   0.04674   0.05199   0.05307
 Alpha virt. eigenvalues --    0.05432   0.05670   0.05856   0.05928   0.06434
 Alpha virt. eigenvalues --    0.06518   0.06803   0.07054   0.07296   0.07757
 Alpha virt. eigenvalues --    0.08040   0.08212   0.08274   0.08661   0.08930
 Alpha virt. eigenvalues --    0.09098   0.09442   0.09773   0.10087   0.10243
 Alpha virt. eigenvalues --    0.10354   0.10463   0.10813   0.11132   0.11316
 Alpha virt. eigenvalues --    0.11789   0.11963   0.12178   0.12527   0.13204
 Alpha virt. eigenvalues --    0.13345   0.13824   0.14170   0.14320   0.14520
 Alpha virt. eigenvalues --    0.14868   0.15112   0.15541   0.16081   0.16307
 Alpha virt. eigenvalues --    0.16743   0.17330   0.17680   0.18066   0.18760
 Alpha virt. eigenvalues --    0.18860   0.19382   0.19672   0.20548   0.20997
 Alpha virt. eigenvalues --    0.21687   0.22756   0.23306   0.23519   0.23922
 Alpha virt. eigenvalues --    0.24709   0.25270   0.25699   0.25866   0.26500
 Alpha virt. eigenvalues --    0.27216   0.27539   0.27989   0.28273   0.28512
 Alpha virt. eigenvalues --    0.28995   0.29501   0.29910   0.30354   0.31322
 Alpha virt. eigenvalues --    0.31580   0.32165   0.32639   0.33686   0.34286
 Alpha virt. eigenvalues --    0.34492   0.34862   0.36687   0.37568   0.37779
 Alpha virt. eigenvalues --    0.38088   0.38680   0.39232   0.39296   0.40006
 Alpha virt. eigenvalues --    0.40244   0.40788   0.41315   0.41436   0.41720
 Alpha virt. eigenvalues --    0.42126   0.42337   0.42640   0.42985   0.43264
 Alpha virt. eigenvalues --    0.43417   0.43906   0.44187   0.44690   0.44942
 Alpha virt. eigenvalues --    0.45363   0.45809   0.45976   0.46365   0.46450
 Alpha virt. eigenvalues --    0.46698   0.46846   0.47054   0.47359   0.47652
 Alpha virt. eigenvalues --    0.48032   0.48250   0.48776   0.49202   0.49523
 Alpha virt. eigenvalues --    0.49609   0.50030   0.50203   0.50388   0.50805
 Alpha virt. eigenvalues --    0.51035   0.51661   0.52058   0.52102   0.52590
 Alpha virt. eigenvalues --    0.52871   0.53040   0.53231   0.53441   0.53631
 Alpha virt. eigenvalues --    0.53807   0.54272   0.54892   0.55146   0.55390
 Alpha virt. eigenvalues --    0.55754   0.55917   0.56083   0.56214   0.56542
 Alpha virt. eigenvalues --    0.57222   0.57329   0.57805   0.57937   0.58448
 Alpha virt. eigenvalues --    0.59020   0.59455   0.59754   0.59937   0.60337
 Alpha virt. eigenvalues --    0.60392   0.61132   0.61572   0.61775   0.61999
 Alpha virt. eigenvalues --    0.62325   0.62551   0.62948   0.63447   0.63592
 Alpha virt. eigenvalues --    0.63800   0.64026   0.64632   0.65355   0.65513
 Alpha virt. eigenvalues --    0.65720   0.66013   0.67314   0.67751   0.68283
 Alpha virt. eigenvalues --    0.68506   0.68863   0.69419   0.69487   0.69774
 Alpha virt. eigenvalues --    0.70114   0.70479   0.70674   0.70787   0.71260
 Alpha virt. eigenvalues --    0.71464   0.71941   0.72156   0.72798   0.73018
 Alpha virt. eigenvalues --    0.73257   0.73450   0.73562   0.73902   0.74035
 Alpha virt. eigenvalues --    0.74361   0.74872   0.74993   0.75317   0.75771
 Alpha virt. eigenvalues --    0.76226   0.76737   0.77030   0.77468   0.77875
 Alpha virt. eigenvalues --    0.77915   0.78128   0.78325   0.78546   0.78848
 Alpha virt. eigenvalues --    0.79161   0.79372   0.80015   0.80295   0.80467
 Alpha virt. eigenvalues --    0.80632   0.80867   0.81435   0.81792   0.82290
 Alpha virt. eigenvalues --    0.82526   0.83123   0.83611   0.83731   0.83944
 Alpha virt. eigenvalues --    0.84467   0.84840   0.84961   0.85650   0.86069
 Alpha virt. eigenvalues --    0.86336   0.86825   0.87221   0.87475   0.87967
 Alpha virt. eigenvalues --    0.88202   0.88519   0.88777   0.89626   0.90234
 Alpha virt. eigenvalues --    0.90665   0.91223   0.91858   0.92251   0.92555
 Alpha virt. eigenvalues --    0.93150   0.93497   0.93873   0.94292   0.94371
 Alpha virt. eigenvalues --    0.94641   0.95090   0.95527   0.96281   0.96707
 Alpha virt. eigenvalues --    0.97200   0.97569   0.98169   0.98536   0.98849
 Alpha virt. eigenvalues --    0.99279   0.99921   1.00409   1.00846   1.01155
 Alpha virt. eigenvalues --    1.01308   1.01443   1.01992   1.02526   1.02975
 Alpha virt. eigenvalues --    1.03265   1.03509   1.04078   1.04866   1.05132
 Alpha virt. eigenvalues --    1.05450   1.05999   1.06892   1.06973   1.07349
 Alpha virt. eigenvalues --    1.07577   1.08400   1.08495   1.08637   1.09039
 Alpha virt. eigenvalues --    1.09527   1.09898   1.10216   1.10854   1.11183
 Alpha virt. eigenvalues --    1.11800   1.11960   1.12846   1.13064   1.13627
 Alpha virt. eigenvalues --    1.13980   1.14183   1.14564   1.15002   1.15803
 Alpha virt. eigenvalues --    1.15959   1.16478   1.16943   1.17590   1.18168
 Alpha virt. eigenvalues --    1.18613   1.19039   1.19290   1.19426   1.20714
 Alpha virt. eigenvalues --    1.21109   1.21501   1.22250   1.22385   1.22813
 Alpha virt. eigenvalues --    1.23577   1.23968   1.24439   1.25057   1.25589
 Alpha virt. eigenvalues --    1.25892   1.26989   1.27295   1.27633   1.28033
 Alpha virt. eigenvalues --    1.28459   1.29122   1.29325   1.29536   1.29813
 Alpha virt. eigenvalues --    1.30306   1.30382   1.31200   1.32014   1.32245
 Alpha virt. eigenvalues --    1.32570   1.33091   1.33664   1.34566   1.35010
 Alpha virt. eigenvalues --    1.35351   1.35580   1.35904   1.36113   1.36518
 Alpha virt. eigenvalues --    1.37537   1.37879   1.38049   1.38768   1.39185
 Alpha virt. eigenvalues --    1.40172   1.40427   1.40835   1.41140   1.41957
 Alpha virt. eigenvalues --    1.42373   1.43509   1.43808   1.46097   1.46646
 Alpha virt. eigenvalues --    1.47167   1.47524   1.47944   1.48415   1.48775
 Alpha virt. eigenvalues --    1.49193   1.49551   1.50454   1.51092   1.51664
 Alpha virt. eigenvalues --    1.52394   1.52482   1.53038   1.53535   1.53587
 Alpha virt. eigenvalues --    1.53942   1.55191   1.55217   1.55786   1.56139
 Alpha virt. eigenvalues --    1.56803   1.57099   1.57310   1.57721   1.57844
 Alpha virt. eigenvalues --    1.58397   1.58855   1.59516   1.59808   1.60467
 Alpha virt. eigenvalues --    1.60905   1.61855   1.62277   1.62461   1.63424
 Alpha virt. eigenvalues --    1.63908   1.64319   1.64421   1.64882   1.65364
 Alpha virt. eigenvalues --    1.65758   1.66378   1.66831   1.67043   1.67475
 Alpha virt. eigenvalues --    1.67799   1.67875   1.67983   1.68571   1.68728
 Alpha virt. eigenvalues --    1.69491   1.69774   1.70036   1.70370   1.70494
 Alpha virt. eigenvalues --    1.70852   1.71251   1.71460   1.71727   1.71879
 Alpha virt. eigenvalues --    1.72516   1.72572   1.72971   1.73168   1.73819
 Alpha virt. eigenvalues --    1.74205   1.74315   1.74577   1.74823   1.74972
 Alpha virt. eigenvalues --    1.75305   1.75632   1.76052   1.76209   1.76631
 Alpha virt. eigenvalues --    1.77015   1.77277   1.77497   1.78187   1.78440
 Alpha virt. eigenvalues --    1.78687   1.78914   1.79115   1.79811   1.80115
 Alpha virt. eigenvalues --    1.80181   1.80738   1.81064   1.81481   1.81888
 Alpha virt. eigenvalues --    1.82289   1.82560   1.82860   1.83260   1.83467
 Alpha virt. eigenvalues --    1.83569   1.84238   1.84346   1.84569   1.85064
 Alpha virt. eigenvalues --    1.85103   1.85455   1.85887   1.86375   1.86629
 Alpha virt. eigenvalues --    1.87141   1.87656   1.87959   1.88496   1.88676
 Alpha virt. eigenvalues --    1.89623   1.89693   1.89813   1.90123   1.90358
 Alpha virt. eigenvalues --    1.90539   1.90967   1.91572   1.92148   1.92219
 Alpha virt. eigenvalues --    1.93360   1.93569   1.93680   1.94173   1.94668
 Alpha virt. eigenvalues --    1.95412   1.95714   1.96433   1.96677   1.97064
 Alpha virt. eigenvalues --    1.97248   1.97346   1.97736   1.98267   1.98621
 Alpha virt. eigenvalues --    1.99249   1.99912   2.00019   2.00654   2.00892
 Alpha virt. eigenvalues --    2.01147   2.01302   2.02133   2.02484   2.03315
 Alpha virt. eigenvalues --    2.03580   2.03907   2.04227   2.04552   2.05036
 Alpha virt. eigenvalues --    2.05752   2.06151   2.06661   2.06783   2.07190
 Alpha virt. eigenvalues --    2.08037   2.08673   2.08931   2.09378   2.09729
 Alpha virt. eigenvalues --    2.09946   2.10714   2.11451   2.11712   2.12150
 Alpha virt. eigenvalues --    2.12373   2.12683   2.13210   2.13582   2.13678
 Alpha virt. eigenvalues --    2.14280   2.14991   2.15279   2.15447   2.16123
 Alpha virt. eigenvalues --    2.16634   2.17132   2.17357   2.17406   2.17908
 Alpha virt. eigenvalues --    2.18640   2.18794   2.19345   2.19478   2.20176
 Alpha virt. eigenvalues --    2.20648   2.20824   2.20958   2.21533   2.21784
 Alpha virt. eigenvalues --    2.22120   2.22365   2.22896   2.23324   2.23753
 Alpha virt. eigenvalues --    2.23982   2.24065   2.24729   2.25292   2.25366
 Alpha virt. eigenvalues --    2.25670   2.26070   2.26442   2.26856   2.26923
 Alpha virt. eigenvalues --    2.27803   2.28193   2.28748   2.29217   2.29445
 Alpha virt. eigenvalues --    2.30209   2.30384   2.30586   2.30852   2.31198
 Alpha virt. eigenvalues --    2.31481   2.32502   2.33064   2.33525   2.33931
 Alpha virt. eigenvalues --    2.34022   2.35245   2.35822   2.36255   2.36888
 Alpha virt. eigenvalues --    2.37285   2.37532   2.38216   2.38657   2.39015
 Alpha virt. eigenvalues --    2.39204   2.39447   2.40032   2.40221   2.40710
 Alpha virt. eigenvalues --    2.41558   2.42035   2.42331   2.42491   2.42947
 Alpha virt. eigenvalues --    2.43563   2.43598   2.43897   2.44839   2.45610
 Alpha virt. eigenvalues --    2.45654   2.45851   2.46017   2.46496   2.46778
 Alpha virt. eigenvalues --    2.47500   2.47798   2.48103   2.48451   2.48980
 Alpha virt. eigenvalues --    2.49651   2.49802   2.50501   2.50981   2.51373
 Alpha virt. eigenvalues --    2.51792   2.52067   2.52422   2.52825   2.52963
 Alpha virt. eigenvalues --    2.53119   2.53548   2.53647   2.54477   2.54758
 Alpha virt. eigenvalues --    2.55015   2.55095   2.55545   2.56571   2.56840
 Alpha virt. eigenvalues --    2.57218   2.57666   2.58073   2.58480   2.58895
 Alpha virt. eigenvalues --    2.58950   2.59134   2.59522   2.60630   2.60867
 Alpha virt. eigenvalues --    2.61277   2.61636   2.61746   2.62705   2.63421
 Alpha virt. eigenvalues --    2.63758   2.63981   2.64012   2.64914   2.65481
 Alpha virt. eigenvalues --    2.66063   2.67187   2.68282   2.69299   2.69624
 Alpha virt. eigenvalues --    2.70274   2.71065   2.71632   2.72068   2.72421
 Alpha virt. eigenvalues --    2.73056   2.73322   2.73883   2.74307   2.74552
 Alpha virt. eigenvalues --    2.74697   2.75630   2.75836   2.76602   2.77154
 Alpha virt. eigenvalues --    2.78233   2.78405   2.78879   2.79337   2.80107
 Alpha virt. eigenvalues --    2.80393   2.80765   2.81213   2.81722   2.81900
 Alpha virt. eigenvalues --    2.82409   2.83048   2.84378   2.85637   2.86327
 Alpha virt. eigenvalues --    2.86508   2.87212   2.87513   2.87926   2.88187
 Alpha virt. eigenvalues --    2.88430   2.89329   2.89670   2.90205   2.91084
 Alpha virt. eigenvalues --    2.91551   2.92114   2.92351   2.92908   2.93829
 Alpha virt. eigenvalues --    2.94966   2.95249   2.96382   2.97989   2.98356
 Alpha virt. eigenvalues --    2.99282   2.99824   3.00815   3.01162   3.01813
 Alpha virt. eigenvalues --    3.02823   3.04483   3.05027   3.05250   3.05969
 Alpha virt. eigenvalues --    3.06240   3.07531   3.07838   3.08751   3.09435
 Alpha virt. eigenvalues --    3.10150   3.12258   3.12742   3.13417   3.13623
 Alpha virt. eigenvalues --    3.14605   3.16509   3.18899   3.19380   3.19930
 Alpha virt. eigenvalues --    3.20444   3.21055   3.21624   3.21867   3.22757
 Alpha virt. eigenvalues --    3.23958   3.24640   3.24814   3.27465   3.31514
 Alpha virt. eigenvalues --    3.32930   3.33395   3.33499   3.34404   3.34834
 Alpha virt. eigenvalues --    3.35898   3.36139   3.36470   3.37402   3.37781
 Alpha virt. eigenvalues --    3.38856   3.39675   3.40071   3.40345   3.41455
 Alpha virt. eigenvalues --    3.44259   3.44386   3.44677   3.47110   3.47257
 Alpha virt. eigenvalues --    3.47573   3.48124   3.49147   3.49685   3.51261
 Alpha virt. eigenvalues --    3.51865   3.54493   3.56706   3.86554   3.90934
 Alpha virt. eigenvalues --    3.93242   3.93954   3.94870   3.97255   3.97874
 Alpha virt. eigenvalues --    4.00336   4.01188   4.01808   4.02567   4.02911
 Alpha virt. eigenvalues --    4.05151   4.06369   4.08012   4.08800   4.10383
 Alpha virt. eigenvalues --    4.11375   4.11987   4.13632   4.14566   4.15010
 Alpha virt. eigenvalues --    4.18192   4.18735   4.19730   4.21253   4.24390
 Alpha virt. eigenvalues --    4.26098   4.27621   4.27784   4.30232   4.30967
 Alpha virt. eigenvalues --    4.31543   4.33394   4.34159   4.34633   4.35764
 Alpha virt. eigenvalues --    4.36779   4.39304   4.40771   4.43944   4.44961
 Alpha virt. eigenvalues --    4.47983   4.49109   4.52352   4.52944   4.54759
 Alpha virt. eigenvalues --    4.55709   4.56862   4.57379   4.59909   4.60966
 Alpha virt. eigenvalues --    4.62132   4.63337   4.64629   4.65598   4.68460
          Condensed to atoms (all electrons):
 Mulliken charges:
               1
     1  N   -0.608800
     2  H    0.392455
     3  H    0.380052
     4  H    0.338077
     5  C   -0.178996
     6  H    0.198731
     7  H    0.194024
     8  C    0.595562
     9  O   -0.501762
    10  N   -0.526147
    11  H    0.294822
    12  C   -0.141022
    13  H    0.169097
    14  H    0.181721
    15  C    0.587113
    16  O   -0.561895
    17  N   -0.472536
    18  H    0.320135
    19  C   -0.125678
    20  H    0.181073
    21  H    0.151277
    22  C    0.583985
    23  O   -0.551883
    24  N   -0.510423
    25  H    0.295482
    26  C   -0.142849
    27  H    0.179135
    28  H    0.182053
    29  C    0.582395
    30  O   -0.527655
    31  N   -0.550246
    32  H    0.321021
    33  C   -0.162864
    34  H    0.190015
    35  H    0.144247
    36  C    0.612523
    37  O   -0.617739
    38  N   -0.521526
    39  H    0.345465
    40  C   -0.145311
    41  H    0.173995
    42  H    0.162164
    43  C    0.583732
    44  O   -0.524105
    45  N   -0.529831
    46  H    0.315386
    47  C   -0.119358
    48  H    0.182755
    49  H    0.153103
    50  C    0.563437
    51  O   -0.532420
    52  N   -0.505289
    53  H    0.309083
    54  C   -0.122520
    55  H    0.151717
    56  H    0.143602
    57  C    0.598886
    58  O   -0.557393
    59  N   -0.482269
    60  H    0.301319
    61  C   -0.109830
    62  H    0.154497
    63  H    0.070482
    64  C    0.624782
    65  O   -0.526173
    66  N   -0.545786
    67  H    0.286941
    68  C   -0.138413
    69  H    0.161827
    70  H    0.143771
    71  C    0.559448
    72  O   -0.499841
    73  N   -0.546861
    74  H    0.304149
    75  C   -0.115535
    76  H    0.184859
    77  H    0.152724
    78  C    0.584526
    79  O   -0.537845
    80  N   -0.500685
    81  H    0.305371
    82  C   -0.137540
    83  H    0.166656
    84  H    0.104037
    85  C    0.618356
    86  O   -0.569467
    87  N   -0.524206
    88  H    0.315724
    89  C   -0.146507
    90  H    0.161541
    91  H    0.147569
    92  C    0.605340
    93  O   -0.504774
    94  N   -0.503510
    95  H    0.263847
    96  C   -0.134306
    97  H    0.141558
    98  H    0.179046
    99  C    0.598307
   100  O   -0.453328
   101  O   -0.536739
   102  H    0.356869
 Sum of Mulliken charges =   1.00000
 Mulliken charges with hydrogens summed into heavy atoms:
               1
     1  N    0.501784
     5  C    0.213759
     8  C    0.595562
     9  O   -0.501762
    10  N   -0.231325
    12  C    0.209796
    15  C    0.587113
    16  O   -0.561895
    17  N   -0.152400
    19  C    0.206672
    22  C    0.583985
    23  O   -0.551883
    24  N   -0.214941
    26  C    0.218339
    29  C    0.582395
    30  O   -0.527655
    31  N   -0.229225
    33  C    0.171398
    36  C    0.612523
    37  O   -0.617739
    38  N   -0.176061
    40  C    0.190847
    43  C    0.583732
    44  O   -0.524105
    45  N   -0.214445
    47  C    0.216500
    50  C    0.563437
    51  O   -0.532420
    52  N   -0.196206
    54  C    0.172799
    57  C    0.598886
    58  O   -0.557393
    59  N   -0.180950
    61  C    0.115149
    64  C    0.624782
    65  O   -0.526173
    66  N   -0.258845
    68  C    0.167186
    71  C    0.559448
    72  O   -0.499841
    73  N   -0.242712
    75  C    0.222047
    78  C    0.584526
    79  O   -0.537845
    80  N   -0.195314
    82  C    0.133153
    85  C    0.618356
    86  O   -0.569467
    87  N   -0.208481
    89  C    0.162604
    92  C    0.605340
    93  O   -0.504774
    94  N   -0.239663
    96  C    0.186298
    99  C    0.598307
   100  O   -0.453328
   101  O   -0.179870
 Electronic spatial extent (au):  <R**2>=         134434.1187
 Charge=              1.0000 electrons
 Dipole moment (field-independent basis, Debye):
    X=             -0.0222    Y=             36.3959    Z=            -12.5916  Tot=             38.5124
 Quadrupole moment (field-independent basis, Debye-Ang):
   XX=           -315.5013   YY=             -9.9287   ZZ=           -313.3669
   XY=              1.1628   XZ=            -47.6874   YZ=            -78.6106
 Traceless Quadrupole moment (field-independent basis, Debye-Ang):
   XX=           -102.5690   YY=            203.0036   ZZ=           -100.4346
   XY=              1.1628   XZ=            -47.6874   YZ=            -78.6106
 Octapole moment (field-independent basis, Debye-Ang**2):
  XXX=          -3692.8294  YYY=          -3603.7133  ZZZ=           2048.4613  XYY=          -1140.9418
  XXY=          -2167.0928  XXZ=            143.1167  XZZ=          -1340.2303  YZZ=          -2183.3986
  YYZ=            126.9311  XYZ=           -356.8909
 Hexadecapole moment (field-independent basis, Debye-Ang**3):
 XXXX=         -52001.2874 YYYY=         -67758.3115 ZZZZ=         -21572.9172 XXXY=         -23914.2393
 XXXZ=            842.8261 YYYX=         -22171.6463 YYYZ=           8243.2918 ZZZX=           6168.2313
 ZZZY=          13128.5166 XXYY=         -24556.3179 XXZZ=         -12708.4879 YYZZ=         -19863.7419
 XXYZ=            351.9276 YYXZ=          -1161.2846 ZZXY=          -9209.9330
 N-N= 9.693904080827D+03 E-N=-2.632852712485D+04  KE= 2.962550547780D+03
 Unable to Open any file for archive entry.
 1\1\GINC-LAC-303\SP\RB3LYP\6-31G(d,p)\C28H45N14O15(1+)\KENGMITH\06-Sep
 -2022\0\\# B3LYP/6-31G** empiricaldispersion=gd3bj guess=read geom=che
 ck nosymm integral(ultrafinegrid)\\Candidate Structure: Conf:202 Charg
 e calc in gas phase\\1,1\N,0,-0.1338747354,9.6583854742,-0.2014735556\
 H,0,0.8767604651,9.4049650406,-0.4048339233\H,0,-0.7515476674,8.853621
 1492,-0.4538317574\H,0,-0.22173035,9.8506280129,0.7977654259\C,0,-0.50
 17522278,10.8690512776,-1.0123477828\H,0,-1.4401592195,11.2778372619,-
 0.6426535578\H,0,0.3007457263,11.6013163046,-0.8990357653\C,0,-0.72314
 86813,10.4884134066,-2.4810209144\O,0,-1.8173123439,10.6627131092,-3.0
 07547708\N,0,0.3409156073,9.9406355335,-3.1197299295\H,0,1.2091041647,
 9.8046125241,-2.6054925419\C,0,0.1967833255,9.4229812245,-4.4834584472
 \H,0,1.1781178405,9.3229803277,-4.945022853\H,0,-0.4129476887,10.11896
 83591,-5.0634896271\C,0,-0.4550221403,8.0408901097,-4.3856258353\O,0,0
 .217008839,6.9968857037,-4.3948985789\N,0,-1.7801077281,8.0450095943,-
 4.1241333086\H,0,-2.2011415398,8.9567188235,-3.9484947656\C,0,-2.36504
 32586,6.8954399068,-3.4422888195\H,0,-3.4351397762,7.0669855342,-3.319
 9627013\H,0,-2.2131081467,5.9909019809,-4.0335937336\C,0,-1.7019549552
 ,6.8123448594,-2.0634391224\O,0,-1.7502753628,7.7829851332,-1.29723621
 47\N,0,-0.9889637511,5.704668162,-1.7760652728\H,0,-0.9447373676,4.961
 7328667,-2.4586875202\C,0,-0.1361730014,5.655215466,-0.6019436919\H,0,
 -0.6774638535,6.0340578848,0.26636311\H,0,0.1354458057,4.6187846949,-0
 .390206292\C,0,1.1707632248,6.4553870652,-0.7149913505\O,0,1.837586557
 9,6.6367002057,0.3032015893\N,0,1.51202713,6.9184458676,-1.9339359956\
 H,0,0.908538232,6.756817661,-2.7350570616\C,0,2.8149323748,7.494990729
 4,-2.2358149984\H,0,3.5737508231,6.7097313026,-2.2671652534\H,0,2.7428
 630238,7.9251483771,-3.2395955486\C,0,3.195405959,8.5781713163,-1.2327
 948412\O,0,2.3826954305,9.4871033733,-0.9210268905\N,0,4.4205592779,8.
 4780845717,-0.7390006675\H,0,5.0618408107,7.7521088086,-1.105386192\C,
 0,4.8973035035,9.1301919944,0.4723777669\H,0,5.819272486,9.6797961369,
 0.2779516204\H,0,4.1335193657,9.8225981003,0.8322287631\C,0,5.21857988
 92,8.045030814,1.5252696395\O,0,6.2136935819,8.1262063792,2.2434046534
 \N,0,4.3519024569,7.0118850485,1.5413622446\H,0,3.515078162,7.05050077
 95,0.9677830328\C,0,4.6091344992,5.7300304043,2.1778818511\H,0,5.59288
 81659,5.7778373025,2.6515617363\H,0,3.8547489916,5.4996337239,2.932326
 9554\C,0,4.548106268,4.6231797457,1.1134889197\O,0,3.7282509471,3.7066
 932868,1.1572073043\N,0,5.4408469618,4.7491598476,0.0974113189\H,0,6.0
 551495881,5.5499383273,0.0081872906\C,0,5.4416365759,3.7893876192,-0.9
 888991993\H,0,5.3779985056,2.7781665888,-0.5806738193\H,0,6.371300254,
 3.8919518433,-1.5463698706\C,0,4.2978276659,4.0534000765,-1.9673835008
 \O,0,4.3720398189,4.9205196948,-2.847717799\N,0,3.1938437699,3.2964494
 401,-1.8061696986\H,0,3.1178694248,2.7582440908,-0.9515056001\C,0,2.04
 84529158,3.4620072179,-2.6736921421\H,0,1.3815774472,2.6086440414,-2.5
 228245907\H,0,1.5023584359,4.3803414305,-2.4311061152\C,0,2.4489816394
 ,3.4832812557,-4.156030067\O,0,3.235138914,2.6636656356,-4.6201973839\
 N,0,1.8119210666,4.4183548633,-4.9039844975\H,0,1.3096176776,5.1818379
 408,-4.4733186335\C,0,2.0382238909,4.5287885454,-6.3403847826\H,0,2.07
 25672532,3.5197643109,-6.7606375051\H,0,1.2083066469,5.0802704872,-6.7
 801383291\C,0,3.3256926197,5.2875954121,-6.7019382399\O,0,3.3017029945
 ,6.3685875867,-7.2738488641\N,0,4.4769727624,4.6520807608,-6.333115122
 3\H,0,4.3948251823,3.7574581387,-5.8569788795\C,0,5.7727173718,5.16306
 97268,-6.7262387157\H,0,5.6680915255,5.7008182189,-7.6740176318\H,0,6.
 4694529001,4.3371346526,-6.8829272253\C,0,6.4290983929,6.1408795588,-5
 .755968092\O,0,7.6054946708,6.4828138611,-5.901900276\N,0,5.6349519318
 ,6.6362211946,-4.7737066827\H,0,4.8358099512,6.0807362433,-4.493413487
 8\C,0,6.1713512557,7.596714842,-3.8291469448\H,0,6.834943957,8.2682143
 409,-4.3799405245\H,0,5.360254111,8.1837657568,-3.3990708736\C,0,6.944
 3195623,6.9212212675,-2.6966258141\O,0,6.5010391722,6.8574767329,-1.53
 66443862\N,0,8.1202517476,6.3858791737,-3.0667840897\H,0,8.3291078685,
 6.4082145553,-4.066897515\C,0,8.9048040821,5.5576674355,-2.1630469247\
 H,0,9.6958156892,5.0820250172,-2.7478378637\H,0,8.293127948,4.77059948
 93,-1.7179752431\C,0,9.5477464445,6.3034987227,-0.9874405304\O,0,9.722
 4958635,5.733945718,0.0786106584\N,0,9.9695587549,7.5704519429,-1.2437
 624257\H,0,9.6163118105,8.0330368349,-2.0671894818\C,0,10.5054170647,8
 .3692885317,-0.1594004353\H,0,10.855874166,9.3226985407,-0.5640597052\
 H,0,11.3593763554,7.8624312227,0.2927779909\C,0,9.5208663586,8.6500965
 465,0.9753892177\O,0,9.8779192245,8.9165898103,2.0979889746\O,0,8.2392
 917771,8.5978833207,0.5732350011\H,0,7.659399111,8.6170822558,1.373213
 9941\\Version=ES64L-G16RevC.01\HF=-2989.3586781\RMSD=5.857e-10\Dipole=
 -7.0822338,1.524844,-1.0223858\Quadrupole=-76.2575307,150.9282033,-74.
 6706726,0.86449,-35.4543905,-58.4450845\PG=C01 [X(C28H45N14O15)]\\@
 The archive entry for this job was punched.


 IT IS A SIMPLE TASK TO MAKE THINGS COMPLEX,
 BUT A COMPLEX TASK TO MAKE THEM SIMPLE.
 Job cpu time:       0 days  0 hours 14 minutes 41.6 seconds.
 Elapsed time:       0 days  0 hours  3 minutes 46.2 seconds.
 File lengths (MBytes):  RWF=    832 Int=      0 D2E=      0 Chk=    128 Scr=     32
 Normal termination of Gaussian 16 at Tue Sep  6 12:24:44 2022.
