 Entering Gaussian System, Link 0=/opt/software/Gaussian/g16-AVX2-C.01/g16/g16
 Input=charge-conf-156.com
 Output=charge-conf-156.log
 Initial command:
 /opt/software/Gaussian/g16-AVX2-C.01/g16/l1.exe "/mnt/gs18/scratch/users/kengmith/Gau-15733.inp" -scrdir="/mnt/gs18/scratch/users/kengmith/"
 Entering Link 1 = /opt/software/Gaussian/g16-AVX2-C.01/g16/l1.exe PID=     15743.
  
 Copyright (c) 1988-2019, Gaussian, Inc.  All Rights Reserved.
  
 This is part of the Gaussian(R) 16 program.  It is based on
 the Gaussian(R) 09 system (copyright 2009, Gaussian, Inc.),
 the Gaussian(R) 03 system (copyright 2003, Gaussian, Inc.),
 the Gaussian(R) 98 system (copyright 1998, Gaussian, Inc.),
 the Gaussian(R) 94 system (copyright 1995, Gaussian, Inc.),
 the Gaussian 92(TM) system (copyright 1992, Gaussian, Inc.),
 the Gaussian 90(TM) system (copyright 1990, Gaussian, Inc.),
 the Gaussian 88(TM) system (copyright 1988, Gaussian, Inc.),
 the Gaussian 86(TM) system (copyright 1986, Carnegie Mellon
 University), and the Gaussian 82(TM) system (copyright 1983,
 Carnegie Mellon University). Gaussian is a federally registered
 trademark of Gaussian, Inc.
  
 This software contains proprietary and confidential information,
 including trade secrets, belonging to Gaussian, Inc.
  
 This software is provided under written license and may be
 used, copied, transmitted, or stored only in accord with that
 written license.
  
 The following legend is applicable only to US Government
 contracts under FAR:
  
                    RESTRICTED RIGHTS LEGEND
  
 Use, reproduction and disclosure by the US Government is
 subject to restrictions as set forth in subparagraphs (a)
 and (c) of the Commercial Computer Software - Restricted
 Rights clause in FAR 52.227-19.
  
 Gaussian, Inc.
 340 Quinnipiac St., Bldg. 40, Wallingford CT 06492
  
  
 ---------------------------------------------------------------
 Warning -- This program may not be used in any manner that
 competes with the business of Gaussian, Inc. or will provide
 assistance to any competitor of Gaussian, Inc.  The licensee
 of this program is prohibited from giving any competitor of
 Gaussian, Inc. access to this program.  By using this program,
 the user acknowledges that Gaussian, Inc. is engaged in the
 business of creating and licensing software in the field of
 computational chemistry and represents and warrants to the
 licensee that it is not a competitor of Gaussian, Inc. and that
 it will not use this program in any manner prohibited above.
 ---------------------------------------------------------------
  

 Cite this work as:
 Gaussian 16, Revision C.01,
 M. J. Frisch, G. W. Trucks, H. B. Schlegel, G. E. Scuseria, 
 M. A. Robb, J. R. Cheeseman, G. Scalmani, V. Barone, 
 G. A. Petersson, H. Nakatsuji, X. Li, M. Caricato, A. V. Marenich, 
 J. Bloino, B. G. Janesko, R. Gomperts, B. Mennucci, H. P. Hratchian, 
 J. V. Ortiz, A. F. Izmaylov, J. L. Sonnenberg, D. Williams-Young, 
 F. Ding, F. Lipparini, F. Egidi, J. Goings, B. Peng, A. Petrone, 
 T. Henderson, D. Ranasinghe, V. G. Zakrzewski, J. Gao, N. Rega, 
 G. Zheng, W. Liang, M. Hada, M. Ehara, K. Toyota, R. Fukuda, 
 J. Hasegawa, M. Ishida, T. Nakajima, Y. Honda, O. Kitao, H. Nakai, 
 T. Vreven, K. Throssell, J. A. Montgomery, Jr., J. E. Peralta, 
 F. Ogliaro, M. J. Bearpark, J. J. Heyd, E. N. Brothers, K. N. Kudin, 
 V. N. Staroverov, T. A. Keith, R. Kobayashi, J. Normand, 
 K. Raghavachari, A. P. Rendell, J. C. Burant, S. S. Iyengar, 
 J. Tomasi, M. Cossi, J. M. Millam, M. Klene, C. Adamo, R. Cammi, 
 J. W. Ochterski, R. L. Martin, K. Morokuma, O. Farkas, 
 J. B. Foresman, and D. J. Fox, Gaussian, Inc., Wallingford CT, 2019.
 
 ******************************************
 Gaussian 16:  ES64L-G16RevC.01  3-Jul-2019
                17-Jul-2022 
 ******************************************
 %mem=8gb
 %nproc=4
 Will use up to    4 processors via shared memory.
 %chk=conf-156.chk
 ----------------------------------------------------------------------
 # B3LYP/6-31G* empiricaldispersion=gd3bj guess=read geom=check nosymm 
 integral(ultrafinegrid)
 ----------------------------------------------------------------------
 1/29=2,38=1,172=1/1;
 2/12=2,15=1,40=1/2;
 3/5=1,6=6,7=1,11=2,14=-4,25=1,30=1,74=-5,75=-5,116=-2,124=41/1,2,3;
 4/5=1/1;
 5/5=2,38=6/2;
 6/7=2,8=2,9=2,10=2,28=1/1;
 99/5=1,9=1/99;
 ------------------------------------------------------
 Candidate Structure: Conf:156 Charge calc in gas phase
 ------------------------------------------------------
 Structure from the checkpoint file:  "conf-156.chk"
 Charge =  1 Multiplicity = 1
 Redundant internal coordinates found in file.  (old form).
 N,0,-4.7890372117,1.237462756,-6.3558609501
 H,0,-5.27878931,1.4079874381,-5.4434375318
 H,0,-5.2421072629,1.7148607783,-7.1358319119
 H,0,-3.7867823326,1.5265230465,-6.2528864388
 C,0,-4.7207970886,-0.2550708321,-6.4711868788
 H,0,-5.421271536,-0.5993031173,-7.2354547691
 C,0,-5.1578681709,-0.7490421684,-5.072057893
 C,0,-3.2367970552,-0.609465424,-6.8411974205
 H,0,-3.0184773692,-1.6147123212,-6.4619930145
 O,0,-5.5135320614,0.0835179381,-4.2344100641
 C,0,-3.0008812669,-0.5563941501,-8.34379759
 H,0,-3.6306527941,-1.2823460883,-8.8681992066
 H,0,-3.2120259167,0.443000504,-8.7421274917
 H,0,-1.9533237185,-0.7827027279,-8.5547169036
 O,0,-2.3962848981,0.3457084808,-6.2180640988
 H,0,-2.2252131505,0.0638022496,-5.2814799101
 N,0,-5.103002789,-2.0716869115,-4.8791740162
 H,0,-4.7150779148,-2.6743253819,-5.5989620711
 C,0,-5.0757704819,-2.6870716322,-3.5459678193
 H,0,-5.1581795028,-1.8748467097,-2.8192709018
 C,0,-3.6931280287,-3.3564438881,-3.4936748324
 C,0,-6.2155893969,-3.7018628931,-3.3328141134
 H,0,-6.1274999521,-4.4529117981,-4.1305973477
 O,0,-3.3213975964,-4.0590614934,-4.4290820599
 C,0,-7.5798836436,-3.0026953908,-3.4557876448
 H,0,-7.5953689072,-2.4211377713,-4.385862436
 H,0,-7.6829771902,-2.2765501119,-2.6374651807
 C,0,-6.0314278592,-4.4048846848,-1.9813162478
 H,0,-6.0623864329,-3.6839812685,-1.1543666212
 H,0,-5.0801256368,-4.9447962793,-1.9279384335
 H,0,-6.8253949117,-5.1359026656,-1.8126347163
 C,0,-8.7706387757,-3.9648180523,-3.4520146657
 H,0,-9.7056573843,-3.4205792206,-3.618601168
 H,0,-8.8672472816,-4.495644138,-2.4999503691
 H,0,-8.6746041797,-4.7151657495,-4.2457719487
 N,0,-2.9113721509,-3.0038216152,-2.4372156326
 H,0,-3.3460055584,-2.6483330505,-1.5810829599
 C,0,-1.6287469489,-3.6537467219,-2.1427374662
 H,0,-1.7685763158,-4.7419734973,-2.1787844857
 C,0,-1.3152924267,-3.2313005207,-0.688992193
 C,0,-0.533532956,-3.248246274,-3.1390530228
 H,0,0.3360121722,-3.9053417601,-3.0424071913
 H,0,-0.1989928784,-2.2215028897,-2.970846949
 H,0,-0.910446368,-3.3638333034,-4.1570761241
 O,0,-2.1810644222,-2.6767633748,-0.0095995887
 N,0,-0.0690777804,-3.5147222781,-0.2468794702
 H,0,0.6189064364,-3.7163430822,-0.9629665282
 C,0,0.5005563306,-2.7741853903,0.8769507725
 H,0,-0.3289536436,-2.4876150627,1.52730753
 C,0,1.1723390049,-1.5210818709,0.2809855657
 C,0,1.5116142321,-3.6431042764,1.6424010739
 H,0,2.3409908219,-3.9051814374,0.9737044149
 H,0,1.0287096998,-4.5816941957,1.9264492547
 O,0,1.5804853576,-1.5225853318,-0.8785806108
 C,0,2.0575621933,-2.9610506473,2.8964878966
 H,0,2.6135830798,-2.049697292,2.6599412212
 H,0,1.2260055684,-2.6532409471,3.5483750986
 C,0,2.9501514784,-3.8972583976,3.7086573653
 N,0,3.7999053111,-3.2503774811,4.5569954388
 H,0,3.806042138,-2.24469049,4.6454319798
 H,0,4.3731546666,-3.8006359478,5.1806746077
 O,0,2.8993408627,-5.1144570027,3.611041093
 N,0,1.2788845603,-0.4586458547,1.1138427299
 H,0,1.1217634779,-0.5747243241,2.1091143717
 C,0,2.0507209348,0.715452528,0.7687298469
 H,0,2.702075481,0.4473207303,-0.0685804908
 C,0,2.8968674118,1.0786549721,2.0023238256
 C,0,1.1310082034,1.8926381906,0.3260241071
 H,0,1.755768987,2.7201480503,-0.0271940314
 H,0,0.5813606225,2.2525102143,1.2033007362
 O,0,2.7258376543,0.498959095,3.0816224517
 C,0,0.1722646287,1.439843266,-0.7458467473
 C,0,0.5308607158,1.4594811756,-2.0977483933
 H,0,1.4776482118,1.9016498582,-2.3958705923
 C,0,-1.0497554893,0.8585224797,-0.3896329933
 H,0,-1.3496856155,0.8359993684,0.6532167722
 C,0,-0.281358313,0.8745517148,-3.0684354438
 H,0,0.0197416597,0.8533161191,-4.1115002826
 C,0,-1.876519608,0.2761364423,-1.3454132981
 H,0,-2.8133364321,-0.185294181,-1.0536070908
 O,0,-2.2534798953,-0.3766367359,-3.6389666068
 H,0,-2.518167895,-1.2469812991,-3.2717684065
 C,0,-1.4701024041,0.2659656694,-2.6771789166
 N,0,3.7936150811,2.0554408112,1.8088451664
 H,0,3.8728810946,2.5647558945,0.9304230032
 C,0,4.643742508,2.5981503963,2.8538965581
 H,0,4.0313968061,2.7937266485,3.7426951025
 C,0,5.1785523833,3.9308908416,2.2902868603
 C,0,5.7799980507,1.6347473079,3.2272358913
 H,0,6.3966462471,2.0470895253,4.0315218316
 H,0,5.3542552391,0.6866772384,3.5647446256
 H,0,6.4215260598,1.4500161967,2.3600444351
 O,0,4.9505258794,4.2514749073,1.1175563876
 N,0,5.9041305821,4.6630077953,3.1442525801
 H,0,6.0585624537,4.390118908,4.111628313
 C,0,6.5843620729,5.9050955049,2.7976355028
 H,0,7.0119525947,5.8186015164,1.7962093389
 C,0,7.6913231242,6.0990298761,3.8572639802
 C,0,5.5695492076,7.0702895827,2.85164081
 H,0,5.2051413022,7.1298455858,3.8853380278
 H,0,4.7165191848,6.7782208555,2.2297447104
 O,0,8.7402100098,6.7041637985,3.456274018
 C,0,6.0330916927,8.4546255187,2.3695713195
 H,0,5.149472082,9.10885972,2.3510341447
 H,0,6.3792032138,8.3899771372,1.3307523939
 C,0,7.1492883844,9.1522226201,3.1625014933
 H,0,7.2437586881,10.1920028461,2.8262903664
 H,0,8.0908267874,8.6379010139,2.9954592413
 N,0,6.8747530059,9.1516056657,4.6077911532
 H,0,5.9252474156,9.3672466716,4.8799780277
 N,0,8.9512450996,8.4104530417,5.3706660373
 H,0,9.5241178667,8.2588258974,6.1908794223
 H,0,9.0572342507,7.6741929457,4.5773883395
 N,0,7.3419414982,9.1590685805,6.8778109779
 H,0,7.6863733591,8.5517500034,7.6088617467
 H,0,6.4163401178,9.5303991581,7.0389767182
 C,0,7.7301365961,8.8737700364,5.6014645278
 O,0,7.4218697281,5.7319355106,5.0181513466
 Recover connectivity data from disk.
                           ----------------------------
                           !    Current Parameters    !
                           ! (Angstroms and Degrees)  !
 --------------------------                            --------------------------
 ! Name  Definition              Value                                          !
 --------------------------------------------------------------------------------
 ! R1    R(1,2)                  1.0495                                         !
 ! R2    R(1,3)                  1.0206                                         !
 ! R3    R(1,4)                  1.0482                                         !
 ! R4    R(1,5)                  1.4985                                         !
 ! R5    R(5,6)                  1.0924                                         !
 ! R6    R(5,7)                  1.5468                                         !
 ! R7    R(5,8)                  1.57                                           !
 ! R8    R(7,10)                 1.2334                                         !
 ! R9    R(7,17)                 1.3378                                         !
 ! R10   R(8,9)                  1.0963                                         !
 ! R11   R(8,11)                 1.5219                                         !
 ! R12   R(8,15)                 1.4167                                         !
 ! R13   R(11,12)                1.0948                                         !
 ! R14   R(11,13)                1.0964                                         !
 ! R15   R(11,14)                1.0923                                         !
 ! R16   R(15,16)                0.9929                                         !
 ! R17   R(17,18)                1.0158                                         !
 ! R18   R(17,19)                1.4686                                         !
 ! R19   R(19,20)                1.093                                          !
 ! R20   R(19,21)                1.537                                          !
 ! R21   R(19,22)                1.5409                                         !
 ! R22   R(21,24)                1.2275                                         !
 ! R23   R(21,36)                1.3607                                         !
 ! R24   R(22,23)                1.0992                                         !
 ! R25   R(22,25)                1.5379                                         !
 ! R26   R(22,28)                1.5345                                         !
 ! R27   R(25,26)                1.097                                          !
 ! R28   R(25,27)                1.0989                                         !
 ! R29   R(25,32)                1.5309                                         !
 ! R30   R(28,29)                1.0975                                         !
 ! R31   R(28,30)                1.0951                                         !
 ! R32   R(28,31)                1.0923                                         !
 ! R33   R(32,33)                1.0946                                         !
 ! R34   R(32,34)                1.0943                                         !
 ! R35   R(32,35)                1.0965                                         !
 ! R36   R(36,37)                1.0238                                         !
 ! R37   R(36,38)                1.4677                                         !
 ! R38   R(38,39)                1.0978                                         !
 ! R39   R(38,40)                1.546                                          !
 ! R40   R(38,41)                1.5351                                         !
 ! R41   R(40,45)                1.2323                                         !
 ! R42   R(40,46)                1.3523                                         !
 ! R43   R(41,42)                1.0942                                         !
 ! R44   R(41,43)                1.0929                                         !
 ! R45   R(41,44)                1.0917                                         !
 ! R46   R(46,47)                1.0133                                         !
 ! R47   R(46,48)                1.4615                                         !
 ! R48   R(48,49)                1.0923                                         !
 ! R49   R(48,50)                1.5417                                         !
 ! R50   R(48,51)                1.5373                                         !
 ! R51   R(50,54)                1.2293                                         !
 ! R52   R(50,63)                1.3542                                         !
 ! R53   R(51,52)                1.0971                                         !
 ! R54   R(51,53)                1.0931                                         !
 ! R55   R(51,55)                1.5284                                         !
 ! R56   R(55,56)                1.0935                                         !
 ! R57   R(55,57)                1.1005                                         !
 ! R58   R(55,58)                1.5274                                         !
 ! R59   R(58,59)                1.3639                                         !
 ! R60   R(58,62)                1.2222                                         !
 ! R61   R(59,60)                1.0096                                         !
 ! R62   R(59,61)                1.0101                                         !
 ! R63   R(63,64)                1.0143                                         !
 ! R64   R(63,65)                1.4468                                         !
 ! R65   R(65,66)                1.0942                                         !
 ! R66   R(65,67)                1.5394                                         !
 ! R67   R(65,68)                1.5581                                         !
 ! R68   R(67,71)                1.237                                          !
 ! R69   R(67,84)                1.34                                           !
 ! R70   R(68,69)                1.0954                                         !
 ! R71   R(68,70)                1.096                                          !
 ! R72   R(68,72)                1.5077                                         !
 ! R73   R(72,73)                1.3988                                         !
 ! R74   R(72,75)                1.3993                                         !
 ! R75   R(73,74)                1.0866                                         !
 ! R76   R(73,77)                1.3943                                         !
 ! R77   R(75,76)                1.0854                                         !
 ! R78   R(75,79)                1.3915                                         !
 ! R79   R(77,78)                1.0859                                         !
 ! R80   R(77,83)                1.3916                                         !
 ! R81   R(79,80)                1.0843                                         !
 ! R82   R(79,83)                1.3924                                         !
 ! R83   R(81,82)                0.981                                          !
 ! R84   R(81,83)                1.397                                          !
 ! R85   R(84,85)                1.0185                                         !
 ! R86   R(84,86)                1.4524                                         !
 ! R87   R(86,87)                1.0969                                         !
 ! R88   R(86,88)                1.5427                                         !
 ! R89   R(86,89)                1.5358                                         !
 ! R90   R(88,93)                1.237                                          !
 ! R91   R(88,94)                1.3386                                         !
 ! R92   R(89,90)                1.0941                                         !
 ! R93   R(89,91)                1.0927                                         !
 ! R94   R(89,92)                1.0944                                         !
 ! R95   R(94,95)                1.0169                                         !
 ! R96   R(94,96)                1.458                                          !
 ! R97   R(96,97)                1.0923                                         !
 ! R98   R(96,98)                1.5446                                         !
 ! R99   R(96,99)                1.5461                                         !
 ! R100  R(98,102)               1.2756                                         !
 ! R101  R(98,118)               1.247                                          !
 ! R102  R(99,100)               1.0977                                         !
 ! R103  R(99,101)               1.0953                                         !
 ! R104  R(99,103)               1.5374                                         !
 ! R105  R(103,104)              1.0996                                         !
 ! R106  R(103,105)              1.0969                                         !
 ! R107  R(103,106)              1.5366                                         !
 ! R108  R(106,107)              1.0969                                         !
 ! R109  R(106,108)              1.0858                                         !
 ! R110  R(106,109)              1.4711                                         !
 ! R111  R(109,110)              1.011                                          !
 ! R112  R(109,117)              1.3402                                         !
 ! R113  R(111,112)              1.0119                                         !
 ! R114  R(111,113)              1.0875                                         !
 ! R115  R(111,117)              1.3263                                         !
 ! R116  R(114,115)              1.0109                                         !
 ! R117  R(114,116)              1.0102                                         !
 ! R118  R(114,117)              1.3642                                         !
 ! A1    A(2,1,3)              112.4121                                         !
 ! A2    A(2,1,4)              108.4206                                         !
 ! A3    A(2,1,5)              104.4768                                         !
 ! A4    A(3,1,4)              111.751                                          !
 ! A5    A(3,1,5)              115.2968                                         !
 ! A6    A(4,1,5)              103.8091                                         !
 ! A7    A(1,5,6)              109.7859                                         !
 ! A8    A(1,5,7)              103.6265                                         !
 ! A9    A(1,5,8)              106.6194                                         !
 ! A10   A(6,5,7)              110.5497                                         !
 ! A11   A(6,5,8)              111.7223                                         !
 ! A12   A(7,5,8)              114.091                                          !
 ! A13   A(5,7,10)             118.6991                                         !
 ! A14   A(5,7,17)             115.758                                          !
 ! A15   A(10,7,17)            125.541                                          !
 ! A16   A(5,8,9)              108.2818                                         !
 ! A17   A(5,8,11)             111.7983                                         !
 ! A18   A(5,8,15)             107.7545                                         !
 ! A19   A(9,8,11)             110.0348                                         !
 ! A20   A(9,8,15)             110.3598                                         !
 ! A21   A(11,8,15)            108.5891                                         !
 ! A22   A(8,11,12)            111.1379                                         !
 ! A23   A(8,11,13)            111.1391                                         !
 ! A24   A(8,11,14)            109.3954                                         !
 ! A25   A(12,11,13)           108.6403                                         !
 ! A26   A(12,11,14)           108.772                                          !
 ! A27   A(13,11,14)           107.6622                                         !
 ! A28   A(8,15,16)            109.0065                                         !
 ! A29   A(7,17,18)            120.0052                                         !
 ! A30   A(7,17,19)            123.0885                                         !
 ! A31   A(18,17,19)           112.8052                                         !
 ! A32   A(17,19,20)           106.905                                          !
 ! A33   A(17,19,21)           103.2997                                         !
 ! A34   A(17,19,22)           112.8182                                         !
 ! A35   A(20,19,21)           111.6438                                         !
 ! A36   A(20,19,22)           109.9778                                         !
 ! A37   A(21,19,22)           111.9558                                         !
 ! A38   A(19,21,24)           119.7193                                         !
 ! A39   A(19,21,36)           115.4904                                         !
 ! A40   A(24,21,36)           124.4701                                         !
 ! A41   A(19,22,23)           106.8755                                         !
 ! A42   A(19,22,25)           110.2265                                         !
 ! A43   A(19,22,28)           109.5588                                         !
 ! A44   A(23,22,25)           108.8852                                         !
 ! A45   A(23,22,28)           108.4555                                         !
 ! A46   A(25,22,28)           112.654                                          !
 ! A47   A(22,25,26)           108.7422                                         !
 ! A48   A(22,25,27)           108.9102                                         !
 ! A49   A(22,25,32)           113.8342                                         !
 ! A50   A(26,25,27)           106.2435                                         !
 ! A51   A(26,25,32)           108.9217                                         !
 ! A52   A(27,25,32)           109.9066                                         !
 ! A53   A(22,28,29)           111.0574                                         !
 ! A54   A(22,28,30)           111.9036                                         !
 ! A55   A(22,28,31)           110.8161                                         !
 ! A56   A(29,28,30)           108.1566                                         !
 ! A57   A(29,28,31)           107.6213                                         !
 ! A58   A(30,28,31)           107.093                                          !
 ! A59   A(25,32,33)           110.5828                                         !
 ! A60   A(25,32,34)           112.0657                                         !
 ! A61   A(25,32,35)           111.1105                                         !
 ! A62   A(33,32,34)           107.3476                                         !
 ! A63   A(33,32,35)           107.751                                          !
 ! A64   A(34,32,35)           107.7937                                         !
 ! A65   A(21,36,37)           119.69                                           !
 ! A66   A(21,36,38)           122.8932                                         !
 ! A67   A(37,36,38)           110.9132                                         !
 ! A68   A(36,38,39)           108.7271                                         !
 ! A69   A(36,38,40)           104.1728                                         !
 ! A70   A(36,38,41)           112.1034                                         !
 ! A71   A(39,38,40)           109.1221                                         !
 ! A72   A(39,38,41)           109.3549                                         !
 ! A73   A(40,38,41)           113.17                                           !
 ! A74   A(38,40,45)           119.9291                                         !
 ! A75   A(38,40,46)           115.9119                                         !
 ! A76   A(45,40,46)           124.1585                                         !
 ! A77   A(38,41,42)           110.5495                                         !
 ! A78   A(38,41,43)           111.5098                                         !
 ! A79   A(38,41,44)           109.3254                                         !
 ! A80   A(42,41,43)           107.8986                                         !
 ! A81   A(42,41,44)           107.0471                                         !
 ! A82   A(43,41,44)           110.4065                                         !
 ! A83   A(40,46,47)           115.8708                                         !
 ! A84   A(40,46,48)           120.2903                                         !
 ! A85   A(47,46,48)           112.31                                           !
 ! A86   A(46,48,49)           107.1445                                         !
 ! A87   A(46,48,50)           106.5256                                         !
 ! A88   A(46,48,51)           110.661                                          !
 ! A89   A(49,48,50)           110.3544                                         !
 ! A90   A(49,48,51)           110.5659                                         !
 ! A91   A(50,48,51)           111.428                                          !
 ! A92   A(48,50,54)           120.5523                                         !
 ! A93   A(48,50,63)           115.7373                                         !
 ! A94   A(54,50,63)           123.7093                                         !
 ! A95   A(48,51,52)           109.1912                                         !
 ! A96   A(48,51,53)           108.916                                          !
 ! A97   A(48,51,55)           113.0328                                         !
 ! A98   A(52,51,53)           106.6925                                         !
 ! A99   A(52,51,55)           109.6745                                         !
 ! A100  A(53,51,55)           109.1333                                         !
 ! A101  A(51,55,56)           112.0901                                         !
 ! A102  A(51,55,57)           109.9341                                         !
 ! A103  A(51,55,58)           111.8098                                         !
 ! A104  A(56,55,57)           106.2149                                         !
 ! A105  A(56,55,58)           109.1923                                         !
 ! A106  A(57,55,58)           107.3395                                         !
 ! A107  A(55,58,59)           113.8364                                         !
 ! A108  A(55,58,62)           122.936                                          !
 ! A109  A(59,58,62)           123.2261                                         !
 ! A110  A(58,59,60)           122.0547                                         !
 ! A111  A(58,59,61)           118.6358                                         !
 ! A112  A(60,59,61)           119.019                                          !
 ! A113  A(50,63,64)           120.1018                                         !
 ! A114  A(50,63,65)           122.1366                                         !
 ! A115  A(64,63,65)           114.1781                                         !
 ! A116  A(63,65,66)           107.5319                                         !
 ! A117  A(63,65,67)           107.0705                                         !
 ! A118  A(63,65,68)           111.4685                                         !
 ! A119  A(66,65,67)           110.111                                          !
 ! A120  A(66,65,68)           108.6087                                         !
 ! A121  A(67,65,68)           111.9561                                         !
 ! A122  A(65,67,71)           120.8393                                         !
 ! A123  A(65,67,84)           115.095                                          !
 ! A124  A(71,67,84)           124.0623                                         !
 ! A125  A(65,68,69)           109.0092                                         !
 ! A126  A(65,68,70)           108.462                                          !
 ! A127  A(65,68,72)           110.5155                                         !
 ! A128  A(69,68,70)           107.2229                                         !
 ! A129  A(69,68,72)           111.1201                                         !
 ! A130  A(70,68,72)           110.4115                                         !
 ! A131  A(68,72,73)           121.3234                                         !
 ! A132  A(68,72,75)           119.9412                                         !
 ! A133  A(73,72,75)           118.4071                                         !
 ! A134  A(72,73,74)           119.6192                                         !
 ! A135  A(72,73,77)           121.1726                                         !
 ! A136  A(74,73,77)           119.1607                                         !
 ! A137  A(72,75,76)           119.639                                          !
 ! A138  A(72,75,79)           121.1908                                         !
 ! A139  A(76,75,79)           119.1502                                         !
 ! A140  A(73,77,78)           121.0254                                         !
 ! A141  A(73,77,83)           119.0347                                         !
 ! A142  A(78,77,83)           119.8935                                         !
 ! A143  A(75,79,80)           120.4379                                         !
 ! A144  A(75,79,83)           119.1165                                         !
 ! A145  A(80,79,83)           120.4285                                         !
 ! A146  A(82,81,83)           107.5593                                         !
 ! A147  A(77,83,79)           120.9999                                         !
 ! A148  A(77,83,81)           119.1177                                         !
 ! A149  A(79,83,81)           119.8778                                         !
 ! A150  A(67,84,85)           122.7601                                         !
 ! A151  A(67,84,86)           124.0691                                         !
 ! A152  A(85,84,86)           112.8412                                         !
 ! A153  A(84,86,87)           108.8383                                         !
 ! A154  A(84,86,88)           105.2397                                         !
 ! A155  A(84,86,89)           111.9365                                         !
 ! A156  A(87,86,88)           109.6048                                         !
 ! A157  A(87,86,89)           109.1414                                         !
 ! A158  A(88,86,89)           111.9786                                         !
 ! A159  A(86,88,93)           120.4221                                         !
 ! A160  A(86,88,94)           115.2996                                         !
 ! A161  A(93,88,94)           124.2652                                         !
 ! A162  A(86,89,90)           111.0548                                         !
 ! A163  A(86,89,91)           109.3352                                         !
 ! A164  A(86,89,92)           110.3015                                         !
 ! A165  A(90,89,91)           108.6338                                         !
 ! A166  A(90,89,92)           108.4039                                         !
 ! A167  A(91,89,92)           109.0679                                         !
 ! A168  A(88,94,95)           122.8499                                         !
 ! A169  A(88,94,96)           124.5551                                         !
 ! A170  A(95,94,96)           112.5767                                         !
 ! A171  A(94,96,97)           109.4592                                         !
 ! A172  A(94,96,98)           106.1553                                         !
 ! A173  A(94,96,99)           109.1174                                         !
 ! A174  A(97,96,98)           110.9981                                         !
 ! A175  A(97,96,99)           110.4038                                         !
 ! A176  A(98,96,99)           110.5981                                         !
 ! A177  A(96,98,102)          115.671                                          !
 ! A178  A(96,98,118)          116.5402                                         !
 ! A179  A(102,98,118)         127.5877                                         !
 ! A180  A(96,99,100)          106.959                                          !
 ! A181  A(96,99,101)          106.8811                                         !
 ! A182  A(96,99,103)          118.0175                                         !
 ! A183  A(100,99,101)         106.8944                                         !
 ! A184  A(100,99,103)         110.275                                          !
 ! A185  A(101,99,103)         107.2705                                         !
 ! A186  A(99,103,104)         107.3813                                         !
 ! A187  A(99,103,105)         109.818                                          !
 ! A188  A(99,103,106)         117.7738                                         !
 ! A189  A(104,103,105)        105.8229                                         !
 ! A190  A(104,103,106)        108.8023                                         !
 ! A191  A(105,103,106)        106.6339                                         !
 ! A192  A(103,106,107)        109.5569                                         !
 ! A193  A(103,106,108)        109.6004                                         !
 ! A194  A(103,106,109)        111.7899                                         !
 ! A195  A(107,106,108)        109.0985                                         !
 ! A196  A(107,106,109)        108.5182                                         !
 ! A197  A(108,106,109)        108.2261                                         !
 ! A198  A(106,109,110)        116.0825                                         !
 ! A199  A(106,109,117)        127.544                                          !
 ! A200  A(110,109,117)        116.3602                                         !
 ! A201  A(112,111,113)        115.7636                                         !
 ! A202  A(112,111,117)        115.6286                                         !
 ! A203  A(113,111,117)        116.9483                                         !
 ! A204  A(115,114,116)        114.6849                                         !
 ! A205  A(115,114,117)        117.0001                                         !
 ! A206  A(116,114,117)        119.1324                                         !
 ! A207  A(109,117,111)        122.074                                          !
 ! A208  A(109,117,114)        117.9489                                         !
 ! A209  A(111,117,114)        119.8576                                         !
 ! D1    D(2,1,5,6)            107.6078                                         !
 ! D2    D(2,1,5,7)            -10.495                                          !
 ! D3    D(2,1,5,8)           -131.2039                                         !
 ! D4    D(3,1,5,6)            -16.2794                                         !
 ! D5    D(3,1,5,7)           -134.3822                                         !
 ! D6    D(3,1,5,8)            104.909                                          !
 ! D7    D(4,1,5,6)           -138.8438                                         !
 ! D8    D(4,1,5,7)            103.0534                                         !
 ! D9    D(4,1,5,8)            -17.6554                                         !
 ! D10   D(1,5,7,10)             3.547                                          !
 ! D11   D(1,5,7,17)          -175.977                                          !
 ! D12   D(6,5,7,10)          -114.0245                                         !
 ! D13   D(6,5,7,17)            66.4515                                         !
 ! D14   D(8,5,7,10)           119.0633                                         !
 ! D15   D(8,5,7,17)           -60.4607                                         !
 ! D16   D(1,5,8,9)            152.3511                                         !
 ! D17   D(1,5,8,11)           -86.2687                                         !
 ! D18   D(1,5,8,15)            32.9768                                         !
 ! D19   D(6,5,8,9)            -87.703                                          !
 ! D20   D(6,5,8,11)            33.6771                                         !
 ! D21   D(6,5,8,15)           152.9226                                         !
 ! D22   D(7,5,8,9)             38.5989                                         !
 ! D23   D(7,5,8,11)           159.9791                                         !
 ! D24   D(7,5,8,15)           -80.7754                                         !
 ! D25   D(5,7,17,18)            5.1882                                         !
 ! D26   D(5,7,17,19)          160.7633                                         !
 ! D27   D(10,7,17,18)        -174.2987                                         !
 ! D28   D(10,7,17,19)         -18.7236                                         !
 ! D29   D(5,8,11,12)          -61.3608                                         !
 ! D30   D(5,8,11,13)           59.7635                                         !
 ! D31   D(5,8,11,14)          178.5138                                         !
 ! D32   D(9,8,11,12)           59.0005                                         !
 ! D33   D(9,8,11,13)         -179.8752                                         !
 ! D34   D(9,8,11,14)          -61.1249                                         !
 ! D35   D(15,8,11,12)         179.8879                                         !
 ! D36   D(15,8,11,13)         -58.9878                                         !
 ! D37   D(15,8,11,14)          59.7625                                         !
 ! D38   D(5,8,15,16)           83.9648                                         !
 ! D39   D(9,8,15,16)          -34.0792                                         !
 ! D40   D(11,8,15,16)        -154.766                                          !
 ! D41   D(7,17,19,20)           2.7314                                         !
 ! D42   D(7,17,19,21)        -115.1705                                         !
 ! D43   D(7,17,19,22)         123.7471                                         !
 ! D44   D(18,17,19,20)        159.8733                                         !
 ! D45   D(18,17,19,21)         41.9715                                         !
 ! D46   D(18,17,19,22)        -79.1109                                         !
 ! D47   D(17,19,21,24)        -48.4714                                         !
 ! D48   D(17,19,21,36)        125.3196                                         !
 ! D49   D(20,19,21,24)       -163.0074                                         !
 ! D50   D(20,19,21,36)         10.7836                                         !
 ! D51   D(22,19,21,24)         73.1936                                         !
 ! D52   D(22,19,21,36)       -113.0154                                         !
 ! D53   D(17,19,22,23)         56.7485                                         !
 ! D54   D(17,19,22,25)        -61.4313                                         !
 ! D55   D(17,19,22,28)        174.0611                                         !
 ! D56   D(20,19,22,23)        175.9987                                         !
 ! D57   D(20,19,22,25)         57.8189                                         !
 ! D58   D(20,19,22,28)        -66.6887                                         !
 ! D59   D(21,19,22,23)        -59.2728                                         !
 ! D60   D(21,19,22,25)       -177.4526                                         !
 ! D61   D(21,19,22,28)         58.0399                                         !
 ! D62   D(19,21,36,37)         23.7417                                         !
 ! D63   D(19,21,36,38)        172.8458                                         !
 ! D64   D(24,21,36,37)       -162.8004                                         !
 ! D65   D(24,21,36,38)        -13.6963                                         !
 ! D66   D(19,22,25,26)         50.3466                                         !
 ! D67   D(19,22,25,27)        -65.024                                          !
 ! D68   D(19,22,25,32)        171.9645                                         !
 ! D69   D(23,22,25,26)        -66.5907                                         !
 ! D70   D(23,22,25,27)        178.0387                                         !
 ! D71   D(23,22,25,32)         55.0272                                         !
 ! D72   D(28,22,25,26)        173.0562                                         !
 ! D73   D(28,22,25,27)         57.6856                                         !
 ! D74   D(28,22,25,32)        -65.3258                                         !
 ! D75   D(19,22,28,29)         60.8922                                         !
 ! D76   D(19,22,28,30)        -60.0849                                         !
 ! D77   D(19,22,28,31)       -179.5424                                         !
 ! D78   D(23,22,28,29)        177.2093                                         !
 ! D79   D(23,22,28,30)         56.2322                                         !
 ! D80   D(23,22,28,31)        -63.2253                                         !
 ! D81   D(25,22,28,29)        -62.1909                                         !
 ! D82   D(25,22,28,30)        176.832                                          !
 ! D83   D(25,22,28,31)         57.3745                                         !
 ! D84   D(22,25,32,33)       -175.6681                                         !
 ! D85   D(22,25,32,34)         64.6029                                         !
 ! D86   D(22,25,32,35)        -56.0586                                         !
 ! D87   D(26,25,32,33)        -54.1498                                         !
 ! D88   D(26,25,32,34)       -173.8788                                         !
 ! D89   D(26,25,32,35)         65.4596                                         !
 ! D90   D(27,25,32,33)         61.8665                                         !
 ! D91   D(27,25,32,34)        -57.8625                                         !
 ! D92   D(27,25,32,35)       -178.5241                                         !
 ! D93   D(21,36,38,39)        -48.212                                          !
 ! D94   D(21,36,38,40)       -164.4667                                         !
 ! D95   D(21,36,38,41)         72.8113                                         !
 ! D96   D(37,36,38,39)        103.264                                          !
 ! D97   D(37,36,38,40)        -12.9908                                         !
 ! D98   D(37,36,38,41)       -135.7128                                         !
 ! D99   D(36,38,40,45)         11.0272                                         !
 ! D100  D(36,38,40,46)       -169.2196                                         !
 ! D101  D(39,38,40,45)       -104.9513                                         !
 ! D102  D(39,38,40,46)         74.8019                                         !
 ! D103  D(41,38,40,45)        133.0476                                         !
 ! D104  D(41,38,40,46)        -47.1992                                         !
 ! D105  D(36,38,41,42)       -167.2139                                         !
 ! D106  D(36,38,41,43)         72.7512                                         !
 ! D107  D(36,38,41,44)        -49.6177                                         !
 ! D108  D(39,38,41,42)        -46.5536                                         !
 ! D109  D(39,38,41,43)       -166.5885                                         !
 ! D110  D(39,38,41,44)         71.0426                                         !
 ! D111  D(40,38,41,42)         75.3171                                         !
 ! D112  D(40,38,41,43)        -44.7178                                         !
 ! D113  D(40,38,41,44)       -167.0867                                         !
 ! D114  D(38,40,46,47)         17.4881                                         !
 ! D115  D(38,40,46,48)        158.0104                                         !
 ! D116  D(45,40,46,47)       -162.7704                                         !
 ! D117  D(45,40,46,48)        -22.2482                                         !
 ! D118  D(40,46,48,49)         30.7887                                         !
 ! D119  D(40,46,48,50)        -87.3244                                         !
 ! D120  D(40,46,48,51)        151.4005                                         !
 ! D121  D(47,46,48,49)        172.5931                                         !
 ! D122  D(47,46,48,50)         54.48                                           !
 ! D123  D(47,46,48,51)        -66.7952                                         !
 ! D124  D(46,48,50,54)        -26.1395                                         !
 ! D125  D(46,48,50,63)        154.2212                                         !
 ! D126  D(49,48,50,54)       -142.1181                                         !
 ! D127  D(49,48,50,63)         38.2426                                         !
 ! D128  D(51,48,50,54)         94.6451                                         !
 ! D129  D(51,48,50,63)        -84.9942                                         !
 ! D130  D(46,48,51,52)         62.2786                                         !
 ! D131  D(46,48,51,53)        -53.8748                                         !
 ! D132  D(46,48,51,55)       -175.3538                                         !
 ! D133  D(49,48,51,52)       -179.1682                                         !
 ! D134  D(49,48,51,53)         64.6783                                         !
 ! D135  D(49,48,51,55)        -56.8007                                         !
 ! D136  D(50,48,51,52)        -56.0522                                         !
 ! D137  D(50,48,51,53)       -172.2056                                         !
 ! D138  D(50,48,51,55)         66.3154                                         !
 ! D139  D(48,50,63,64)         13.5393                                         !
 ! D140  D(48,50,63,65)        170.9467                                         !
 ! D141  D(54,50,63,64)       -166.0873                                         !
 ! D142  D(54,50,63,65)         -8.6799                                         !
 ! D143  D(48,51,55,56)        -62.6687                                         !
 ! D144  D(48,51,55,57)         55.2204                                         !
 ! D145  D(48,51,55,58)        174.3376                                         !
 ! D146  D(52,51,55,56)         59.4284                                         !
 ! D147  D(52,51,55,57)        177.3175                                         !
 ! D148  D(52,51,55,58)        -63.5653                                         !
 ! D149  D(53,51,55,56)        175.975                                          !
 ! D150  D(53,51,55,57)        -66.1359                                         !
 ! D151  D(53,51,55,58)         52.9813                                         !
 ! D152  D(51,55,58,59)        159.303                                          !
 ! D153  D(51,55,58,62)        -21.1271                                         !
 ! D154  D(56,55,58,59)         34.6789                                         !
 ! D155  D(56,55,58,62)       -145.7511                                         !
 ! D156  D(57,55,58,59)        -80.0566                                         !
 ! D157  D(57,55,58,62)         99.5133                                         !
 ! D158  D(55,58,59,60)          1.612                                          !
 ! D159  D(55,58,59,61)        175.3577                                         !
 ! D160  D(62,58,59,60)       -177.9566                                         !
 ! D161  D(62,58,59,61)         -4.2108                                         !
 ! D162  D(50,63,65,66)        -15.9647                                         !
 ! D163  D(50,63,65,67)       -134.273                                          !
 ! D164  D(50,63,65,68)        102.9716                                         !
 ! D165  D(64,63,65,66)        142.6692                                         !
 ! D166  D(64,63,65,67)         24.3609                                         !
 ! D167  D(64,63,65,68)        -98.3945                                         !
 ! D168  D(63,65,67,71)         -8.0738                                         !
 ! D169  D(63,65,67,84)        172.5743                                         !
 ! D170  D(66,65,67,71)       -124.6907                                         !
 ! D171  D(66,65,67,84)         55.9574                                         !
 ! D172  D(68,65,67,71)        114.3779                                         !
 ! D173  D(68,65,67,84)        -64.974                                          !
 ! D174  D(63,65,68,69)       -173.9801                                         !
 ! D175  D(63,65,68,70)         69.5853                                         !
 ! D176  D(63,65,68,72)        -51.5801                                         !
 ! D177  D(66,65,68,69)        -55.6878                                         !
 ! D178  D(66,65,68,70)       -172.1224                                         !
 ! D179  D(66,65,68,72)         66.7122                                         !
 ! D180  D(67,65,68,69)         66.1096                                         !
 ! D181  D(67,65,68,70)        -50.325                                          !
 ! D182  D(67,65,68,72)       -171.4904                                         !
 ! D183  D(65,67,84,85)          3.7914                                         !
 ! D184  D(65,67,84,86)        176.7233                                         !
 ! D185  D(71,67,84,85)       -175.5369                                         !
 ! D186  D(71,67,84,86)         -2.605                                          !
 ! D187  D(65,68,72,73)        -86.5388                                         !
 ! D188  D(65,68,72,75)         86.7769                                         !
 ! D189  D(69,68,72,73)         34.6165                                         !
 ! D190  D(69,68,72,75)       -152.0678                                         !
 ! D191  D(70,68,72,73)        153.46                                           !
 ! D192  D(70,68,72,75)        -33.2243                                         !
 ! D193  D(68,72,73,74)         -6.287                                          !
 ! D194  D(68,72,73,77)        171.1851                                         !
 ! D195  D(75,72,73,74)       -179.7023                                         !
 ! D196  D(75,72,73,77)         -2.2302                                         !
 ! D197  D(68,72,75,76)          6.7348                                         !
 ! D198  D(68,72,75,79)       -171.6224                                         !
 ! D199  D(73,72,75,76)       -179.756                                          !
 ! D200  D(73,72,75,79)          1.8867                                         !
 ! D201  D(72,73,77,78)       -177.3276                                         !
 ! D202  D(72,73,77,83)          0.1908                                         !
 ! D203  D(74,73,77,78)          0.1559                                         !
 ! D204  D(74,73,77,83)        177.6743                                         !
 ! D205  D(72,75,79,80)        178.9914                                         !
 ! D206  D(72,75,79,83)          0.4882                                         !
 ! D207  D(76,75,79,80)          0.6263                                         !
 ! D208  D(76,75,79,83)       -177.8769                                         !
 ! D209  D(73,77,83,79)          2.2742                                         !
 ! D210  D(73,77,83,81)       -176.9461                                         !
 ! D211  D(78,77,83,79)        179.8213                                         !
 ! D212  D(78,77,83,81)          0.6009                                         !
 ! D213  D(75,79,83,77)         -2.6101                                         !
 ! D214  D(75,79,83,81)        176.6043                                         !
 ! D215  D(80,79,83,77)        178.8865                                         !
 ! D216  D(80,79,83,81)         -1.899                                          !
 ! D217  D(82,81,83,77)        133.8384                                         !
 ! D218  D(82,81,83,79)        -45.3909                                         !
 ! D219  D(67,84,86,87)        -46.3156                                         !
 ! D220  D(67,84,86,88)       -163.7279                                         !
 ! D221  D(67,84,86,89)         74.4085                                         !
 ! D222  D(85,84,86,87)        127.2375                                         !
 ! D223  D(85,84,86,88)          9.8252                                         !
 ! D224  D(85,84,86,89)       -112.0384                                         !
 ! D225  D(84,86,88,93)         -6.6794                                         !
 ! D226  D(84,86,88,94)        174.5792                                         !
 ! D227  D(87,86,88,93)       -123.5707                                         !
 ! D228  D(87,86,88,94)         57.6879                                         !
 ! D229  D(89,86,88,93)        115.1568                                         !
 ! D230  D(89,86,88,94)        -63.5846                                         !
 ! D231  D(84,86,89,90)       -178.64                                           !
 ! D232  D(84,86,89,91)        -58.7776                                         !
 ! D233  D(84,86,89,92)         61.1533                                         !
 ! D234  D(87,86,89,90)        -58.092                                          !
 ! D235  D(87,86,89,91)         61.7704                                         !
 ! D236  D(87,86,89,92)       -178.2987                                         !
 ! D237  D(88,86,89,90)         63.4473                                         !
 ! D238  D(88,86,89,91)       -176.6903                                         !
 ! D239  D(88,86,89,92)        -56.7593                                         !
 ! D240  D(86,88,94,95)         -2.9103                                         !
 ! D241  D(86,88,94,96)        175.4171                                         !
 ! D242  D(93,88,94,95)        178.4029                                         !
 ! D243  D(93,88,94,96)         -3.2697                                         !
 ! D244  D(88,94,96,97)        -38.8263                                         !
 ! D245  D(88,94,96,98)       -158.6954                                         !
 ! D246  D(88,94,96,99)         82.0913                                         !
 ! D247  D(95,94,96,97)        139.652                                          !
 ! D248  D(95,94,96,98)         19.7829                                         !
 ! D249  D(95,94,96,99)        -99.4304                                         !
 ! D250  D(94,96,98,102)       148.9926                                         !
 ! D251  D(94,96,98,118)       -35.7639                                         !
 ! D252  D(97,96,98,102)        30.1314                                         !
 ! D253  D(97,96,98,118)      -154.6252                                         !
 ! D254  D(99,96,98,102)       -92.7699                                         !
 ! D255  D(99,96,98,118)        82.4736                                         !
 ! D256  D(94,96,99,100)        61.7272                                         !
 ! D257  D(94,96,99,101)       -52.4803                                         !
 ! D258  D(94,96,99,103)      -173.3384                                         !
 ! D259  D(97,96,99,100)      -177.9337                                         !
 ! D260  D(97,96,99,101)        67.8588                                         !
 ! D261  D(97,96,99,103)       -52.9993                                         !
 ! D262  D(98,96,99,100)       -54.6876                                         !
 ! D263  D(98,96,99,101)      -168.8951                                         !
 ! D264  D(98,96,99,103)        70.2468                                         !
 ! D265  D(96,99,103,104)      172.3074                                         !
 ! D266  D(96,99,103,105)       57.6934                                         !
 ! D267  D(96,99,103,106)      -64.5617                                         !
 ! D268  D(100,99,103,104)     -64.4078                                         !
 ! D269  D(100,99,103,105)    -179.0218                                         !
 ! D270  D(100,99,103,106)      58.7231                                         !
 ! D271  D(101,99,103,104)      51.6503                                         !
 ! D272  D(101,99,103,105)     -62.9637                                         !
 ! D273  D(101,99,103,106)     174.7812                                         !
 ! D274  D(99,103,106,107)    -169.4544                                         !
 ! D275  D(99,103,106,108)      70.8706                                         !
 ! D276  D(99,103,106,109)     -49.1232                                         !
 ! D277  D(104,103,106,107)    -47.0447                                         !
 ! D278  D(104,103,106,108)   -166.7197                                         !
 ! D279  D(104,103,106,109)     73.2865                                         !
 ! D280  D(105,103,106,107)     66.6795                                         !
 ! D281  D(105,103,106,108)    -52.9955                                         !
 ! D282  D(105,103,106,109)   -172.9893                                         !
 ! D283  D(103,106,109,110)    -43.0295                                         !
 ! D284  D(103,106,109,117)    135.5831                                         !
 ! D285  D(107,106,109,110)     77.9069                                         !
 ! D286  D(107,106,109,117)   -103.4805                                         !
 ! D287  D(108,106,109,110)   -163.8261                                         !
 ! D288  D(108,106,109,117)     14.7865                                         !
 ! D289  D(106,109,117,111)     -7.4339                                         !
 ! D290  D(106,109,117,114)    168.5833                                         !
 ! D291  D(110,109,117,111)    171.1754                                         !
 ! D292  D(110,109,117,114)    -12.8074                                         !
 ! D293  D(112,111,117,109)    178.3416                                         !
 ! D294  D(112,111,117,114)      2.3984                                         !
 ! D295  D(113,111,117,109)    -39.9652                                         !
 ! D296  D(113,111,117,114)    144.0917                                         !
 ! D297  D(115,114,117,109)    147.7132                                         !
 ! D298  D(115,114,117,111)    -36.178                                          !
 ! D299  D(116,114,117,109)      2.5712                                         !
 ! D300  D(116,114,117,111)    178.6799                                         !
 --------------------------------------------------------------------------------
 Symmetry turned off by external request.
 Stoichiometry    C36H60N11O11(1+)
 Framework group  C1[X(C36H60N11O11)]
 Deg. of freedom   348
 Full point group                 C1      NOp   1
                          Input orientation:                          
 ---------------------------------------------------------------------
 Center     Atomic      Atomic             Coordinates (Angstroms)
 Number     Number       Type             X           Y           Z
 ---------------------------------------------------------------------
      1          7           0       -4.789037    1.237463   -6.355861
      2          1           0       -5.278789    1.407987   -5.443438
      3          1           0       -5.242107    1.714861   -7.135832
      4          1           0       -3.786782    1.526523   -6.252886
      5          6           0       -4.720797   -0.255071   -6.471187
      6          1           0       -5.421272   -0.599303   -7.235455
      7          6           0       -5.157868   -0.749042   -5.072058
      8          6           0       -3.236797   -0.609465   -6.841197
      9          1           0       -3.018477   -1.614712   -6.461993
     10          8           0       -5.513532    0.083518   -4.234410
     11          6           0       -3.000881   -0.556394   -8.343798
     12          1           0       -3.630653   -1.282346   -8.868199
     13          1           0       -3.212026    0.443001   -8.742127
     14          1           0       -1.953324   -0.782703   -8.554717
     15          8           0       -2.396285    0.345708   -6.218064
     16          1           0       -2.225213    0.063802   -5.281480
     17          7           0       -5.103003   -2.071687   -4.879174
     18          1           0       -4.715078   -2.674325   -5.598962
     19          6           0       -5.075770   -2.687072   -3.545968
     20          1           0       -5.158180   -1.874847   -2.819271
     21          6           0       -3.693128   -3.356444   -3.493675
     22          6           0       -6.215589   -3.701863   -3.332814
     23          1           0       -6.127500   -4.452912   -4.130597
     24          8           0       -3.321398   -4.059061   -4.429082
     25          6           0       -7.579884   -3.002695   -3.455788
     26          1           0       -7.595369   -2.421138   -4.385862
     27          1           0       -7.682977   -2.276550   -2.637465
     28          6           0       -6.031428   -4.404885   -1.981316
     29          1           0       -6.062386   -3.683981   -1.154367
     30          1           0       -5.080126   -4.944796   -1.927938
     31          1           0       -6.825395   -5.135903   -1.812635
     32          6           0       -8.770639   -3.964818   -3.452015
     33          1           0       -9.705657   -3.420579   -3.618601
     34          1           0       -8.867247   -4.495644   -2.499950
     35          1           0       -8.674604   -4.715166   -4.245772
     36          7           0       -2.911372   -3.003822   -2.437216
     37          1           0       -3.346006   -2.648333   -1.581083
     38          6           0       -1.628747   -3.653747   -2.142737
     39          1           0       -1.768576   -4.741973   -2.178784
     40          6           0       -1.315292   -3.231301   -0.688992
     41          6           0       -0.533533   -3.248246   -3.139053
     42          1           0        0.336012   -3.905342   -3.042407
     43          1           0       -0.198993   -2.221503   -2.970847
     44          1           0       -0.910446   -3.363833   -4.157076
     45          8           0       -2.181064   -2.676763   -0.009600
     46          7           0       -0.069078   -3.514722   -0.246879
     47          1           0        0.618906   -3.716343   -0.962967
     48          6           0        0.500556   -2.774185    0.876951
     49          1           0       -0.328954   -2.487615    1.527308
     50          6           0        1.172339   -1.521082    0.280986
     51          6           0        1.511614   -3.643104    1.642401
     52          1           0        2.340991   -3.905181    0.973704
     53          1           0        1.028710   -4.581694    1.926449
     54          8           0        1.580485   -1.522585   -0.878581
     55          6           0        2.057562   -2.961051    2.896488
     56          1           0        2.613583   -2.049697    2.659941
     57          1           0        1.226006   -2.653241    3.548375
     58          6           0        2.950151   -3.897258    3.708657
     59          7           0        3.799905   -3.250377    4.556995
     60          1           0        3.806042   -2.244690    4.645432
     61          1           0        4.373155   -3.800636    5.180675
     62          8           0        2.899341   -5.114457    3.611041
     63          7           0        1.278885   -0.458646    1.113843
     64          1           0        1.121763   -0.574724    2.109114
     65          6           0        2.050721    0.715453    0.768730
     66          1           0        2.702075    0.447321   -0.068580
     67          6           0        2.896867    1.078655    2.002324
     68          6           0        1.131008    1.892638    0.326024
     69          1           0        1.755769    2.720148   -0.027194
     70          1           0        0.581361    2.252510    1.203301
     71          8           0        2.725838    0.498959    3.081622
     72          6           0        0.172265    1.439843   -0.745847
     73          6           0        0.530861    1.459481   -2.097748
     74          1           0        1.477648    1.901650   -2.395871
     75          6           0       -1.049755    0.858522   -0.389633
     76          1           0       -1.349686    0.835999    0.653217
     77          6           0       -0.281358    0.874552   -3.068435
     78          1           0        0.019742    0.853316   -4.111500
     79          6           0       -1.876520    0.276136   -1.345413
     80          1           0       -2.813336   -0.185294   -1.053607
     81          8           0       -2.253480   -0.376637   -3.638967
     82          1           0       -2.518168   -1.246981   -3.271768
     83          6           0       -1.470102    0.265966   -2.677179
     84          7           0        3.793615    2.055441    1.808845
     85          1           0        3.872881    2.564756    0.930423
     86          6           0        4.643743    2.598150    2.853897
     87          1           0        4.031397    2.793727    3.742695
     88          6           0        5.178552    3.930891    2.290287
     89          6           0        5.779998    1.634747    3.227236
     90          1           0        6.396646    2.047090    4.031522
     91          1           0        5.354255    0.686677    3.564745
     92          1           0        6.421526    1.450016    2.360044
     93          8           0        4.950526    4.251475    1.117556
     94          7           0        5.904131    4.663008    3.144253
     95          1           0        6.058562    4.390119    4.111628
     96          6           0        6.584362    5.905096    2.797636
     97          1           0        7.011953    5.818602    1.796209
     98          6           0        7.691323    6.099030    3.857264
     99          6           0        5.569549    7.070290    2.851641
    100          1           0        5.205141    7.129846    3.885338
    101          1           0        4.716519    6.778221    2.229745
    102          8           0        8.740210    6.704164    3.456274
    103          6           0        6.033092    8.454626    2.369571
    104          1           0        5.149472    9.108860    2.351034
    105          1           0        6.379203    8.389977    1.330752
    106          6           0        7.149288    9.152223    3.162501
    107          1           0        7.243759   10.192003    2.826290
    108          1           0        8.090827    8.637901    2.995459
    109          7           0        6.874753    9.151606    4.607791
    110          1           0        5.925247    9.367247    4.879978
    111          7           0        8.951245    8.410453    5.370666
    112          1           0        9.524118    8.258826    6.190879
    113          1           0        9.057234    7.674193    4.577388
    114          7           0        7.341941    9.159069    6.877811
    115          1           0        7.686373    8.551750    7.608862
    116          1           0        6.416340    9.530399    7.038977
    117          6           0        7.730137    8.873770    5.601465
    118          8           0        7.421870    5.731936    5.018151
 ---------------------------------------------------------------------
 Rotational constants (GHZ):           0.0684666           0.0137226           0.0120990
 Standard basis: 6-31G(d) (6D, 7F)
   990 basis functions,  1864 primitive gaussians,   990 cartesian basis functions
   220 alpha electrons      220 beta electrons
       nuclear repulsion energy      8462.1290306516 Hartrees.
 NAtoms=  118 NActive=  118 NUniq=  118 SFac= 1.00D+00 NAtFMM=   60 NAOKFM=T Big=T
 Integral buffers will be    131072 words long.
 Raffenetti 2 integral format.
 Two-electron integral symmetry is turned off.
 Nuclear repulsion after empirical dispersion term =     8461.8653043351 Hartrees.
 One-electron integrals computed using PRISM.
 NBasis=   990 RedAO= T EigKep=  4.13D-04  NBF=   990
 NBsUse=   990 1.00D-06 EigRej= -1.00D+00 NBFU=   990
 Initial guess from the checkpoint file:  "conf-156.chk"
 B after Tr=     0.000000    0.000000    0.000000
         Rot=    1.000000    0.000000    0.000000    0.000000 Ang=   0.00 deg.
 Requested convergence on RMS density matrix=1.00D-08 within 128 cycles.
 Requested convergence on MAX density matrix=1.00D-06.
 Requested convergence on             energy=1.00D-06.
 No special actions if energy rises.
 SCF Done:  E(RB3LYP) =  -2837.90941302     A.U. after    1 cycles
            NFock=  1  Conv=0.70D-08     -V/T= 2.0093
 Hyperfine terms turned off by default for NAtoms > 100.

 **********************************************************************

            Population analysis using the SCF Density.

 **********************************************************************

 Alpha  occ. eigenvalues --  -19.27197 -19.27061 -19.26070 -19.22772 -19.20831
 Alpha  occ. eigenvalues --  -19.18282 -19.18195 -19.16568 -19.15407 -19.13230
 Alpha  occ. eigenvalues --  -19.12610 -14.57537 -14.49246 -14.46591 -14.45291
 Alpha  occ. eigenvalues --  -14.45166 -14.43714 -14.42367 -14.41714 -14.41158
 Alpha  occ. eigenvalues --  -14.39972 -14.39945 -10.42947 -10.40355 -10.39595
 Alpha  occ. eigenvalues --  -10.39195 -10.38125 -10.37550 -10.35225 -10.35179
 Alpha  occ. eigenvalues --  -10.34001 -10.33539 -10.33304 -10.32743 -10.32428
 Alpha  occ. eigenvalues --  -10.30685 -10.30090 -10.30001 -10.29644 -10.28927
 Alpha  occ. eigenvalues --  -10.28643 -10.28162 -10.26432 -10.26432 -10.26360
 Alpha  occ. eigenvalues --  -10.26349 -10.26300 -10.26262 -10.26192 -10.26071
 Alpha  occ. eigenvalues --  -10.26046 -10.25821 -10.25071 -10.24765 -10.24759
 Alpha  occ. eigenvalues --  -10.24755 -10.23532 -10.23343  -1.18694  -1.15716
 Alpha  occ. eigenvalues --   -1.14887  -1.14031  -1.12675  -1.11376  -1.10555
 Alpha  occ. eigenvalues --   -1.09693  -1.09111  -1.08289  -1.07281  -1.06365
 Alpha  occ. eigenvalues --   -1.05925  -1.02827  -1.00689  -0.99323  -0.98936
 Alpha  occ. eigenvalues --   -0.98531  -0.98142  -0.96348  -0.95992  -0.94652
 Alpha  occ. eigenvalues --   -0.92799  -0.92270  -0.90114  -0.87653  -0.86233
 Alpha  occ. eigenvalues --   -0.85287  -0.85025  -0.84575  -0.82944  -0.82196
 Alpha  occ. eigenvalues --   -0.82124  -0.80152  -0.79300  -0.78675  -0.77902
 Alpha  occ. eigenvalues --   -0.75237  -0.73931  -0.73383  -0.73266  -0.73047
 Alpha  occ. eigenvalues --   -0.72416  -0.71649  -0.71032  -0.70730  -0.70365
 Alpha  occ. eigenvalues --   -0.69479  -0.68828  -0.68021  -0.66881  -0.66746
 Alpha  occ. eigenvalues --   -0.66572  -0.65789  -0.65530  -0.65257  -0.64986
 Alpha  occ. eigenvalues --   -0.64325  -0.63908  -0.62795  -0.62438  -0.62307
 Alpha  occ. eigenvalues --   -0.61901  -0.61697  -0.61605  -0.60188  -0.59163
 Alpha  occ. eigenvalues --   -0.58733  -0.58153  -0.58056  -0.57813  -0.57458
 Alpha  occ. eigenvalues --   -0.56879  -0.56262  -0.56018  -0.55671  -0.55078
 Alpha  occ. eigenvalues --   -0.54985  -0.54714  -0.53967  -0.53886  -0.53805
 Alpha  occ. eigenvalues --   -0.53435  -0.53079  -0.52744  -0.52499  -0.52160
 Alpha  occ. eigenvalues --   -0.52062  -0.52008  -0.51643  -0.51124  -0.50938
 Alpha  occ. eigenvalues --   -0.50918  -0.50704  -0.50096  -0.49938  -0.49768
 Alpha  occ. eigenvalues --   -0.49692  -0.49437  -0.49273  -0.48900  -0.48644
 Alpha  occ. eigenvalues --   -0.48634  -0.48462  -0.47817  -0.47591  -0.47393
 Alpha  occ. eigenvalues --   -0.47239  -0.47111  -0.46976  -0.46644  -0.46260
 Alpha  occ. eigenvalues --   -0.46093  -0.45849  -0.45436  -0.45278  -0.44989
 Alpha  occ. eigenvalues --   -0.44851  -0.44422  -0.44236  -0.43780  -0.43623
 Alpha  occ. eigenvalues --   -0.43132  -0.43074  -0.42852  -0.42361  -0.42307
 Alpha  occ. eigenvalues --   -0.42190  -0.41948  -0.41710  -0.41614  -0.41399
 Alpha  occ. eigenvalues --   -0.41142  -0.41075  -0.40903  -0.40790  -0.40200
 Alpha  occ. eigenvalues --   -0.40076  -0.39860  -0.39783  -0.39127  -0.39037
 Alpha  occ. eigenvalues --   -0.37769  -0.37058  -0.35686  -0.35684  -0.35064
 Alpha  occ. eigenvalues --   -0.34335  -0.33351  -0.32988  -0.32585  -0.32104
 Alpha  occ. eigenvalues --   -0.31692  -0.31507  -0.30959  -0.30747  -0.30345
 Alpha  occ. eigenvalues --   -0.30073  -0.29253  -0.28628  -0.27428  -0.26761
 Alpha virt. eigenvalues --   -0.12310  -0.09094  -0.08434  -0.07571  -0.07054
 Alpha virt. eigenvalues --   -0.06598  -0.05410  -0.04410  -0.04203  -0.03876
 Alpha virt. eigenvalues --   -0.03550  -0.02463  -0.02131  -0.01463  -0.01295
 Alpha virt. eigenvalues --   -0.00795   0.00514   0.00686   0.00815   0.01241
 Alpha virt. eigenvalues --    0.01723   0.01971   0.02157   0.02266   0.02406
 Alpha virt. eigenvalues --    0.03211   0.03294   0.03549   0.04035   0.04105
 Alpha virt. eigenvalues --    0.04442   0.04911   0.05035   0.05483   0.05531
 Alpha virt. eigenvalues --    0.05850   0.05980   0.06656   0.06772   0.06794
 Alpha virt. eigenvalues --    0.06942   0.07366   0.07393   0.07838   0.08130
 Alpha virt. eigenvalues --    0.08345   0.08501   0.08657   0.09003   0.09172
 Alpha virt. eigenvalues --    0.09411   0.09702   0.09878   0.09917   0.10096
 Alpha virt. eigenvalues --    0.10213   0.10398   0.10430   0.10662   0.10748
 Alpha virt. eigenvalues --    0.10904   0.11234   0.11512   0.11852   0.11986
 Alpha virt. eigenvalues --    0.12368   0.12497   0.12588   0.12882   0.13300
 Alpha virt. eigenvalues --    0.13434   0.13596   0.13733   0.13961   0.14150
 Alpha virt. eigenvalues --    0.14565   0.14712   0.14875   0.14900   0.15028
 Alpha virt. eigenvalues --    0.15250   0.15706   0.16184   0.16442   0.16724
 Alpha virt. eigenvalues --    0.17105   0.17163   0.17460   0.17840   0.17922
 Alpha virt. eigenvalues --    0.18042   0.18302   0.18778   0.19018   0.19498
 Alpha virt. eigenvalues --    0.19724   0.19991   0.20279   0.20584   0.21227
 Alpha virt. eigenvalues --    0.21866   0.22278   0.23264   0.23692   0.24104
 Alpha virt. eigenvalues --    0.24568   0.25123   0.25389   0.26172   0.26712
 Alpha virt. eigenvalues --    0.27304   0.28047   0.28424   0.28539   0.28980
 Alpha virt. eigenvalues --    0.30167   0.30275   0.31163   0.31279   0.32399
 Alpha virt. eigenvalues --    0.32672   0.33238   0.34448   0.34741   0.35385
 Alpha virt. eigenvalues --    0.36447   0.37322   0.38279   0.38906   0.39638
 Alpha virt. eigenvalues --    0.40054   0.40342   0.40794   0.42021   0.42233
 Alpha virt. eigenvalues --    0.42833   0.43435   0.43577   0.43849   0.44049
 Alpha virt. eigenvalues --    0.44378   0.44643   0.44841   0.44962   0.45362
 Alpha virt. eigenvalues --    0.45659   0.45718   0.46366   0.46500   0.47119
 Alpha virt. eigenvalues --    0.47280   0.47337   0.47688   0.47755   0.48305
 Alpha virt. eigenvalues --    0.48905   0.49119   0.49303   0.49579   0.49706
 Alpha virt. eigenvalues --    0.49938   0.50097   0.50119   0.50947   0.51086
 Alpha virt. eigenvalues --    0.51544   0.51797   0.52137   0.52295   0.52783
 Alpha virt. eigenvalues --    0.53040   0.53574   0.53781   0.53933   0.54071
 Alpha virt. eigenvalues --    0.54199   0.54310   0.54581   0.54654   0.55215
 Alpha virt. eigenvalues --    0.55364   0.55597   0.56007   0.56285   0.56916
 Alpha virt. eigenvalues --    0.57055   0.57410   0.57910   0.58101   0.58419
 Alpha virt. eigenvalues --    0.58477   0.58720   0.58867   0.59433   0.59652
 Alpha virt. eigenvalues --    0.59906   0.60576   0.60619   0.61291   0.61452
 Alpha virt. eigenvalues --    0.61726   0.61740   0.62066   0.62253   0.62604
 Alpha virt. eigenvalues --    0.62913   0.63132   0.63610   0.63771   0.64409
 Alpha virt. eigenvalues --    0.64690   0.64932   0.65438   0.65825   0.66263
 Alpha virt. eigenvalues --    0.66705   0.67136   0.67184   0.67333   0.67821
 Alpha virt. eigenvalues --    0.67982   0.68771   0.69108   0.69376   0.69720
 Alpha virt. eigenvalues --    0.70233   0.70380   0.70693   0.70913   0.71251
 Alpha virt. eigenvalues --    0.71456   0.72305   0.72660   0.72954   0.73124
 Alpha virt. eigenvalues --    0.73587   0.73928   0.74093   0.74307   0.74462
 Alpha virt. eigenvalues --    0.74754   0.74793   0.75504   0.75621   0.75911
 Alpha virt. eigenvalues --    0.76197   0.76469   0.76626   0.76940   0.77248
 Alpha virt. eigenvalues --    0.77632   0.77937   0.78467   0.78565   0.78886
[...]
 Alpha virt. eigenvalues --    0.80039   0.80232   0.80455   0.80521   0.80667
 Alpha virt. eigenvalues --    0.80933   0.81049   0.81254   0.81405   0.81716
 Alpha virt. eigenvalues --    0.81942   0.82223   0.82593   0.82813   0.82927
 Alpha virt. eigenvalues --    0.83055   0.83229   0.83571   0.83635   0.83823
 Alpha virt. eigenvalues --    0.84182   0.84254   0.84263   0.84563   0.84871
 Alpha virt. eigenvalues --    0.85362   0.85458   0.85572   0.85826   0.86074
 Alpha virt. eigenvalues --    0.86491   0.86679   0.87180   0.87375   0.87479
 Alpha virt. eigenvalues --    0.87986   0.88208   0.88703   0.88840   0.89185
 Alpha virt. eigenvalues --    0.89231   0.89395   0.89605   0.89825   0.89953
 Alpha virt. eigenvalues --    0.90437   0.90450   0.90929   0.91545   0.91728
 Alpha virt. eigenvalues --    0.91970   0.92686   0.92934   0.93312   0.93738
 Alpha virt. eigenvalues --    0.93793   0.94452   0.95128   0.95593   0.95903
 Alpha virt. eigenvalues --    0.96005   0.96342   0.96666   0.96797   0.97085
 Alpha virt. eigenvalues --    0.97393   0.97656   0.98046   0.98771   0.98900
 Alpha virt. eigenvalues --    0.99429   0.99886   1.00325   1.01345   1.01655
 Alpha virt. eigenvalues --    1.01775   1.02563   1.02875   1.03103   1.03660
 Alpha virt. eigenvalues --    1.04188   1.04778   1.05499   1.05684   1.06311
 Alpha virt. eigenvalues --    1.06339   1.07394   1.07809   1.08648   1.09189
 Alpha virt. eigenvalues --    1.09577   1.10193   1.10632   1.10781   1.11029
 Alpha virt. eigenvalues --    1.11821   1.12013   1.12887   1.13953   1.14117
 Alpha virt. eigenvalues --    1.14565   1.15433   1.16147   1.16496   1.17383
 Alpha virt. eigenvalues --    1.17704   1.17967   1.18702   1.19005   1.19260
 Alpha virt. eigenvalues --    1.19919   1.20442   1.20912   1.21469   1.22210
 Alpha virt. eigenvalues --    1.22800   1.23243   1.23797   1.24448   1.25081
 Alpha virt. eigenvalues --    1.25789   1.26379   1.26907   1.27160   1.28119
 Alpha virt. eigenvalues --    1.28299   1.28665   1.28730   1.29303   1.30577
 Alpha virt. eigenvalues --    1.31066   1.31775   1.32318   1.32873   1.33759
 Alpha virt. eigenvalues --    1.34047   1.35325   1.35388   1.36143   1.36271
 Alpha virt. eigenvalues --    1.36405   1.37639   1.38063   1.38906   1.39194
 Alpha virt. eigenvalues --    1.39416   1.39852   1.40861   1.41341   1.42155
 Alpha virt. eigenvalues --    1.42428   1.43344   1.43839   1.43923   1.44447
 Alpha virt. eigenvalues --    1.44588   1.45240   1.45502   1.45963   1.46872
 Alpha virt. eigenvalues --    1.47308   1.48199   1.48446   1.49096   1.49672
 Alpha virt. eigenvalues --    1.50493   1.51366   1.51529   1.51990   1.53058
 Alpha virt. eigenvalues --    1.53209   1.53607   1.54258   1.55099   1.56270
 Alpha virt. eigenvalues --    1.56762   1.57641   1.57693   1.58259   1.58621
 Alpha virt. eigenvalues --    1.59025   1.60148   1.61013   1.61448   1.61660
 Alpha virt. eigenvalues --    1.62371   1.63385   1.63629   1.64138   1.64377
 Alpha virt. eigenvalues --    1.65178   1.65722   1.67188   1.67342   1.67497
 Alpha virt. eigenvalues --    1.67566   1.68119   1.68400   1.68734   1.69296
 Alpha virt. eigenvalues --    1.69581   1.69975   1.70287   1.70492   1.70608
 Alpha virt. eigenvalues --    1.71431   1.72243   1.72521   1.72993   1.73442
 Alpha virt. eigenvalues --    1.73568   1.74242   1.74460   1.74705   1.75139
 Alpha virt. eigenvalues --    1.75149   1.75556   1.76153   1.76249   1.76664
 Alpha virt. eigenvalues --    1.76907   1.77192   1.77833   1.77967   1.78132
 Alpha virt. eigenvalues --    1.78257   1.78438   1.78613   1.79015   1.79984
 Alpha virt. eigenvalues --    1.80102   1.80797   1.80905   1.81472   1.82063
 Alpha virt. eigenvalues --    1.82173   1.82840   1.83025   1.83431   1.83720
 Alpha virt. eigenvalues --    1.83957   1.84598   1.84963   1.85125   1.85369
 Alpha virt. eigenvalues --    1.85741   1.85956   1.86480   1.86546   1.86669
 Alpha virt. eigenvalues --    1.87334   1.87511   1.88086   1.88339   1.88995
 Alpha virt. eigenvalues --    1.89288   1.89544   1.90066   1.90151   1.91060
 Alpha virt. eigenvalues --    1.91101   1.91484   1.91692   1.91930   1.92274
 Alpha virt. eigenvalues --    1.92740   1.93281   1.93728   1.94077   1.94436
 Alpha virt. eigenvalues --    1.94601   1.95267   1.95724   1.96588   1.96893
 Alpha virt. eigenvalues --    1.97107   1.97295   1.97525   1.97924   1.98591
 Alpha virt. eigenvalues --    1.98913   1.99429   1.99673   2.00790   2.01051
 Alpha virt. eigenvalues --    2.01223   2.01912   2.02427   2.02776   2.02798
 Alpha virt. eigenvalues --    2.03096   2.03425   2.03600   2.04083   2.04806
 Alpha virt. eigenvalues --    2.05334   2.06287   2.06448   2.06617   2.06980
 Alpha virt. eigenvalues --    2.07655   2.08205   2.08580   2.09206   2.09575
 Alpha virt. eigenvalues --    2.10621   2.10773   2.11310   2.11509   2.12976
 Alpha virt. eigenvalues --    2.13819   2.13947   2.15169   2.15950   2.16213
 Alpha virt. eigenvalues --    2.16751   2.17624   2.17930   2.18430   2.19112
 Alpha virt. eigenvalues --    2.20285   2.20358   2.21080   2.21184   2.21668
 Alpha virt. eigenvalues --    2.21772   2.22221   2.22702   2.22756   2.22909
 Alpha virt. eigenvalues --    2.23184   2.23313   2.24192   2.24377   2.25425
 Alpha virt. eigenvalues --    2.25686   2.26150   2.26878   2.27528   2.28270
 Alpha virt. eigenvalues --    2.28599   2.29026   2.29557   2.30074   2.30425
 Alpha virt. eigenvalues --    2.30534   2.31680   2.32035   2.32813   2.33388
 Alpha virt. eigenvalues --    2.33630   2.33990   2.35207   2.35312   2.35481
 Alpha virt. eigenvalues --    2.36328   2.37221   2.37391   2.37666   2.38301
 Alpha virt. eigenvalues --    2.39359   2.39970   2.41465   2.41731   2.42051
 Alpha virt. eigenvalues --    2.42727   2.43380   2.43775   2.44349   2.44429
 Alpha virt. eigenvalues --    2.44916   2.45267   2.45939   2.46379   2.46914
 Alpha virt. eigenvalues --    2.47866   2.48819   2.49827   2.50456   2.51246
 Alpha virt. eigenvalues --    2.51745   2.52033   2.53845   2.54397   2.54562
 Alpha virt. eigenvalues --    2.54827   2.55126   2.56671   2.57009   2.57571
 Alpha virt. eigenvalues --    2.58077   2.58452   2.58746   2.59084   2.59761
 Alpha virt. eigenvalues --    2.60208   2.60739   2.61702   2.62135   2.62875
 Alpha virt. eigenvalues --    2.63664   2.63815   2.64468   2.66430   2.67036
 Alpha virt. eigenvalues --    2.68129   2.68483   2.68764   2.69896   2.70314
 Alpha virt. eigenvalues --    2.71098   2.71231   2.72447   2.73659   2.74194
 Alpha virt. eigenvalues --    2.75609   2.76559   2.78843   2.79688   2.80029
 Alpha virt. eigenvalues --    2.80604   2.81397   2.82364   2.82628   2.83282
 Alpha virt. eigenvalues --    2.84095   2.86239   2.88277   2.88554   2.89810
 Alpha virt. eigenvalues --    2.90496   2.91673   2.92345   2.92501   2.93045
 Alpha virt. eigenvalues --    2.94727   2.95369   2.95464   2.96541   2.97450
 Alpha virt. eigenvalues --    3.00376   3.01866   3.02907   3.03830   3.04402
 Alpha virt. eigenvalues --    3.05813   3.08825   3.09698   3.12444   3.16642
 Alpha virt. eigenvalues --    3.18172   3.35675   3.68150   3.71479   3.76884
 Alpha virt. eigenvalues --    3.83656   3.87573   3.91979   3.92394   3.94158
 Alpha virt. eigenvalues --    3.96249   3.97408   3.98601   4.00371   4.01585
 Alpha virt. eigenvalues --    4.02064   4.03528   4.04869   4.05333   4.07444
 Alpha virt. eigenvalues --    4.08117   4.09453   4.10119   4.11343   4.11835
 Alpha virt. eigenvalues --    4.12037   4.14249   4.18608   4.19247   4.20032
 Alpha virt. eigenvalues --    4.21065   4.22689   4.23183   4.24498   4.27141
 Alpha virt. eigenvalues --    4.27680   4.29003   4.31155   4.31942   4.32537
 Alpha virt. eigenvalues --    4.34388   4.35886   4.37099   4.38081   4.39410
 Alpha virt. eigenvalues --    4.40577   4.40649   4.41000   4.41897   4.46624
 Alpha virt. eigenvalues --    4.49151   4.51303   4.54093   4.54171   4.56068
 Alpha virt. eigenvalues --    4.59773   4.63846   4.65562   4.65991   4.70370
          Condensed to atoms (all electrons):
 Mulliken charges:
               1
     1  N   -0.755572
     2  H    0.428239
     3  H    0.407080
     4  H    0.424570
     5  C   -0.131525
     6  H    0.217814
     7  C    0.640192
     8  C    0.082375
     9  H    0.177881
    10  O   -0.522671
    11  C   -0.447077
    12  H    0.167005
    13  H    0.150842
    14  H    0.204049
    15  O   -0.665388
    16  H    0.477409
    17  N   -0.593647
    18  H    0.360517
    19  C   -0.069305
    20  H    0.185396
    21  C    0.596919
    22  C   -0.075687
    23  H    0.148177
    24  O   -0.521159
    25  C   -0.255790
    26  H    0.131833
    27  H    0.145484
    28  C   -0.479348
    29  H    0.154784
    30  H    0.161434
    31  H    0.179721
    32  C   -0.453332
    33  H    0.159738
    34  H    0.160744
    35  H    0.150812
    36  N   -0.670651
    37  H    0.380876
    38  C   -0.039350
    39  H    0.200816
    40  C    0.629045
    41  C   -0.504189
    42  H    0.170494
    43  H    0.201700
    44  H    0.181717
    45  O   -0.540363
    46  N   -0.580254
    47  H    0.350936
    48  C   -0.099931
    49  H    0.185966
    50  C    0.627761
    51  C   -0.258265
    52  H    0.158507
    53  H    0.191200
    54  O   -0.539798
    55  C   -0.409606
    56  H    0.179365
    57  H    0.167358
    58  C    0.607156
    59  N   -0.754641
    60  H    0.348832
    61  H    0.346383
    62  O   -0.503873
    63  N   -0.600675
    64  H    0.354387
    65  C   -0.063072
    66  H    0.196377
    67  C    0.632967
    68  C   -0.368269
    69  H    0.164811
    70  H    0.159196
    71  O   -0.561591
    72  C    0.183956
    73  C   -0.169054
    74  H    0.142370
    75  C   -0.180926
    76  H    0.141123
    77  C   -0.163743
    78  H    0.143158
    79  C   -0.167649
    80  H    0.139308
    81  O   -0.767852
    82  H    0.466082
    83  C    0.328034
    84  N   -0.618051
    85  H    0.362228
    86  C   -0.038476
    87  H    0.174659
    88  C    0.622323
    89  C   -0.449061
    90  H    0.163537
    91  H    0.171780
    92  H    0.164502
    93  O   -0.560837
    94  N   -0.616838
    95  H    0.350164
    96  C   -0.011586
    97  H    0.166095
    98  C    0.584202
    99  C   -0.263110
   100  H    0.125034
   101  H    0.164041
   102  O   -0.622432
   103  C   -0.296728
   104  H    0.134903
   105  H    0.168355
   106  C   -0.154377
   107  H    0.162412
   108  H    0.232056
   109  N   -0.593098
   110  H    0.335912
   111  N   -0.748624
   112  H    0.340403
   113  H    0.430341
   114  N   -0.758192
   115  H    0.366322
   116  H    0.349954
   117  C    0.772188
   118  O   -0.588644
 Sum of Mulliken charges =   1.00000
 Mulliken charges with hydrogens summed into heavy atoms:
               1
     1  N    0.504317
     5  C    0.086290
     7  C    0.640192
     8  C    0.260255
    10  O   -0.522671
    11  C    0.074819
    15  O   -0.187979
    17  N   -0.233130
    19  C    0.116091
    21  C    0.596919
    22  C    0.072490
    24  O   -0.521159
    25  C    0.021526
    28  C    0.016590
    32  C    0.017962
    36  N   -0.289775
    38  C    0.161466
    40  C    0.629045
    41  C    0.049723
    45  O   -0.540363
    46  N   -0.229317
    48  C    0.086036
    50  C    0.627761
    51  C    0.091442
    54  O   -0.539798
    55  C   -0.062883
    58  C    0.607156
    59  N   -0.059426
    62  O   -0.503873
    63  N   -0.246288
    65  C    0.133305
    67  C    0.632967
    68  C   -0.044262
    71  O   -0.561591
    72  C    0.183956
    73  C   -0.026683
    75  C   -0.039803
    77  C   -0.020585
    79  C   -0.028342
    81  O   -0.301770
    83  C    0.328034
    84  N   -0.255823
    86  C    0.136184
    88  C    0.622323
    89  C    0.050758
    93  O   -0.560837
    94  N   -0.266675
    96  C    0.154508
    98  C    0.584202
    99  C    0.025965
   102  O   -0.622432
   103  C    0.006531
   106  C    0.240091
   109  N   -0.257186
   111  N    0.022120
   114  N   -0.041917
   117  C    0.772188
   118  O   -0.588644
 Electronic spatial extent (au):  <R**2>=          85796.2182
 Charge=              1.0000 electrons
 Dipole moment (field-independent basis, Debye):
    X=            -12.0692    Y=             12.6816    Z=            -11.9361  Tot=             21.1887
 Quadrupole moment (field-independent basis, Debye-Ang):
   XX=           -225.7119   YY=           -205.4573   ZZ=           -113.8926
   XY=             81.4428   XZ=            171.6643   YZ=             95.3592
 Traceless Quadrupole moment (field-independent basis, Debye-Ang):
   XX=            -44.0247   YY=            -23.7700   ZZ=             67.7947
   XY=             81.4428   XZ=            171.6643   YZ=             95.3592
 Octapole moment (field-independent basis, Debye-Ang**2):
  XXX=          -1258.7839  YYY=            776.9659  ZZZ=           -259.9243  XYY=            378.7916
  XXY=             56.2646  XXZ=            -82.5665  XZZ=           -465.4274  YZZ=            519.7260
  YYZ=            840.9606  XYZ=            612.5945
 Hexadecapole moment (field-independent basis, Debye-Ang**3):
 XXXX=         -42992.6198 YYYY=         -23967.2450 ZZZZ=         -16067.2388 XXXY=         -12821.6321
 XXXZ=          -9236.5542 YYYX=          -6610.0246 YYYZ=            610.8290 ZZZX=          -5642.5328
 ZZZY=          -4023.3406 XXYY=          -8509.6787 XXZZ=          -4827.4718 YYZZ=          -4411.9150
 XXYZ=            982.1928 YYXZ=            937.6124 ZZXY=          -1010.3450
 N-N= 8.461865304335D+03 E-N=-2.350633316449D+04  KE= 2.811808245171D+03
 Unable to Open any file for archive entry.
 1\1\GINC-LAC-250\SP\RB3LYP\6-31G(d)\C36H60N11O11(1+)\KENGMITH\17-Jul-2
 022\0\\# B3LYP/6-31G* empiricaldispersion=gd3bj guess=read geom=check 
 nosymm integral(ultrafinegrid)\\Candidate Structure: Conf:156 Charge c
 alc in gas phase\\1,1\N,0,-4.7890372117,1.237462756,-6.3558609501\H,0,
 -5.27878931,1.4079874381,-5.4434375318\H,0,-5.2421072629,1.7148607783,
 -7.1358319119\H,0,-3.7867823326,1.5265230465,-6.2528864388\C,0,-4.7207
 970886,-0.2550708321,-6.4711868788\H,0,-5.421271536,-0.5993031173,-7.2
 354547691\C,0,-5.1578681709,-0.7490421684,-5.072057893\C,0,-3.23679705
 52,-0.609465424,-6.8411974205\H,0,-3.0184773692,-1.6147123212,-6.46199
 30145\O,0,-5.5135320614,0.0835179381,-4.2344100641\C,0,-3.0008812669,-
 0.5563941501,-8.34379759\H,0,-3.6306527941,-1.2823460883,-8.8681992066
 \H,0,-3.2120259167,0.443000504,-8.7421274917\H,0,-1.9533237185,-0.7827
 027279,-8.5547169036\O,0,-2.3962848981,0.3457084808,-6.2180640988\H,0,
 -2.2252131505,0.0638022496,-5.2814799101\N,0,-5.103002789,-2.071686911
 5,-4.8791740162\H,0,-4.7150779148,-2.6743253819,-5.5989620711\C,0,-5.0
 757704819,-2.6870716322,-3.5459678193\H,0,-5.1581795028,-1.8748467097,
 -2.8192709018\C,0,-3.6931280287,-3.3564438881,-3.4936748324\C,0,-6.215
 5893969,-3.7018628931,-3.3328141134\H,0,-6.1274999521,-4.4529117981,-4
 .1305973477\O,0,-3.3213975964,-4.0590614934,-4.4290820599\C,0,-7.57988
 36436,-3.0026953908,-3.4557876448\H,0,-7.5953689072,-2.4211377713,-4.3
 85862436\H,0,-7.6829771902,-2.2765501119,-2.6374651807\C,0,-6.03142785
 92,-4.4048846848,-1.9813162478\H,0,-6.0623864329,-3.6839812685,-1.1543
 666212\H,0,-5.0801256368,-4.9447962793,-1.9279384335\H,0,-6.8253949117
 ,-5.1359026656,-1.8126347163\C,0,-8.7706387757,-3.9648180523,-3.452014
 6657\H,0,-9.7056573843,-3.4205792206,-3.618601168\H,0,-8.8672472816,-4
 .495644138,-2.4999503691\H,0,-8.6746041797,-4.7151657495,-4.2457719487
 \N,0,-2.9113721509,-3.0038216152,-2.4372156326\H,0,-3.3460055584,-2.64
 83330505,-1.5810829599\C,0,-1.6287469489,-3.6537467219,-2.1427374662\H
 ,0,-1.7685763158,-4.7419734973,-2.1787844857\C,0,-1.3152924267,-3.2313
 005207,-0.688992193\C,0,-0.533532956,-3.248246274,-3.1390530228\H,0,0.
 3360121722,-3.9053417601,-3.0424071913\H,0,-0.1989928784,-2.2215028897
 ,-2.970846949\H,0,-0.910446368,-3.3638333034,-4.1570761241\O,0,-2.1810
 644222,-2.6767633748,-0.0095995887\N,0,-0.0690777804,-3.5147222781,-0.
 2468794702\H,0,0.6189064364,-3.7163430822,-0.9629665282\C,0,0.50055633
 06,-2.7741853903,0.8769507725\H,0,-0.3289536436,-2.4876150627,1.527307
 53\C,0,1.1723390049,-1.5210818709,0.2809855657\C,0,1.5116142321,-3.643
 1042764,1.6424010739\H,0,2.3409908219,-3.9051814374,0.9737044149\H,0,1
 .0287096998,-4.5816941957,1.9264492547\O,0,1.5804853576,-1.5225853318,
 -0.8785806108\C,0,2.0575621933,-2.9610506473,2.8964878966\H,0,2.613583
 0798,-2.049697292,2.6599412212\H,0,1.2260055684,-2.6532409471,3.548375
 0986\C,0,2.9501514784,-3.8972583976,3.7086573653\N,0,3.7999053111,-3.2
 503774811,4.5569954388\H,0,3.806042138,-2.24469049,4.6454319798\H,0,4.
 3731546666,-3.8006359478,5.1806746077\O,0,2.8993408627,-5.1144570027,3
 .611041093\N,0,1.2788845603,-0.4586458547,1.1138427299\H,0,1.121763477
 9,-0.5747243241,2.1091143717\C,0,2.0507209348,0.715452528,0.7687298469
 \H,0,2.702075481,0.4473207303,-0.0685804908\C,0,2.8968674118,1.0786549
 721,2.0023238256\C,0,1.1310082034,1.8926381906,0.3260241071\H,0,1.7557
 68987,2.7201480503,-0.0271940314\H,0,0.5813606225,2.2525102143,1.20330
 07362\O,0,2.7258376543,0.498959095,3.0816224517\C,0,0.1722646287,1.439
 843266,-0.7458467473\C,0,0.5308607158,1.4594811756,-2.0977483933\H,0,1
 .4776482118,1.9016498582,-2.3958705923\C,0,-1.0497554893,0.8585224797,
 -0.3896329933\H,0,-1.3496856155,0.8359993684,0.6532167722\C,0,-0.28135
 8313,0.8745517148,-3.0684354438\H,0,0.0197416597,0.8533161191,-4.11150
 02826\C,0,-1.876519608,0.2761364423,-1.3454132981\H,0,-2.8133364321,-0
 .185294181,-1.0536070908\O,0,-2.2534798953,-0.3766367359,-3.6389666068
 \H,0,-2.518167895,-1.2469812991,-3.2717684065\C,0,-1.4701024041,0.2659
 656694,-2.6771789166\N,0,3.7936150811,2.0554408112,1.8088451664\H,0,3.
 8728810946,2.5647558945,0.9304230032\C,0,4.643742508,2.5981503963,2.85
 38965581\H,0,4.0313968061,2.7937266485,3.7426951025\C,0,5.1785523833,3
 .9308908416,2.2902868603\C,0,5.7799980507,1.6347473079,3.2272358913\H,
 0,6.3966462471,2.0470895253,4.0315218316\H,0,5.3542552391,0.6866772384
 ,3.5647446256\H,0,6.4215260598,1.4500161967,2.3600444351\O,0,4.9505258
 794,4.2514749073,1.1175563876\N,0,5.9041305821,4.6630077953,3.14425258
 01\H,0,6.0585624537,4.390118908,4.111628313\C,0,6.5843620729,5.9050955
 049,2.7976355028\H,0,7.0119525947,5.8186015164,1.7962093389\C,0,7.6913
 231242,6.0990298761,3.8572639802\C,0,5.5695492076,7.0702895827,2.85164
 081\H,0,5.2051413022,7.1298455858,3.8853380278\H,0,4.7165191848,6.7782
 208555,2.2297447104\O,0,8.7402100098,6.7041637985,3.456274018\C,0,6.03
 30916927,8.4546255187,2.3695713195\H,0,5.149472082,9.10885972,2.351034
 1447\H,0,6.3792032138,8.3899771372,1.3307523939\C,0,7.1492883844,9.152
 2226201,3.1625014933\H,0,7.2437586881,10.1920028461,2.8262903664\H,0,8
 .0908267874,8.6379010139,2.9954592413\N,0,6.8747530059,9.1516056657,4.
 6077911532\H,0,5.9252474156,9.3672466716,4.8799780277\N,0,8.9512450996
 ,8.4104530417,5.3706660373\H,0,9.5241178667,8.2588258974,6.1908794223\
 H,0,9.0572342507,7.6741929457,4.5773883395\N,0,7.3419414982,9.15906858
 05,6.8778109779\H,0,7.6863733591,8.5517500034,7.6088617467\H,0,6.41634
 01178,9.5303991581,7.0389767182\C,0,7.7301365961,8.8737700364,5.601464
 5278\O,0,7.4218697281,5.7319355106,5.0181513466\\Version=ES64L-G16RevC
 .01\HF=-2837.909413\RMSD=7.000e-09\Dipole=-6.247924,3.6498859,-4.31706
 02\Quadrupole=-32.7312609,-17.6724257,50.4036866,60.5507501,127.628177
 6,70.8972119\PG=C01 [X(C36H60N11O11)]\\@
 The archive entry for this job was punched.


 MISERY NO LONGER LOVES COMPANY.  NOWADAYS IT INSISTS ON IT.

                                              -- BAKER'S LAW
 Job cpu time:       0 days  0 hours  3 minutes 59.1 seconds.
 Elapsed time:       0 days  0 hours  1 minutes  1.0 seconds.
 File lengths (MBytes):  RWF=    624 Int=      0 D2E=      0 Chk=     96 Scr=     16
 Normal termination of Gaussian 16 at Sun Jul 17 00:10:04 2022.
