 Entering Gaussian System, Link 0=/opt/software/Gaussian/g16-AVX-C.01/g16/g16
 Input=charge-conf-123.com
 Output=charge-conf-123.log
 Initial command:
 /opt/software/Gaussian/g16-AVX-C.01/g16/l1.exe "/mnt/gs18/scratch/users/kengmith/Gau-27878.inp" -scrdir="/mnt/gs18/scratch/users/kengmith/"
 Entering Link 1 = /opt/software/Gaussian/g16-AVX-C.01/g16/l1.exe PID=     27891.
  
 Copyright (c) 1988-2019, Gaussian, Inc.  All Rights Reserved.
  
 This is part of the Gaussian(R) 16 program.  It is based on
 the Gaussian(R) 09 system (copyright 2009, Gaussian, Inc.),
 the Gaussian(R) 03 system (copyright 2003, Gaussian, Inc.),
 the Gaussian(R) 98 system (copyright 1998, Gaussian, Inc.),
 the Gaussian(R) 94 system (copyright 1995, Gaussian, Inc.),
 the Gaussian 92(TM) system (copyright 1992, Gaussian, Inc.),
 the Gaussian 90(TM) system (copyright 1990, Gaussian, Inc.),
 the Gaussian 88(TM) system (copyright 1988, Gaussian, Inc.),
 the Gaussian 86(TM) system (copyright 1986, Carnegie Mellon
 University), and the Gaussian 82(TM) system (copyright 1983,
 Carnegie Mellon University). Gaussian is a federally registered
 trademark of Gaussian, Inc.
  
 This software contains proprietary and confidential information,
 including trade secrets, belonging to Gaussian, Inc.
  
 This software is provided under written license and may be
 used, copied, transmitted, or stored only in accord with that
 written license.
  
 The following legend is applicable only to US Government
 contracts under FAR:
  
                    RESTRICTED RIGHTS LEGEND
  
 Use, reproduction and disclosure by the US Government is
 subject to restrictions as set forth in subparagraphs (a)
 and (c) of the Commercial Computer Software - Restricted
 Rights clause in FAR 52.227-19.
  
 Gaussian, Inc.
 340 Quinnipiac St., Bldg. 40, Wallingford CT 06492
  
  
 ---------------------------------------------------------------
 Warning -- This program may not be used in any manner that
 competes with the business of Gaussian, Inc. or will provide
 assistance to any competitor of Gaussian, Inc.  The licensee
 of this program is prohibited from giving any competitor of
 Gaussian, Inc. access to this program.  By using this program,
 the user acknowledges that Gaussian, Inc. is engaged in the
 business of creating and licensing software in the field of
 computational chemistry and represents and warrants to the
 licensee that it is not a competitor of Gaussian, Inc. and that
 it will not use this program in any manner prohibited above.
 ---------------------------------------------------------------
  

 Cite this work as:
 Gaussian 16, Revision C.01,
 M. J. Frisch, G. W. Trucks, H. B. Schlegel, G. E. Scuseria, 
 M. A. Robb, J. R. Cheeseman, G. Scalmani, V. Barone, 
 G. A. Petersson, H. Nakatsuji, X. Li, M. Caricato, A. V. Marenich, 
 J. Bloino, B. G. Janesko, R. Gomperts, B. Mennucci, H. P. Hratchian, 
 J. V. Ortiz, A. F. Izmaylov, J. L. Sonnenberg, D. Williams-Young, 
 F. Ding, F. Lipparini, F. Egidi, J. Goings, B. Peng, A. Petrone, 
 T. Henderson, D. Ranasinghe, V. G. Zakrzewski, J. Gao, N. Rega, 
 G. Zheng, W. Liang, M. Hada, M. Ehara, K. Toyota, R. Fukuda, 
 J. Hasegawa, M. Ishida, T. Nakajima, Y. Honda, O. Kitao, H. Nakai, 
 T. Vreven, K. Throssell, J. A. Montgomery, Jr., J. E. Peralta, 
 F. Ogliaro, M. J. Bearpark, J. J. Heyd, E. N. Brothers, K. N. Kudin, 
 V. N. Staroverov, T. A. Keith, R. Kobayashi, J. Normand, 
 K. Raghavachari, A. P. Rendell, J. C. Burant, S. S. Iyengar, 
 J. Tomasi, M. Cossi, J. M. Millam, M. Klene, C. Adamo, R. Cammi, 
 J. W. Ochterski, R. L. Martin, K. Morokuma, O. Farkas, 
 J. B. Foresman, and D. J. Fox, Gaussian, Inc., Wallingford CT, 2019.
 
 ******************************************
 Gaussian 16:  ES64L-G16RevC.01  3-Jul-2019
                17-Jul-2022 
 ******************************************
 %mem=8gb
 %nproc=4
 Will use up to    4 processors via shared memory.
 %chk=conf-123.chk
 ----------------------------------------------------------------------
 # B3LYP/6-31G* empiricaldispersion=gd3bj guess=read geom=check nosymm 
 integral(ultrafinegrid)
 ----------------------------------------------------------------------
 1/29=2,38=1,172=1/1;
 2/12=2,15=1,40=1/2;
 3/5=1,6=6,7=1,11=2,14=-4,25=1,30=1,74=-5,75=-5,116=-2,124=41/1,2,3;
 4/5=1/1;
 5/5=2,38=6/2;
 6/7=2,8=2,9=2,10=2,28=1/1;
 99/5=1,9=1/99;
 ------------------------------------------------------
 Candidate Structure: Conf:123 Charge calc in gas phase
 ------------------------------------------------------
 Structure from the checkpoint file:  "conf-123.chk"
 Charge =  1 Multiplicity = 1
 Redundant internal coordinates found in file.  (old form).
 N,0,-8.7416375972,-4.7065677865,-7.0170617576
 H,0,-9.2060573944,-5.5316942383,-6.6297316539
 H,0,-8.8357716655,-4.6962268465,-8.0476598522
 H,0,-9.1366508832,-3.8516762839,-6.5502622939
 C,0,-7.2772276719,-4.6358825182,-6.6916011447
 H,0,-6.8996544366,-5.6470841164,-6.5234971297
 C,0,-7.2138388956,-3.7368120267,-5.4385339073
 C,0,-6.5756201589,-3.9693447195,-7.9148384363
 H,0,-6.8102650252,-2.8992890721,-7.8845776621
 O,0,-8.1911137096,-3.010517892,-5.211971384
 C,0,-5.0692546773,-4.1797987534,-7.9160292758
 H,0,-4.5902251517,-3.7415115955,-7.0357309345
 H,0,-4.8237337697,-5.2495871236,-7.9387477091
 H,0,-4.6391520245,-3.7050995361,-8.8021666172
 O,0,-7.2058158886,-4.4558648886,-9.1014827983
 H,0,-6.6893821676,-5.1967062405,-9.4601517873
 N,0,-6.0849109611,-3.7864307701,-4.7470575737
 H,0,-5.2831709126,-4.3404847716,-5.0553304913
 C,0,-5.7073588862,-2.8445362507,-3.6959053266
 H,0,-6.1709638774,-1.8808560657,-3.9213566829
 C,0,-4.1738265255,-2.7516138677,-3.831665472
 C,0,-6.1913901379,-3.3377145709,-2.3031100108
 H,0,-7.2654177627,-3.5236029785,-2.4420016231
 O,0,-3.5672998605,-3.5785484067,-4.5286811481
 C,0,-6.0554619481,-2.2848063835,-1.1865085791
 H,0,-5.0014553557,-2.14213415,-0.9206946336
 H,0,-6.5262821963,-2.7150934267,-0.2942661025
 C,0,-5.5098242779,-4.6512681115,-1.9051746334
 H,0,-4.4351183305,-4.5092960884,-1.7450627077
 H,0,-5.6360120441,-5.4262101553,-2.6686903264
 H,0,-5.9359559149,-5.0306339354,-0.971413699
 C,0,-6.7071811167,-0.9305976495,-1.4839375517
 H,0,-6.6966450217,-0.2977477886,-0.5919404274
 H,0,-7.7495210736,-1.0509936353,-1.8021061092
 H,0,-6.185392071,-0.3714547058,-2.2703745324
 N,0,-3.5825156585,-1.7649670603,-3.1546097573
 H,0,-4.1010912406,-1.1483948108,-2.5323745542
 C,0,-2.1410721331,-1.6464781111,-2.9958252422
 H,0,-1.7176373857,-2.6531085795,-2.9128605211
 C,0,-1.9461486037,-0.886810924,-1.6703341659
 C,0,-1.4857071939,-0.914084445,-4.175416879
 H,0,-0.4039858988,-0.8298201477,-4.0320175933
 H,0,-1.9005580004,0.0938129865,-4.2756025927
 H,0,-1.6718548915,-1.4706910661,-5.0975938138
 O,0,-2.9036496773,-0.330250828,-1.1216185044
 N,0,-0.6920993203,-0.8910676276,-1.1956611067
 H,0,0.0786911574,-1.2400077003,-1.7630822285
 C,0,-0.2295500984,-0.059313084,-0.0954864409
 H,0,-0.8840770989,0.8165185967,-0.0253831061
 C,0,1.1990117814,0.3705110598,-0.48425215
 C,0,-0.2163961919,-0.8176994805,1.244836029
 H,0,0.2753297346,-0.1933603814,2.0003063261
 H,0,0.3898239573,-1.7227257268,1.1391560131
 O,0,1.7943731825,-0.1930380234,-1.407915161
 C,0,-1.6105544943,-1.2151911421,1.7345606911
 H,0,-2.2053530319,-0.3285087585,1.9826798044
 H,0,-2.151497728,-1.7344418011,0.9363159805
 C,0,-1.5107045794,-2.184982885,2.9093294455
 N,0,-2.4035733096,-1.9747772306,3.922594939
 H,0,-2.9371293711,-1.121823057,3.9935633832
 H,0,-2.3200481507,-2.5529989384,4.7478334812
 O,0,-0.716200782,-3.1143219334,2.9161594464
 N,0,1.7291530378,1.3477463838,0.2655701004
 H,0,1.2190014073,1.8033922651,1.0181072852
 C,0,3.0922830161,1.8234152174,0.1186159667
 H,0,3.7533118227,0.9655449779,-0.0373098006
 C,0,3.4248003093,2.5357067132,1.4372934004
 C,0,3.2234738554,2.7851947157,-1.0950900436
 H,0,2.5182013206,3.6102150366,-0.9474382519
 H,0,2.8988078941,2.2205467106,-1.9753856628
 O,0,2.5158658183,3.0102044509,2.1279130956
 C,0,4.6251555069,3.3118014471,-1.2705204081
 C,0,4.9560104708,4.6249486057,-0.9138531903
 H,0,4.1743865281,5.2930764046,-0.5609912912
 C,0,5.6527519592,2.4702797862,-1.7121377768
 H,0,5.4224702213,1.4481549237,-2.0041025003
 C,0,6.2657953967,5.0879025054,-0.9834878448
 H,0,6.5198172872,6.103761327,-0.6998626995
 C,0,6.9708620147,2.9154100241,-1.7772343632
 H,0,7.7592268571,2.2438933966,-2.1100429643
 O,0,8.5594068406,4.7141845907,-1.4340109045
 H,0,9.1698451409,3.9771213004,-1.590851398
 C,0,7.2800392062,4.2244366554,-1.4023071562
 N,0,4.7273133604,2.6100417865,1.7457478552
 H,0,5.4501259043,2.2966905758,1.1008368746
 C,0,5.2365252808,3.4207272927,2.8381369281
 H,0,4.686525047,4.3691324244,2.8573779334
 C,0,6.7158736428,3.685964244,2.5077843548
 C,0,5.0769190668,2.7214663082,4.1959208218
 H,0,5.4543611506,3.3538369338,5.0056242965
 H,0,4.0186643988,2.5151509187,4.3740305271
 H,0,5.6327107499,1.7785929961,4.2025681345
 O,0,7.2990838092,3.0222931622,1.6434923618
 N,0,7.2964563184,4.6515507486,3.2340323849
 H,0,6.7962505975,5.1996951242,3.9298796582
 C,0,8.6930874954,5.0429245913,3.1063239194
 H,0,9.315819352,4.1464962544,3.040946387
 C,0,9.0327538504,5.8433320966,4.3867456292
 C,0,8.8586629059,5.8817754799,1.8089607319
 H,0,8.3395314252,6.8387261649,1.956409767
 H,0,8.3108080293,5.3375298859,1.0384729851
 O,0,10.2688226064,5.8694322089,4.7272763821
 C,0,10.2870232128,6.1156127714,1.2719249841
 H,0,10.2647154729,6.0087375154,0.1820383739
 H,0,10.9686203363,5.3397949732,1.6444316381
 C,0,10.8941990282,7.493473658,1.5682561746
 H,0,10.2109289791,8.2778606565,1.2202905807
 H,0,11.8425799815,7.6082504415,1.0280881075
 N,0,11.1186123527,7.6401156784,3.0058785521
 H,0,11.0570746429,6.7544640743,3.5550231161
 N,0,10.601162809,9.9127406307,3.1727322245
 H,0,10.4850600467,10.7162597002,3.7727578759
 H,0,11.051282966,10.0961267712,2.2880162058
 N,0,10.6205232649,8.5207213112,5.0618665416
 H,0,10.2195180129,9.2644152783,5.6146107847
 H,0,10.4227007101,7.5317840515,5.3391911765
 C,0,10.7787108517,8.6932917838,3.7442937249
 O,0,8.1011878686,6.4499080789,4.9413858962
 Recover connectivity data from disk.
                           ----------------------------
                           !    Current Parameters    !
                           ! (Angstroms and Degrees)  !
 --------------------------                            --------------------------
 ! Name  Definition              Value                                          !
 --------------------------------------------------------------------------------
 ! R1    R(1,2)                  1.023                                          !
 ! R2    R(1,3)                  1.0349                                         !
 ! R3    R(1,4)                  1.0511                                         !
 ! R4    R(1,5)                  1.5018                                         !
 ! R5    R(5,6)                  1.0924                                         !
 ! R6    R(5,7)                  1.5435                                         !
 ! R7    R(5,8)                  1.5598                                         !
 ! R8    R(7,10)                 1.2385                                         !
 ! R9    R(7,17)                 1.3248                                         !
 ! R10   R(8,9)                  1.0959                                         !
 ! R11   R(8,11)                 1.521                                          !
 ! R12   R(8,15)                 1.429                                          !
 ! R13   R(11,12)                1.0938                                         !
 ! R14   R(11,13)                1.0978                                         !
 ! R15   R(11,14)                1.0934                                         !
 ! R16   R(15,16)                0.9717                                         !
 ! R17   R(17,18)                1.0222                                         !
 ! R18   R(17,19)                1.461                                          !
 ! R19   R(19,20)                1.0929                                         !
 ! R20   R(19,21)                1.5423                                         !
 ! R21   R(19,22)                1.5548                                         !
 ! R22   R(21,24)                1.24                                           !
 ! R23   R(21,36)                1.3347                                         !
 ! R24   R(22,23)                1.0988                                         !
 ! R25   R(22,25)                1.5407                                         !
 ! R26   R(22,28)                1.5324                                         !
 ! R27   R(25,26)                1.0963                                         !
 ! R28   R(25,27)                1.0968                                         !
 ! R29   R(25,32)                1.532                                          !
 ! R30   R(28,29)                1.0958                                         !
 ! R31   R(28,30)                1.0952                                         !
 ! R32   R(28,31)                1.0943                                         !
 ! R33   R(32,33)                1.0937                                         !
 ! R34   R(32,34)                1.0964                                         !
 ! R35   R(32,35)                1.097                                          !
 ! R36   R(36,37)                1.018                                          !
 ! R37   R(36,38)                1.455                                          !
 ! R38   R(38,39)                1.0952                                         !
 ! R39   R(38,40)                1.5401                                         !
 ! R40   R(38,41)                1.5354                                         !
 ! R41   R(40,45)                1.236                                          !
 ! R42   R(40,46)                1.3409                                         !
 ! R43   R(41,42)                1.0944                                         !
 ! R44   R(41,43)                1.0945                                         !
 ! R45   R(41,44)                1.0931                                         !
 ! R46   R(46,47)                1.0187                                         !
 ! R47   R(46,48)                1.4547                                         !
 ! R48   R(48,49)                1.0956                                         !
 ! R49   R(48,50)                1.5416                                         !
 ! R50   R(48,51)                1.5401                                         !
 ! R51   R(50,54)                1.235                                          !
 ! R52   R(50,63)                1.341                                          !
 ! R53   R(51,52)                1.0965                                         !
 ! R54   R(51,53)                1.0944                                         !
 ! R55   R(51,55)                1.5302                                         !
 ! R56   R(55,56)                1.0962                                         !
 ! R57   R(55,57)                1.0952                                         !
 ! R58   R(55,58)                1.5266                                         !
 ! R59   R(58,59)                1.3668                                         !
 ! R60   R(58,62)                1.2227                                         !
 ! R61   R(59,60)                1.0086                                         !
 ! R62   R(59,61)                1.0111                                         !
 ! R63   R(63,64)                1.0169                                         !
 ! R64   R(63,65)                1.4512                                         !
 ! R65   R(65,66)                1.0942                                         !
 ! R66   R(65,67)                1.5352                                         !
 ! R67   R(65,68)                1.5541                                         !
 ! R68   R(67,71)                1.2362                                         !
 ! R69   R(67,84)                1.3406                                         !
 ! R70   R(68,69)                1.0954                                         !
 ! R71   R(68,70)                1.0951                                         !
 ! R72   R(68,72)                1.5076                                         !
 ! R73   R(72,73)                1.4004                                         !
 ! R74   R(72,75)                1.3997                                         !
 ! R75   R(73,74)                1.0871                                         !
 ! R76   R(73,77)                1.3909                                         !
 ! R77   R(75,76)                1.0877                                         !
 ! R78   R(75,79)                1.3928                                         !
 ! R79   R(77,78)                1.0849                                         !
 ! R80   R(77,83)                1.3963                                         !
 ! R81   R(79,80)                1.0878                                         !
 ! R82   R(79,83)                1.3963                                         !
 ! R83   R(81,82)                0.9698                                         !
 ! R84   R(81,83)                1.3703                                         !
 ! R85   R(84,85)                1.0181                                         !
 ! R86   R(84,86)                1.4525                                         !
 ! R87   R(86,87)                1.0965                                         !
 ! R88   R(86,88)                1.5388                                         !
 ! R89   R(86,89)                1.5356                                         !
 ! R90   R(88,93)                1.236                                          !
 ! R91   R(88,94)                1.3405                                         !
 ! R92   R(89,90)                1.0945                                         !
 ! R93   R(89,91)                1.0928                                         !
 ! R94   R(89,92)                1.0945                                         !
 ! R95   R(94,95)                1.0173                                         !
 ! R96   R(94,96)                1.456                                          !
 ! R97   R(96,97)                1.0935                                         !
 ! R98   R(96,98)                1.5477                                         !
 ! R99   R(96,99)                1.5538                                         !
 ! R100  R(98,102)               1.2824                                         !
 ! R101  R(98,118)               1.2423                                         !
 ! R102  R(99,100)               1.0986                                         !
 ! R103  R(99,101)               1.0909                                         !
 ! R104  R(99,103)               1.5438                                         !
 ! R105  R(103,104)              1.0953                                         !
 ! R106  R(103,105)              1.0978                                         !
 ! R107  R(103,106)              1.5346                                         !
 ! R108  R(106,107)              1.0969                                         !
 ! R109  R(106,108)              1.0974                                         !
 ! R110  R(106,109)              1.4624                                         !
 ! R111  R(109,110)              1.0439                                         !
 ! R112  R(109,117)              1.3304                                         !
 ! R113  R(111,112)              1.0095                                         !
 ! R114  R(111,113)              1.0094                                         !
 ! R115  R(111,117)              1.3584                                         !
 ! R116  R(114,115)              1.0097                                         !
 ! R117  R(114,116)              1.046                                          !
 ! R118  R(114,117)              1.3382                                         !
 ! A1    A(2,1,3)              110.1084                                         !
 ! A2    A(2,1,4)              108.4971                                         !
 ! A3    A(2,1,5)              113.4896                                         !
 ! A4    A(3,1,4)              113.5744                                         !
 ! A5    A(3,1,5)              107.6995                                         !
 ! A6    A(4,1,5)              103.4108                                         !
 ! A7    A(1,5,6)              109.0752                                         !
 ! A8    A(1,5,7)              104.0867                                         !
 ! A9    A(1,5,8)              106.7846                                         !
 ! A10   A(6,5,7)              113.5816                                         !
 ! A11   A(6,5,8)              111.1481                                         !
 ! A12   A(7,5,8)              111.6712                                         !
 ! A13   A(5,7,10)             117.2374                                         !
 ! A14   A(5,7,17)             115.9066                                         !
 ! A15   A(10,7,17)            126.7908                                         !
 ! A16   A(5,8,9)              107.415                                          !
 ! A17   A(5,8,11)             112.7666                                         !
 ! A18   A(5,8,15)             107.9016                                         !
 ! A19   A(9,8,11)             110.3147                                         !
 ! A20   A(9,8,15)             105.126                                          !
 ! A21   A(11,8,15)            112.8929                                         !
 ! A22   A(8,11,12)            112.1881                                         !
 ! A23   A(8,11,13)            110.8754                                         !
 ! A24   A(8,11,14)            109.277                                          !
 ! A25   A(12,11,13)           108.0088                                         !
 ! A26   A(12,11,14)           107.818                                          !
 ! A27   A(13,11,14)           108.5607                                         !
 ! A28   A(8,15,16)            109.3727                                         !
 ! A29   A(7,17,18)            122.0923                                         !
 ! A30   A(7,17,19)            124.8606                                         !
 ! A31   A(18,17,19)           111.3298                                         !
 ! A32   A(17,19,20)           108.0844                                         !
 ! A33   A(17,19,21)           103.4414                                         !
 ! A34   A(17,19,22)           111.0729                                         !
 ! A35   A(20,19,21)           110.5175                                         !
 ! A36   A(20,19,22)           109.4162                                         !
 ! A37   A(21,19,22)           114.0479                                         !
 ! A38   A(19,21,24)           119.713                                          !
 ! A39   A(19,21,36)           116.1278                                         !
 ! A40   A(24,21,36)           124.1539                                         !
 ! A41   A(19,22,23)           104.1655                                         !
 ! A42   A(19,22,25)           113.8895                                         !
 ! A43   A(19,22,28)           111.4725                                         !
 ! A44   A(23,22,25)           107.0644                                         !
 ! A45   A(23,22,28)           108.817                                          !
 ! A46   A(25,22,28)           110.9985                                         !
 ! A47   A(22,25,26)           110.4544                                         !
 ! A48   A(22,25,27)           106.4747                                         !
 ! A49   A(22,25,32)           115.2035                                         !
 ! A50   A(26,25,27)           105.4571                                         !
 ! A51   A(26,25,32)           109.9387                                         !
 ! A52   A(27,25,32)           108.7906                                         !
 ! A53   A(22,28,29)           111.29                                           !
 ! A54   A(22,28,30)           111.978                                          !
 ! A55   A(22,28,31)           110.2159                                         !
 ! A56   A(29,28,30)           107.8511                                         !
 ! A57   A(29,28,31)           107.5874                                         !
 ! A58   A(30,28,31)           107.7414                                         !
 ! A59   A(25,32,33)           110.4277                                         !
 ! A60   A(25,32,34)           111.3264                                         !
 ! A61   A(25,32,35)           112.792                                          !
 ! A62   A(33,32,34)           108.02                                           !
 ! A63   A(33,32,35)           106.5688                                         !
 ! A64   A(34,32,35)           107.4647                                         !
 ! A65   A(21,36,37)           122.1481                                         !
 ! A66   A(21,36,38)           123.6725                                         !
 ! A67   A(37,36,38)           112.8703                                         !
 ! A68   A(36,38,39)           108.4478                                         !
 ! A69   A(36,38,40)           105.0388                                         !
 ! A70   A(36,38,41)           112.2021                                         !
 ! A71   A(39,38,40)           109.8298                                         !
 ! A72   A(39,38,41)           109.3663                                         !
 ! A73   A(40,38,41)           111.8328                                         !
 ! A74   A(38,40,45)           120.407                                          !
 ! A75   A(38,40,46)           114.9271                                         !
 ! A76   A(45,40,46)           124.6659                                         !
 ! A77   A(38,41,42)           110.9744                                         !
 ! A78   A(38,41,43)           110.3528                                         !
 ! A79   A(38,41,44)           109.4244                                         !
 ! A80   A(42,41,43)           108.4039                                         !
 ! A81   A(42,41,44)           108.5455                                         !
 ! A82   A(43,41,44)           109.0947                                         !
 ! A83   A(40,46,47)           120.7655                                         !
 ! A84   A(40,46,48)           124.2835                                         !
 ! A85   A(47,46,48)           112.1172                                         !
 ! A86   A(46,48,49)           108.3912                                         !
 ! A87   A(46,48,50)           105.2684                                         !
 ! A88   A(46,48,51)           112.2938                                         !
 ! A89   A(49,48,50)           110.294                                          !
 ! A90   A(49,48,51)           110.0638                                         !
 ! A91   A(50,48,51)           110.4171                                         !
 ! A92   A(48,50,54)           120.5371                                         !
 ! A93   A(48,50,63)           115.3729                                         !
 ! A94   A(54,50,63)           124.0664                                         !
 ! A95   A(48,51,52)           108.8482                                         !
 ! A96   A(48,51,53)           109.1422                                         !
 ! A97   A(48,51,55)           113.495                                          !
 ! A98   A(52,51,53)           106.797                                          !
 ! A99   A(52,51,55)           109.6325                                         !
 ! A100  A(53,51,55)           108.7094                                         !
 ! A101  A(51,55,56)           110.8977                                         !
 ! A102  A(51,55,57)           109.8713                                         !
 ! A103  A(51,55,58)           110.5916                                         !
 ! A104  A(56,55,57)           106.289                                          !
 ! A105  A(56,55,58)           112.0346                                         !
 ! A106  A(57,55,58)           106.9777                                         !
 ! A107  A(55,58,59)           115.4714                                         !
 ! A108  A(55,58,62)           121.9816                                         !
 ! A109  A(59,58,62)           122.4964                                         !
 ! A110  A(58,59,60)           121.8577                                         !
 ! A111  A(58,59,61)           117.5908                                         !
 ! A112  A(60,59,61)           118.0276                                         !
 ! A113  A(50,63,64)           122.8175                                         !
 ! A114  A(50,63,65)           123.6132                                         !
 ! A115  A(64,63,65)           113.5332                                         !
 ! A116  A(63,65,66)           108.9604                                         !
 ! A117  A(63,65,67)           105.5779                                         !
 ! A118  A(63,65,68)           111.1752                                         !
 ! A119  A(66,65,67)           110.8134                                         !
 ! A120  A(66,65,68)           108.8394                                         !
 ! A121  A(67,65,68)           111.4319                                         !
 ! A122  A(65,67,71)           119.9135                                         !
 ! A123  A(65,67,84)           115.7092                                         !
 ! A124  A(71,67,84)           124.3702                                         !
 ! A125  A(65,68,69)           107.8477                                         !
 ! A126  A(65,68,70)           106.4791                                         !
 ! A127  A(65,68,72)           112.6767                                         !
 ! A128  A(69,68,70)           107.808                                          !
 ! A129  A(69,68,72)           110.5623                                         !
 ! A130  A(70,68,72)           111.2369                                         !
 ! A131  A(68,72,73)           121.1699                                         !
 ! A132  A(68,72,75)           120.6168                                         !
 ! A133  A(73,72,75)           118.0782                                         !
 ! A134  A(72,73,74)           119.2817                                         !
 ! A135  A(72,73,77)           121.4552                                         !
 ! A136  A(74,73,77)           119.257                                          !
 ! A137  A(72,75,76)           119.6202                                         !
 ! A138  A(72,75,79)           121.1582                                         !
 ! A139  A(76,75,79)           119.2204                                         !
 ! A140  A(73,77,78)           121.2695                                         !
 ! A141  A(73,77,83)           119.5504                                         !
 ! A142  A(78,77,83)           119.1694                                         !
 ! A143  A(75,79,80)           120.1927                                         !
 ! A144  A(75,79,83)           119.777                                          !
 ! A145  A(80,79,83)           120.0278                                         !
 ! A146  A(82,81,83)           108.6507                                         !
 ! A147  A(77,83,79)           119.9627                                         !
 ! A148  A(77,83,81)           117.6526                                         !
 ! A149  A(79,83,81)           122.3837                                         !
 ! A150  A(67,84,85)           121.801                                          !
 ! A151  A(67,84,86)           122.9972                                         !
 ! A152  A(85,84,86)           113.5327                                         !
 ! A153  A(84,86,87)           108.6683                                         !
 ! A154  A(84,86,88)           105.7697                                         !
 ! A155  A(84,86,89)           111.9869                                         !
 ! A156  A(87,86,88)           109.6875                                         !
 ! A157  A(87,86,89)           109.0391                                         !
 ! A158  A(88,86,89)           111.6068                                         !
 ! A159  A(86,88,93)           120.7439                                         !
 ! A160  A(86,88,94)           115.1019                                         !
 ! A161  A(93,88,94)           124.1447                                         !
 ! A162  A(86,89,90)           110.8047                                         !
 ! A163  A(86,89,91)           109.3137                                         !
 ! A164  A(86,89,92)           110.174                                          !
 ! A165  A(90,89,91)           108.8114                                         !
 ! A166  A(90,89,92)           108.5486                                         !
 ! A167  A(91,89,92)           109.1547                                         !
 ! A168  A(88,94,95)           123.0768                                         !
 ! A169  A(88,94,96)           124.1627                                         !
 ! A170  A(95,94,96)           112.7558                                         !
 ! A171  A(94,96,97)           109.3388                                         !
 ! A172  A(94,96,98)           106.0782                                         !
 ! A173  A(94,96,99)           108.6971                                         !
 ! A174  A(97,96,98)           110.3919                                         !
 ! A175  A(97,96,99)           109.3893                                         !
 ! A176  A(98,96,99)           112.8411                                         !
 ! A177  A(96,98,102)          116.2149                                         !
 ! A178  A(96,98,118)          117.2118                                         !
 ! A179  A(102,98,118)         126.4615                                         !
 ! A180  A(96,99,100)          107.9289                                         !
 ! A181  A(96,99,101)          105.4785                                         !
 ! A182  A(96,99,103)          118.0881                                         !
 ! A183  A(100,99,101)         106.9809                                         !
 ! A184  A(100,99,103)         110.6064                                         !
 ! A185  A(101,99,103)         107.1296                                         !
 ! A186  A(99,103,104)         108.2107                                         !
 ! A187  A(99,103,105)         110.4481                                         !
 ! A188  A(99,103,106)         115.779                                          !
 ! A189  A(104,103,105)        106.3386                                         !
 ! A190  A(104,103,106)        106.7266                                         !
 ! A191  A(105,103,106)        108.8649                                         !
 ! A192  A(103,106,107)        109.5325                                         !
 ! A193  A(103,106,108)        109.9242                                         !
 ! A194  A(103,106,109)        109.9121                                         !
 ! A195  A(107,106,108)        107.9009                                         !
 ! A196  A(107,106,109)        109.6171                                         !
 ! A197  A(108,106,109)        109.9236                                         !
 ! A198  A(106,109,110)        115.0252                                         !
 ! A199  A(106,109,117)        125.8595                                         !
 ! A200  A(110,109,117)        111.3819                                         !
 ! A201  A(112,111,113)        115.3159                                         !
 ! A202  A(112,111,117)        118.6504                                         !
 ! A203  A(113,111,117)        118.2669                                         !
 ! A204  A(115,114,116)        118.4344                                         !
 ! A205  A(115,114,117)        119.4048                                         !
 ! A206  A(116,114,117)        113.9119                                         !
 ! A207  A(109,117,111)        120.6974                                         !
 ! A208  A(109,117,114)        118.3326                                         !
 ! A209  A(111,117,114)        120.9698                                         !
 ! D1    D(2,1,5,6)             26.1238                                         !
 ! D2    D(2,1,5,7)            -95.4229                                         !
 ! D3    D(2,1,5,8)            146.3244                                         !
 ! D4    D(3,1,5,6)            -96.0291                                         !
 ! D5    D(3,1,5,7)            142.4241                                         !
 ! D6    D(3,1,5,8)             24.1715                                         !
 ! D7    D(4,1,5,6)            143.462                                          !
 ! D8    D(4,1,5,7)             21.9153                                         !
 ! D9    D(4,1,5,8)            -96.3374                                         !
 ! D10   D(1,5,7,10)           -19.368                                          !
 ! D11   D(1,5,7,17)           163.3657                                         !
 ! D12   D(6,5,7,10)          -137.8693                                         !
 ! D13   D(6,5,7,17)            44.8645                                         !
 ! D14   D(8,5,7,10)            95.472                                          !
 ! D15   D(8,5,7,17)           -81.7942                                         !
 ! D16   D(1,5,8,9)             74.5558                                         !
 ! D17   D(1,5,8,11)          -163.6925                                         !
 ! D18   D(1,5,8,15)           -38.3187                                         !
 ! D19   D(6,5,8,9)           -166.5836                                         !
 ! D20   D(6,5,8,11)           -44.832                                          !
 ! D21   D(6,5,8,15)            80.5418                                         !
 ! D22   D(7,5,8,9)            -38.6111                                         !
 ! D23   D(7,5,8,11)            83.1405                                         !
 ! D24   D(7,5,8,15)          -151.4857                                         !
 ! D25   D(5,7,17,18)            3.695                                          !
 ! D26   D(5,7,17,19)          167.4509                                         !
 ! D27   D(10,7,17,18)        -173.2696                                         !
 ! D28   D(10,7,17,19)          -9.5136                                         !
 ! D29   D(5,8,11,12)          -61.3725                                         !
 ! D30   D(5,8,11,13)           59.4838                                         !
 ! D31   D(5,8,11,14)          179.1067                                         !
 ! D32   D(9,8,11,12)           58.7249                                         !
 ! D33   D(9,8,11,13)          179.5813                                         !
 ! D34   D(9,8,11,14)          -60.7958                                         !
 ! D35   D(15,8,11,12)         176.0068                                         !
 ! D36   D(15,8,11,13)         -63.1369                                         !
 ! D37   D(15,8,11,14)          56.486                                          !
 ! D38   D(5,8,15,16)          -96.4456                                         !
 ! D39   D(9,8,15,16)          149.1534                                         !
 ! D40   D(11,8,15,16)          28.8532                                         !
 ! D41   D(7,17,19,20)         -29.3925                                         !
 ! D42   D(7,17,19,21)        -146.5949                                         !
 ! D43   D(7,17,19,22)          90.6468                                         !
 ! D44   D(18,17,19,20)        135.8688                                         !
 ! D45   D(18,17,19,21)         18.6664                                         !
 ! D46   D(18,17,19,22)       -104.0919                                         !
 ! D47   D(17,19,21,24)        -12.9726                                         !
 ! D48   D(17,19,21,36)        167.8351                                         !
 ! D49   D(20,19,21,24)       -128.4539                                         !
 ! D50   D(20,19,21,36)         52.3537                                         !
 ! D51   D(22,19,21,24)        107.789                                          !
 ! D52   D(22,19,21,36)        -71.4034                                         !
 ! D53   D(17,19,22,23)        -53.3097                                         !
 ! D54   D(17,19,22,25)       -169.5923                                         !
 ! D55   D(17,19,22,28)         63.8683                                         !
 ! D56   D(20,19,22,23)         65.9351                                         !
 ! D57   D(20,19,22,25)        -50.3476                                         !
 ! D58   D(20,19,22,28)       -176.887                                          !
 ! D59   D(21,19,22,23)       -169.7158                                         !
 ! D60   D(21,19,22,25)         74.0015                                         !
 ! D61   D(21,19,22,28)        -52.5378                                         !
 ! D62   D(19,21,36,37)          4.1588                                         !
 ! D63   D(19,21,36,38)        170.1526                                         !
 ! D64   D(24,21,36,37)       -174.9936                                         !
 ! D65   D(24,21,36,38)         -8.9998                                         !
 ! D66   D(19,22,25,26)        -71.9877                                         !
 ! D67   D(19,22,25,27)        174.0001                                         !
 ! D68   D(19,22,25,32)         53.3078                                         !
 ! D69   D(23,22,25,26)        173.4338                                         !
 ! D70   D(23,22,25,27)         59.4216                                         !
 ! D71   D(23,22,25,32)        -61.2706                                         !
 ! D72   D(28,22,25,26)         54.7991                                         !
 ! D73   D(28,22,25,27)        -59.2131                                         !
 ! D74   D(28,22,25,32)       -179.9053                                         !
 ! D75   D(19,22,28,29)         66.3061                                         !
 ! D76   D(19,22,28,30)        -54.4941                                         !
 ! D77   D(19,22,28,31)       -174.4139                                         !
 ! D78   D(23,22,28,29)       -179.3719                                         !
 ! D79   D(23,22,28,30)         59.8279                                         !
 ! D80   D(23,22,28,31)        -60.0919                                         !
 ! D81   D(25,22,28,29)        -61.7998                                         !
 ! D82   D(25,22,28,30)        177.4                                            !
 ! D83   D(25,22,28,31)         57.4802                                         !
 ! D84   D(22,25,32,33)        171.5385                                         !
 ! D85   D(22,25,32,34)         51.5528                                         !
 ! D86   D(22,25,32,35)        -69.3457                                         !
 ! D87   D(26,25,32,33)        -62.8993                                         !
 ! D88   D(26,25,32,34)        177.115                                          !
 ! D89   D(26,25,32,35)         56.2165                                         !
 ! D90   D(27,25,32,33)         52.1185                                         !
 ! D91   D(27,25,32,34)        -67.8672                                         !
 ! D92   D(27,25,32,35)        171.2343                                         !
 ! D93   D(21,36,38,39)        -35.1919                                         !
 ! D94   D(21,36,38,40)       -152.5733                                         !
 ! D95   D(21,36,38,41)         85.7193                                         !
 ! D96   D(37,36,38,39)        131.958                                          !
 ! D97   D(37,36,38,40)         14.5766                                         !
 ! D98   D(37,36,38,41)       -107.1308                                         !
 ! D99   D(36,38,40,45)        -12.3358                                         !
 ! D100  D(36,38,40,46)        167.6576                                         !
 ! D101  D(39,38,40,45)       -128.7722                                         !
 ! D102  D(39,38,40,46)         51.2212                                         !
 ! D103  D(41,38,40,45)        109.6122                                         !
 ! D104  D(41,38,40,46)        -70.3944                                         !
 ! D105  D(36,38,41,42)        179.585                                          !
 ! D106  D(36,38,41,43)         59.397                                          !
 ! D107  D(36,38,41,44)        -60.6549                                         !
 ! D108  D(39,38,41,42)        -60.0347                                         !
 ! D109  D(39,38,41,43)        179.7773                                         !
 ! D110  D(39,38,41,44)         59.7253                                         !
 ! D111  D(40,38,41,42)         61.8476                                         !
 ! D112  D(40,38,41,43)        -58.3404                                         !
 ! D113  D(40,38,41,44)       -178.3923                                         !
 ! D114  D(38,40,46,47)          9.6777                                         !
 ! D115  D(38,40,46,48)        169.0908                                         !
 ! D116  D(45,40,46,47)       -170.3292                                         !
 ! D117  D(45,40,46,48)        -10.9161                                         !
 ! D118  D(40,46,48,49)        -23.992                                          !
 ! D119  D(40,46,48,50)       -142.0029                                         !
 ! D120  D(40,46,48,51)         97.815                                          !
 ! D121  D(47,46,48,49)        136.9733                                         !
 ! D122  D(47,46,48,50)         18.9624                                         !
 ! D123  D(47,46,48,51)       -101.2198                                         !
 ! D124  D(46,48,50,54)        -13.7564                                         !
 ! D125  D(46,48,50,63)        167.9415                                         !
 ! D126  D(49,48,50,54)       -130.4767                                         !
 ! D127  D(49,48,50,63)         51.2212                                         !
 ! D128  D(51,48,50,54)        107.6569                                         !
 ! D129  D(51,48,50,63)        -70.6452                                         !
 ! D130  D(46,48,51,52)        171.7906                                         !
 ! D131  D(46,48,51,53)         55.577                                          !
 ! D132  D(46,48,51,55)        -65.8308                                         !
 ! D133  D(49,48,51,52)        -67.3609                                         !
 ! D134  D(49,48,51,53)        176.4255                                         !
 ! D135  D(49,48,51,55)         55.0177                                         !
 ! D136  D(50,48,51,52)         54.6411                                         !
 ! D137  D(50,48,51,53)        -61.5724                                         !
 ! D138  D(50,48,51,55)        177.0197                                         !
 ! D139  D(48,50,63,64)         -2.1942                                         !
 ! D140  D(48,50,63,65)        175.4782                                         !
 ! D141  D(54,50,63,64)        179.5712                                         !
 ! D142  D(54,50,63,65)         -2.7564                                         !
 ! D143  D(48,51,55,56)        -66.022                                          !
 ! D144  D(48,51,55,57)         51.1871                                         !
 ! D145  D(48,51,55,58)        169.0572                                         !
 ! D146  D(52,51,55,56)         55.9213                                         !
 ! D147  D(52,51,55,57)        173.1304                                         !
 ! D148  D(52,51,55,58)        -68.9995                                         !
 ! D149  D(53,51,55,56)        172.3282                                         !
 ! D150  D(53,51,55,57)        -70.4626                                         !
 ! D151  D(53,51,55,58)         47.4075                                         !
 ! D152  D(51,55,58,59)        139.3545                                         !
 ! D153  D(51,55,58,62)        -43.1723                                         !
 ! D154  D(56,55,58,59)         15.082                                          !
 ! D155  D(56,55,58,62)       -167.4448                                         !
 ! D156  D(57,55,58,59)       -101.0179                                         !
 ! D157  D(57,55,58,62)         76.4552                                         !
 ! D158  D(55,58,59,60)        -13.7981                                         !
 ! D159  D(55,58,59,61)       -175.4148                                         !
 ! D160  D(62,58,59,60)        168.7431                                         !
 ! D161  D(62,58,59,61)          7.1264                                         !
 ! D162  D(50,63,65,66)        -41.2594                                         !
 ! D163  D(50,63,65,67)       -160.3254                                         !
 ! D164  D(50,63,65,68)         78.691                                          !
 ! D165  D(64,63,65,66)        136.6072                                         !
 ! D166  D(64,63,65,67)         17.5411                                         !
 ! D167  D(64,63,65,68)       -103.4425                                         !
 ! D168  D(63,65,67,71)        -25.2263                                         !
 ! D169  D(63,65,67,84)        155.6981                                         !
 ! D170  D(66,65,67,71)       -143.0551                                         !
 ! D171  D(66,65,67,84)         37.8694                                         !
 ! D172  D(68,65,67,71)         95.59                                           !
 ! D173  D(68,65,67,84)        -83.4856                                         !
 ! D174  D(63,65,68,69)         57.0888                                         !
 ! D175  D(63,65,68,70)        -58.3979                                         !
 ! D176  D(63,65,68,72)        179.3943                                         !
 ! D177  D(66,65,68,69)        177.111                                          !
 ! D178  D(66,65,68,70)         61.6242                                         !
 ! D179  D(66,65,68,72)        -60.5836                                         !
 ! D180  D(67,65,68,69)        -60.3917                                         !
 ! D181  D(67,65,68,70)       -175.8785                                         !
 ! D182  D(67,65,68,72)         61.9137                                         !
 ! D183  D(65,67,84,85)          5.8763                                         !
 ! D184  D(65,67,84,86)        170.1935                                         !
 ! D185  D(71,67,84,85)       -173.153                                          !
 ! D186  D(71,67,84,86)         -8.8357                                         !
 ! D187  D(65,68,72,73)       -104.81                                           !
 ! D188  D(65,68,72,75)         70.884                                          !
 ! D189  D(69,68,72,73)         15.9543                                         !
 ! D190  D(69,68,72,75)       -168.3517                                         !
 ! D191  D(70,68,72,73)        135.7043                                         !
 ! D192  D(70,68,72,75)        -48.6017                                         !
 ! D193  D(68,72,73,74)         -3.7378                                         !
 ! D194  D(68,72,73,77)        175.3601                                         !
 ! D195  D(75,72,73,74)       -179.538                                          !
 ! D196  D(75,72,73,77)         -0.4401                                         !
 ! D197  D(68,72,75,76)          4.7266                                         !
 ! D198  D(68,72,75,79)       -174.8622                                         !
 ! D199  D(73,72,75,76)       -179.449                                          !
 ! D200  D(73,72,75,79)          0.9622                                         !
 ! D201  D(72,73,77,78)       -179.5695                                         !
 ! D202  D(72,73,77,83)         -0.7747                                         !
 ! D203  D(74,73,77,78)         -0.4714                                         !
 ! D204  D(74,73,77,83)        178.3234                                         !
 ! D205  D(72,75,79,80)        179.1692                                         !
 ! D206  D(72,75,79,83)         -0.2645                                         !
 ! D207  D(76,75,79,80)         -0.4212                                         !
 ! D208  D(76,75,79,83)       -179.8548                                         !
 ! D209  D(73,77,83,79)          1.4853                                         !
 ! D210  D(73,77,83,81)       -178.8774                                         !
 ! D211  D(78,77,83,79)       -179.6945                                         !
 ! D212  D(78,77,83,81)         -0.0572                                         !
 ! D213  D(75,79,83,77)         -0.9761                                         !
 ! D214  D(75,79,83,81)        179.4043                                         !
 ! D215  D(80,79,83,77)        179.5893                                         !
 ! D216  D(80,79,83,81)         -0.0303                                         !
 ! D217  D(82,81,83,77)        170.3147                                         !
 ! D218  D(82,81,83,79)        -10.0575                                         !
 ! D219  D(67,84,86,87)        -39.8893                                         !
 ! D220  D(67,84,86,88)       -157.5943                                         !
 ! D221  D(67,84,86,89)         80.625                                          !
 ! D222  D(85,84,86,87)        125.5993                                         !
 ! D223  D(85,84,86,88)          7.8943                                         !
 ! D224  D(85,84,86,89)       -113.8864                                         !
 ! D225  D(84,86,88,93)        -14.9515                                         !
 ! D226  D(84,86,88,94)        166.1229                                         !
 ! D227  D(87,86,88,93)       -131.9716                                         !
 ! D228  D(87,86,88,94)         49.1028                                         !
 ! D229  D(89,86,88,93)        107.0734                                         !
 ! D230  D(89,86,88,94)        -71.8523                                         !
 ! D231  D(84,86,89,90)       -179.2624                                         !
 ! D232  D(84,86,89,91)        -59.3498                                         !
 ! D233  D(84,86,89,92)         60.5958                                         !
 ! D234  D(87,86,89,90)        -58.9638                                         !
 ! D235  D(87,86,89,91)         60.9488                                         !
 ! D236  D(87,86,89,92)       -179.1056                                         !
 ! D237  D(88,86,89,90)         62.3683                                         !
 ! D238  D(88,86,89,91)       -177.719                                          !
 ! D239  D(88,86,89,92)        -57.7734                                         !
 ! D240  D(86,88,94,95)         -2.2724                                         !
 ! D241  D(86,88,94,96)        178.5683                                         !
 ! D242  D(93,88,94,95)        178.8432                                         !
 ! D243  D(93,88,94,96)         -0.316                                          !
 ! D244  D(88,94,96,97)        -43.9374                                         !
 ! D245  D(88,94,96,98)       -162.9801                                         !
 ! D246  D(88,94,96,99)         75.417                                          !
 ! D247  D(95,94,96,97)        136.8265                                         !
 ! D248  D(95,94,96,98)         17.7838                                         !
 ! D249  D(95,94,96,99)       -103.819                                          !
 ! D250  D(94,96,98,102)       155.4937                                         !
 ! D251  D(94,96,98,118)       -28.0984                                         !
 ! D252  D(97,96,98,102)        37.1462                                         !
 ! D253  D(97,96,98,118)      -146.446                                          !
 ! D254  D(99,96,98,102)       -85.5985                                         !
 ! D255  D(99,96,98,118)        90.8094                                         !
 ! D256  D(94,96,99,100)        68.55                                           !
 ! D257  D(94,96,99,101)       -45.536                                          !
 ! D258  D(94,96,99,103)      -165.1535                                         !
 ! D259  D(97,96,99,100)      -172.1271                                         !
 ! D260  D(97,96,99,101)        73.7868                                         !
 ! D261  D(97,96,99,103)       -45.8306                                         !
 ! D262  D(98,96,99,100)       -48.8243                                         !
 ! D263  D(98,96,99,101)      -162.9104                                         !
 ! D264  D(98,96,99,103)        77.4721                                         !
 ! D265  D(96,99,103,104)      138.6212                                         !
 ! D266  D(96,99,103,105)       22.5985                                         !
 ! D267  D(96,99,103,106)     -101.6856                                         !
 ! D268  D(100,99,103,104)     -96.3877                                         !
 ! D269  D(100,99,103,105)     147.5896                                         !
 ! D270  D(100,99,103,106)      23.3056                                         !
 ! D271  D(101,99,103,104)      19.8684                                         !
 ! D272  D(101,99,103,105)     -96.1543                                         !
 ! D273  D(101,99,103,106)     139.5617                                         !
 ! D274  D(99,103,106,107)     -53.6453                                         !
 ! D275  D(99,103,106,108)    -172.0368                                         !
 ! D276  D(99,103,106,109)      66.8448                                         !
 ! D277  D(104,103,106,107)     66.8538                                         !
 ! D278  D(104,103,106,108)    -51.5377                                         !
 ! D279  D(104,103,106,109)   -172.6561                                         !
 ! D280  D(105,103,106,107)   -178.7463                                         !
 ! D281  D(105,103,106,108)     62.8622                                         !
 ! D282  D(105,103,106,109)    -58.2563                                         !
 ! D283  D(103,106,109,110)     13.7399                                         !
 ! D284  D(103,106,109,117)   -132.7606                                         !
 ! D285  D(107,106,109,110)    134.1789                                         !
 ! D286  D(107,106,109,117)    -12.3217                                         !
 ! D287  D(108,106,109,110)   -107.3789                                         !
 ! D288  D(108,106,109,117)    106.1206                                         !
 ! D289  D(106,109,117,111)    -22.7396                                         !
 ! D290  D(106,109,117,114)    157.4462                                         !
 ! D291  D(110,109,117,111)   -170.2545                                         !
 ! D292  D(110,109,117,114)      9.9314                                         !
 ! D293  D(112,111,117,109)   -170.6562                                         !
 ! D294  D(112,111,117,114)      9.153                                          !
 ! D295  D(113,111,117,109)    -22.7673                                         !
 ! D296  D(113,111,117,114)    157.0419                                         !
 ! D297  D(115,114,117,109)   -170.1057                                         !
 ! D298  D(115,114,117,111)     10.0807                                         !
 ! D299  D(116,114,117,109)    -22.1361                                         !
 ! D300  D(116,114,117,111)    158.0503                                         !
 --------------------------------------------------------------------------------
 Symmetry turned off by external request.
 Stoichiometry    C36H60N11O11(1+)
 Framework group  C1[X(C36H60N11O11)]
 Deg. of freedom   348
 Full point group                 C1      NOp   1
                          Input orientation:                          
 ---------------------------------------------------------------------
 Center     Atomic      Atomic             Coordinates (Angstroms)
 Number     Number       Type             X           Y           Z
 ---------------------------------------------------------------------
      1          7           0       -8.741638   -4.706568   -7.017062
      2          1           0       -9.206057   -5.531694   -6.629732
      3          1           0       -8.835772   -4.696227   -8.047660
      4          1           0       -9.136651   -3.851676   -6.550262
      5          6           0       -7.277228   -4.635883   -6.691601
      6          1           0       -6.899654   -5.647084   -6.523497
      7          6           0       -7.213839   -3.736812   -5.438534
      8          6           0       -6.575620   -3.969345   -7.914838
      9          1           0       -6.810265   -2.899289   -7.884578
     10          8           0       -8.191114   -3.010518   -5.211971
     11          6           0       -5.069255   -4.179799   -7.916029
     12          1           0       -4.590225   -3.741512   -7.035731
     13          1           0       -4.823734   -5.249587   -7.938748
     14          1           0       -4.639152   -3.705100   -8.802167
     15          8           0       -7.205816   -4.455865   -9.101483
     16          1           0       -6.689382   -5.196706   -9.460152
     17          7           0       -6.084911   -3.786431   -4.747058
     18          1           0       -5.283171   -4.340485   -5.055330
     19          6           0       -5.707359   -2.844536   -3.695905
     20          1           0       -6.170964   -1.880856   -3.921357
     21          6           0       -4.173827   -2.751614   -3.831665
     22          6           0       -6.191390   -3.337715   -2.303110
     23          1           0       -7.265418   -3.523603   -2.442002
     24          8           0       -3.567300   -3.578548   -4.528681
     25          6           0       -6.055462   -2.284806   -1.186509
     26          1           0       -5.001455   -2.142134   -0.920695
     27          1           0       -6.526282   -2.715093   -0.294266
     28          6           0       -5.509824   -4.651268   -1.905175
     29          1           0       -4.435118   -4.509296   -1.745063
     30          1           0       -5.636012   -5.426210   -2.668690
     31          1           0       -5.935956   -5.030634   -0.971414
     32          6           0       -6.707181   -0.930598   -1.483938
     33          1           0       -6.696645   -0.297748   -0.591940
     34          1           0       -7.749521   -1.050994   -1.802106
     35          1           0       -6.185392   -0.371455   -2.270375
     36          7           0       -3.582516   -1.764967   -3.154610
     37          1           0       -4.101091   -1.148395   -2.532375
     38          6           0       -2.141072   -1.646478   -2.995825
     39          1           0       -1.717637   -2.653109   -2.912861
     40          6           0       -1.946149   -0.886811   -1.670334
     41          6           0       -1.485707   -0.914084   -4.175417
     42          1           0       -0.403986   -0.829820   -4.032018
     43          1           0       -1.900558    0.093813   -4.275603
     44          1           0       -1.671855   -1.470691   -5.097594
     45          8           0       -2.903650   -0.330251   -1.121619
     46          7           0       -0.692099   -0.891068   -1.195661
     47          1           0        0.078691   -1.240008   -1.763082
     48          6           0       -0.229550   -0.059313   -0.095486
     49          1           0       -0.884077    0.816519   -0.025383
     50          6           0        1.199012    0.370511   -0.484252
     51          6           0       -0.216396   -0.817699    1.244836
     52          1           0        0.275330   -0.193360    2.000306
     53          1           0        0.389824   -1.722726    1.139156
     54          8           0        1.794373   -0.193038   -1.407915
     55          6           0       -1.610554   -1.215191    1.734561
     56          1           0       -2.205353   -0.328509    1.982680
     57          1           0       -2.151498   -1.734442    0.936316
     58          6           0       -1.510705   -2.184983    2.909329
     59          7           0       -2.403573   -1.974777    3.922595
     60          1           0       -2.937129   -1.121823    3.993563
     61          1           0       -2.320048   -2.552999    4.747833
     62          8           0       -0.716201   -3.114322    2.916159
     63          7           0        1.729153    1.347746    0.265570
     64          1           0        1.219001    1.803392    1.018107
     65          6           0        3.092283    1.823415    0.118616
     66          1           0        3.753312    0.965545   -0.037310
     67          6           0        3.424800    2.535707    1.437293
     68          6           0        3.223474    2.785195   -1.095090
     69          1           0        2.518201    3.610215   -0.947438
     70          1           0        2.898808    2.220547   -1.975386
     71          8           0        2.515866    3.010204    2.127913
     72          6           0        4.625156    3.311801   -1.270520
     73          6           0        4.956010    4.624949   -0.913853
     74          1           0        4.174387    5.293076   -0.560991
     75          6           0        5.652752    2.470280   -1.712138
     76          1           0        5.422470    1.448155   -2.004103
     77          6           0        6.265795    5.087903   -0.983488
     78          1           0        6.519817    6.103761   -0.699863
     79          6           0        6.970862    2.915410   -1.777234
     80          1           0        7.759227    2.243893   -2.110043
     81          8           0        8.559407    4.714185   -1.434011
     82          1           0        9.169845    3.977121   -1.590851
     83          6           0        7.280039    4.224437   -1.402307
     84          7           0        4.727313    2.610042    1.745748
     85          1           0        5.450126    2.296691    1.100837
     86          6           0        5.236525    3.420727    2.838137
     87          1           0        4.686525    4.369132    2.857378
     88          6           0        6.715874    3.685964    2.507784
     89          6           0        5.076919    2.721466    4.195921
     90          1           0        5.454361    3.353837    5.005624
     91          1           0        4.018664    2.515151    4.374031
     92          1           0        5.632711    1.778593    4.202568
     93          8           0        7.299084    3.022293    1.643492
     94          7           0        7.296456    4.651551    3.234032
     95          1           0        6.796251    5.199695    3.929880
     96          6           0        8.693087    5.042925    3.106324
     97          1           0        9.315819    4.146496    3.040946
     98          6           0        9.032754    5.843332    4.386746
     99          6           0        8.858663    5.881775    1.808961
    100          1           0        8.339531    6.838726    1.956410
    101          1           0        8.310808    5.337530    1.038473
    102          8           0       10.268823    5.869432    4.727276
    103          6           0       10.287023    6.115613    1.271925
    104          1           0       10.264715    6.008738    0.182038
    105          1           0       10.968620    5.339795    1.644432
    106          6           0       10.894199    7.493474    1.568256
    107          1           0       10.210929    8.277861    1.220291
    108          1           0       11.842580    7.608250    1.028088
    109          7           0       11.118612    7.640116    3.005879
    110          1           0       11.057075    6.754464    3.555023
    111          7           0       10.601163    9.912741    3.172732
    112          1           0       10.485060   10.716260    3.772758
    113          1           0       11.051283   10.096127    2.288016
    114          7           0       10.620523    8.520721    5.061867
    115          1           0       10.219518    9.264415    5.614611
    116          1           0       10.422701    7.531784    5.339191
    117          6           0       10.778711    8.693292    3.744294
    118          8           0        8.101188    6.449908    4.941386
 ---------------------------------------------------------------------
 Rotational constants (GHZ):           0.1030990           0.0097997           0.0092188
 Standard basis: 6-31G(d) (6D, 7F)
   990 basis functions,  1864 primitive gaussians,   990 cartesian basis functions
   220 alpha electrons      220 beta electrons
       nuclear repulsion energy      8026.6832035403 Hartrees.
 NAtoms=  118 NActive=  118 NUniq=  118 SFac= 1.00D+00 NAtFMM=   60 NAOKFM=T Big=T
 Integral buffers will be    131072 words long.
 Raffenetti 2 integral format.
 Two-electron integral symmetry is turned off.
 Nuclear repulsion after empirical dispersion term =     8026.4294396423 Hartrees.
 One-electron integrals computed using PRISM.
 NBasis=   990 RedAO= T EigKep=  4.17D-04  NBF=   990
 NBsUse=   990 1.00D-06 EigRej= -1.00D+00 NBFU=   990
 Initial guess from the checkpoint file:  "conf-123.chk"
 B after Tr=     0.000000    0.000000    0.000000
         Rot=    1.000000    0.000000    0.000000    0.000000 Ang=   0.00 deg.
 Requested convergence on RMS density matrix=1.00D-08 within 128 cycles.
 Requested convergence on MAX density matrix=1.00D-06.
 Requested convergence on             energy=1.00D-06.
 No special actions if energy rises.
 SCF Done:  E(RB3LYP) =  -2837.90039403     A.U. after    1 cycles
            NFock=  1  Conv=0.74D-08     -V/T= 2.0093
 Hyperfine terms turned off by default for NAtoms > 100.

 **********************************************************************

            Population analysis using the SCF Density.

 **********************************************************************

 Alpha  occ. eigenvalues --  -19.30454 -19.26072 -19.22072 -19.21635 -19.19425
 Alpha  occ. eigenvalues --  -19.17579 -19.15800 -19.15378 -19.14465 -19.12069
 Alpha  occ. eigenvalues --  -19.11452 -14.59283 -14.48807 -14.44833 -14.44613
 Alpha  occ. eigenvalues --  -14.42755 -14.41352 -14.41311 -14.41266 -14.40298
 Alpha  occ. eigenvalues --  -14.39315 -14.37957 -10.43066 -10.40212 -10.39651
 Alpha  occ. eigenvalues --  -10.39049 -10.38498 -10.36325 -10.34564 -10.33595
 Alpha  occ. eigenvalues --  -10.33305 -10.32763 -10.31475 -10.31416 -10.31074
 Alpha  occ. eigenvalues --  -10.29569 -10.29489 -10.28763 -10.28603 -10.28255
 Alpha  occ. eigenvalues --  -10.28091 -10.26620 -10.26127 -10.25790 -10.25732
 Alpha  occ. eigenvalues --  -10.25119 -10.24596 -10.24438 -10.24412 -10.23615
 Alpha  occ. eigenvalues --  -10.23215 -10.23090 -10.23028 -10.22925 -10.22908
 Alpha  occ. eigenvalues --  -10.22412 -10.21609 -10.21184  -1.19137  -1.17522
 Alpha  occ. eigenvalues --   -1.13663  -1.13001  -1.11269  -1.09940  -1.09468
 Alpha  occ. eigenvalues --   -1.08039  -1.07691  -1.07342  -1.06267  -1.05694
 Alpha  occ. eigenvalues --   -1.05009  -1.01690  -0.99657  -0.98012  -0.97757
 Alpha  occ. eigenvalues --   -0.96341  -0.96140  -0.95683  -0.94811  -0.94435
 Alpha  occ. eigenvalues --   -0.93311  -0.90323  -0.89474  -0.86693  -0.85590
 Alpha  occ. eigenvalues --   -0.84509  -0.83607  -0.83199  -0.82242  -0.80529
 Alpha  occ. eigenvalues --   -0.80054  -0.78949  -0.78744  -0.77479  -0.77206
 Alpha  occ. eigenvalues --   -0.76118  -0.74038  -0.73951  -0.72707  -0.72043
 Alpha  occ. eigenvalues --   -0.71610  -0.70862  -0.70433  -0.69592  -0.69480
 Alpha  occ. eigenvalues --   -0.68631  -0.66866  -0.66497  -0.66211  -0.65731
 Alpha  occ. eigenvalues --   -0.65291  -0.65009  -0.64480  -0.64041  -0.63894
 Alpha  occ. eigenvalues --   -0.63076  -0.62479  -0.62416  -0.61667  -0.61232
 Alpha  occ. eigenvalues --   -0.60999  -0.60261  -0.59269  -0.58957  -0.58354
 Alpha  occ. eigenvalues --   -0.58289  -0.58228  -0.57496  -0.57216  -0.56509
 Alpha  occ. eigenvalues --   -0.56309  -0.55671  -0.55081  -0.54708  -0.54384
 Alpha  occ. eigenvalues --   -0.53946  -0.53899  -0.53176  -0.53042  -0.52654
 Alpha  occ. eigenvalues --   -0.51848  -0.51747  -0.51630  -0.51367  -0.51205
 Alpha  occ. eigenvalues --   -0.50906  -0.50807  -0.50734  -0.50604  -0.50404
 Alpha  occ. eigenvalues --   -0.50179  -0.49898  -0.49394  -0.48690  -0.48616
 Alpha  occ. eigenvalues --   -0.48035  -0.47947  -0.47721  -0.47666  -0.47615
 Alpha  occ. eigenvalues --   -0.47485  -0.47379  -0.47148  -0.46371  -0.46132
 Alpha  occ. eigenvalues --   -0.46051  -0.45849  -0.45134  -0.45014  -0.44746
 Alpha  occ. eigenvalues --   -0.44716  -0.44702  -0.44283  -0.44243  -0.43930
 Alpha  occ. eigenvalues --   -0.43797  -0.43737  -0.43414  -0.43133  -0.42856
 Alpha  occ. eigenvalues --   -0.42246  -0.42180  -0.41947  -0.41794  -0.41475
 Alpha  occ. eigenvalues --   -0.41032  -0.40956  -0.40714  -0.40415  -0.40105
 Alpha  occ. eigenvalues --   -0.40002  -0.39555  -0.39461  -0.39350  -0.39079
 Alpha  occ. eigenvalues --   -0.38066  -0.38005  -0.37760  -0.37590  -0.36735
 Alpha  occ. eigenvalues --   -0.36589  -0.35759  -0.35066  -0.34936  -0.33546
 Alpha  occ. eigenvalues --   -0.32801  -0.31802  -0.31685  -0.31276  -0.31116
 Alpha  occ. eigenvalues --   -0.29994  -0.29535  -0.29191  -0.29006  -0.28555
 Alpha  occ. eigenvalues --   -0.28505  -0.27413  -0.26200  -0.25649  -0.25469
 Alpha virt. eigenvalues --   -0.12035  -0.10111  -0.07353  -0.05384  -0.05095
 Alpha virt. eigenvalues --   -0.04460  -0.04432  -0.03972  -0.03799  -0.02623
 Alpha virt. eigenvalues --   -0.02536  -0.01796  -0.01314  -0.01174  -0.00715
 Alpha virt. eigenvalues --   -0.00109  -0.00095   0.00710   0.01125   0.01571
 Alpha virt. eigenvalues --    0.02014   0.02315   0.02616   0.02898   0.03030
 Alpha virt. eigenvalues --    0.03538   0.03568   0.03971   0.04270   0.04398
 Alpha virt. eigenvalues --    0.05118   0.05450   0.06120   0.06149   0.06484
 Alpha virt. eigenvalues --    0.06495   0.06833   0.06974   0.07281   0.07521
 Alpha virt. eigenvalues --    0.07690   0.07946   0.07974   0.08285   0.08608
 Alpha virt. eigenvalues --    0.08879   0.09179   0.09256   0.09368   0.09963
 Alpha virt. eigenvalues --    0.10324   0.10415   0.10775   0.10871   0.11046
 Alpha virt. eigenvalues --    0.11107   0.11260   0.11277   0.11467   0.11797
 Alpha virt. eigenvalues --    0.11971   0.12181   0.12402   0.12514   0.12932
 Alpha virt. eigenvalues --    0.12988   0.13205   0.13528   0.13877   0.13940
 Alpha virt. eigenvalues --    0.14110   0.14371   0.14738   0.14887   0.14975
 Alpha virt. eigenvalues --    0.15220   0.15582   0.15650   0.15898   0.16070
 Alpha virt. eigenvalues --    0.16316   0.16710   0.17182   0.17475   0.17558
 Alpha virt. eigenvalues --    0.17973   0.18613   0.18687   0.19173   0.19277
 Alpha virt. eigenvalues --    0.19640   0.19765   0.20142   0.20314   0.20410
 Alpha virt. eigenvalues --    0.20648   0.21113   0.21505   0.21714   0.22521
 Alpha virt. eigenvalues --    0.23005   0.23251   0.24073   0.25595   0.25959
 Alpha virt. eigenvalues --    0.26386   0.27569   0.27744   0.28582   0.28832
 Alpha virt. eigenvalues --    0.29880   0.30045   0.30275   0.30603   0.30896
 Alpha virt. eigenvalues --    0.32222   0.32299   0.32637   0.32885   0.33190
 Alpha virt. eigenvalues --    0.34162   0.34674   0.35577   0.35667   0.35806
 Alpha virt. eigenvalues --    0.36924   0.38361   0.39013   0.39751   0.40432
 Alpha virt. eigenvalues --    0.41069   0.41359   0.41962   0.42032   0.42411
 Alpha virt. eigenvalues --    0.43451   0.43923   0.44568   0.44709   0.45357
 Alpha virt. eigenvalues --    0.45603   0.45754   0.45837   0.46252   0.46453
 Alpha virt. eigenvalues --    0.46520   0.47278   0.47652   0.47963   0.48081
 Alpha virt. eigenvalues --    0.48242   0.48837   0.48897   0.49126   0.49275
 Alpha virt. eigenvalues --    0.49755   0.49994   0.50049   0.50460   0.50902
 Alpha virt. eigenvalues --    0.51096   0.51732   0.51943   0.52091   0.52765
 Alpha virt. eigenvalues --    0.52895   0.53057   0.53259   0.53475   0.53900
 Alpha virt. eigenvalues --    0.54024   0.54351   0.55006   0.55180   0.55437
 Alpha virt. eigenvalues --    0.55647   0.55833   0.56159   0.56495   0.56814
 Alpha virt. eigenvalues --    0.57057   0.57360   0.57599   0.57665   0.57844
 Alpha virt. eigenvalues --    0.58219   0.58623   0.58774   0.59059   0.59484
 Alpha virt. eigenvalues --    0.59752   0.59945   0.60263   0.60750   0.61061
 Alpha virt. eigenvalues --    0.61490   0.61505   0.61796   0.61886   0.62148
 Alpha virt. eigenvalues --    0.62233   0.62606   0.63135   0.63289   0.63337
 Alpha virt. eigenvalues --    0.63522   0.64364   0.64450   0.64519   0.64756
 Alpha virt. eigenvalues --    0.65700   0.65982   0.66177   0.66220   0.66544
 Alpha virt. eigenvalues --    0.66942   0.67682   0.67834   0.68052   0.68278
 Alpha virt. eigenvalues --    0.68834   0.68997   0.69331   0.70282   0.70371
 Alpha virt. eigenvalues --    0.70472   0.70741   0.71026   0.71486   0.71808
 Alpha virt. eigenvalues --    0.72335   0.72778   0.73340   0.73559   0.73693
 Alpha virt. eigenvalues --    0.74172   0.74390   0.74745   0.75097   0.75191
 Alpha virt. eigenvalues --    0.75512   0.75673   0.75927   0.76359   0.76790
 Alpha virt. eigenvalues --    0.77020   0.77207   0.77521   0.77716   0.77781
[...]
 Alpha virt. eigenvalues --    0.85927   0.86352   0.86624   0.86655   0.86911
 Alpha virt. eigenvalues --    0.87068   0.87316   0.87547   0.87677   0.87914
 Alpha virt. eigenvalues --    0.88202   0.88319   0.88619   0.88726   0.88889
 Alpha virt. eigenvalues --    0.89114   0.89192   0.89817   0.90313   0.90551
 Alpha virt. eigenvalues --    0.90810   0.91182   0.91354   0.92112   0.92293
 Alpha virt. eigenvalues --    0.92506   0.92878   0.93088   0.93510   0.93934
 Alpha virt. eigenvalues --    0.94035   0.94237   0.94427   0.94854   0.95136
 Alpha virt. eigenvalues --    0.95883   0.96102   0.96420   0.97094   0.97291
 Alpha virt. eigenvalues --    0.97464   0.98007   0.98089   0.98527   0.98952
 Alpha virt. eigenvalues --    1.00345   1.00474   1.00595   1.00888   1.01596
 Alpha virt. eigenvalues --    1.02375   1.02736   1.03256   1.04082   1.04735
 Alpha virt. eigenvalues --    1.05110   1.05438   1.06304   1.06461   1.06954
 Alpha virt. eigenvalues --    1.07826   1.08370   1.08423   1.08672   1.09729
 Alpha virt. eigenvalues --    1.10593   1.10949   1.11256   1.11772   1.12070
 Alpha virt. eigenvalues --    1.12223   1.13231   1.13353   1.14091   1.14307
 Alpha virt. eigenvalues --    1.14906   1.15425   1.15987   1.16139   1.17277
 Alpha virt. eigenvalues --    1.17831   1.18342   1.19109   1.19468   1.19844
 Alpha virt. eigenvalues --    1.20173   1.20312   1.21726   1.22774   1.23551
 Alpha virt. eigenvalues --    1.23744   1.24342   1.25390   1.25566   1.26194
 Alpha virt. eigenvalues --    1.26874   1.27196   1.28048   1.28321   1.28736
 Alpha virt. eigenvalues --    1.29193   1.29782   1.31112   1.31463   1.31858
 Alpha virt. eigenvalues --    1.32407   1.32726   1.33344   1.33545   1.33997
 Alpha virt. eigenvalues --    1.35187   1.35853   1.36001   1.36270   1.37045
 Alpha virt. eigenvalues --    1.37669   1.37688   1.38583   1.38882   1.39267
 Alpha virt. eigenvalues --    1.39851   1.40344   1.40701   1.41751   1.42183
 Alpha virt. eigenvalues --    1.42813   1.43368   1.44052   1.44358   1.45078
 Alpha virt. eigenvalues --    1.45256   1.45723   1.46520   1.46949   1.47446
 Alpha virt. eigenvalues --    1.47735   1.48097   1.48575   1.48871   1.50221
 Alpha virt. eigenvalues --    1.51247   1.51849   1.52029   1.53085   1.53861
 Alpha virt. eigenvalues --    1.54167   1.54703   1.55519   1.55677   1.57271
 Alpha virt. eigenvalues --    1.57683   1.58269   1.58692   1.58887   1.60439
 Alpha virt. eigenvalues --    1.60808   1.62701   1.63283   1.63499   1.63814
 Alpha virt. eigenvalues --    1.64261   1.64878   1.65207   1.65752   1.66585
 Alpha virt. eigenvalues --    1.66908   1.67225   1.67475   1.67848   1.68833
 Alpha virt. eigenvalues --    1.69043   1.69494   1.69643   1.69946   1.70434
 Alpha virt. eigenvalues --    1.70506   1.70766   1.70979   1.71402   1.71567
 Alpha virt. eigenvalues --    1.72015   1.72138   1.72770   1.72928   1.73455
 Alpha virt. eigenvalues --    1.74035   1.74565   1.74699   1.74815   1.75186
 Alpha virt. eigenvalues --    1.75288   1.75850   1.76313   1.76651   1.77246
 Alpha virt. eigenvalues --    1.77392   1.77722   1.77885   1.78160   1.78615
 Alpha virt. eigenvalues --    1.79062   1.79470   1.79676   1.80238   1.80905
 Alpha virt. eigenvalues --    1.81157   1.81396   1.81631   1.82022   1.82570
 Alpha virt. eigenvalues --    1.82906   1.83398   1.83586   1.83740   1.84208
 Alpha virt. eigenvalues --    1.85101   1.85625   1.85692   1.85866   1.86049
 Alpha virt. eigenvalues --    1.86474   1.86536   1.87042   1.87337   1.87568
 Alpha virt. eigenvalues --    1.87733   1.88504   1.88849   1.89300   1.89398
 Alpha virt. eigenvalues --    1.90035   1.90531   1.91164   1.91325   1.91738
 Alpha virt. eigenvalues --    1.91939   1.92151   1.92503   1.93191   1.93592
 Alpha virt. eigenvalues --    1.93958   1.94037   1.94295   1.94794   1.95315
 Alpha virt. eigenvalues --    1.95655   1.95766   1.96352   1.96949   1.97357
 Alpha virt. eigenvalues --    1.97572   1.98077   1.98171   1.98302   1.98895
 Alpha virt. eigenvalues --    1.99344   1.99913   2.00157   2.00259   2.01295
 Alpha virt. eigenvalues --    2.02160   2.02778   2.03443   2.03854   2.04078
 Alpha virt. eigenvalues --    2.04447   2.05762   2.06036   2.06410   2.06783
 Alpha virt. eigenvalues --    2.06855   2.07161   2.07351   2.07880   2.08147
 Alpha virt. eigenvalues --    2.08956   2.09259   2.09677   2.09716   2.10310
 Alpha virt. eigenvalues --    2.11100   2.11239   2.11590   2.12890   2.13055
 Alpha virt. eigenvalues --    2.13484   2.14651   2.14820   2.15191   2.15495
 Alpha virt. eigenvalues --    2.15965   2.16486   2.16870   2.17745   2.18500
 Alpha virt. eigenvalues --    2.19653   2.19892   2.20192   2.20721   2.21396
 Alpha virt. eigenvalues --    2.21894   2.21912   2.22737   2.23199   2.23814
 Alpha virt. eigenvalues --    2.24545   2.24958   2.25469   2.25793   2.26804
 Alpha virt. eigenvalues --    2.27190   2.27781   2.27807   2.28383   2.28811
 Alpha virt. eigenvalues --    2.29555   2.29973   2.30171   2.31666   2.32376
 Alpha virt. eigenvalues --    2.32629   2.32872   2.33075   2.33539   2.33794
 Alpha virt. eigenvalues --    2.34754   2.35386   2.35962   2.36126   2.36244
 Alpha virt. eigenvalues --    2.37106   2.38148   2.38500   2.38579   2.39128
 Alpha virt. eigenvalues --    2.40063   2.40559   2.40849   2.42142   2.42288
 Alpha virt. eigenvalues --    2.42627   2.43185   2.44134   2.44935   2.45802
 Alpha virt. eigenvalues --    2.46009   2.46180   2.47043   2.47597   2.47837
 Alpha virt. eigenvalues --    2.49001   2.49188   2.51259   2.51505   2.51808
 Alpha virt. eigenvalues --    2.52793   2.53253   2.54574   2.55376   2.55581
 Alpha virt. eigenvalues --    2.56643   2.57237   2.57355   2.57611   2.58320
 Alpha virt. eigenvalues --    2.58477   2.59349   2.59653   2.60667   2.61397
 Alpha virt. eigenvalues --    2.61937   2.62579   2.63244   2.64042   2.64167
 Alpha virt. eigenvalues --    2.65089   2.65431   2.66467   2.66677   2.66985
 Alpha virt. eigenvalues --    2.68278   2.68908   2.69422   2.70644   2.71042
 Alpha virt. eigenvalues --    2.71384   2.71560   2.73773   2.74718   2.75056
 Alpha virt. eigenvalues --    2.75286   2.76507   2.77895   2.79640   2.80973
 Alpha virt. eigenvalues --    2.81836   2.82433   2.83590   2.84020   2.85535
 Alpha virt. eigenvalues --    2.86020   2.87027   2.87143   2.88469   2.90300
 Alpha virt. eigenvalues --    2.91126   2.92788   2.93622   2.94242   2.94690
 Alpha virt. eigenvalues --    2.95706   2.96055   2.96445   2.97297   2.98825
 Alpha virt. eigenvalues --    3.02316   3.03099   3.04026   3.04401   3.08133
 Alpha virt. eigenvalues --    3.09422   3.12149   3.14127   3.16334   3.18645
 Alpha virt. eigenvalues --    3.20168   3.38715   3.65102   3.71603   3.73612
 Alpha virt. eigenvalues --    3.75428   3.84373   3.92649   3.93526   3.95276
 Alpha virt. eigenvalues --    3.97758   3.98578   3.99153   4.01188   4.02022
 Alpha virt. eigenvalues --    4.02720   4.03136   4.03722   4.04330   4.06257
 Alpha virt. eigenvalues --    4.08738   4.09663   4.10040   4.10181   4.12732
 Alpha virt. eigenvalues --    4.12894   4.13176   4.14115   4.16776   4.18776
 Alpha virt. eigenvalues --    4.19550   4.20645   4.22328   4.25201   4.25700
 Alpha virt. eigenvalues --    4.27307   4.27633   4.29496   4.32298   4.33000
 Alpha virt. eigenvalues --    4.34573   4.35142   4.37604   4.37989   4.40353
 Alpha virt. eigenvalues --    4.42440   4.43501   4.44919   4.46083   4.46881
 Alpha virt. eigenvalues --    4.48677   4.51023   4.53799   4.55106   4.58626
 Alpha virt. eigenvalues --    4.59381   4.60748   4.64318   4.68791   4.73309
          Condensed to atoms (all electrons):
 Mulliken charges:
               1
     1  N   -0.746691
     2  H    0.414309
     3  H    0.426135
     4  H    0.426427
     5  C   -0.141135
     6  H    0.202953
     7  C    0.646034
     8  C    0.128623
     9  H    0.192993
    10  O   -0.538222
    11  C   -0.514135
    12  H    0.208296
    13  H    0.164357
    14  H    0.205564
    15  O   -0.629690
    16  H    0.424055
    17  N   -0.600095
    18  H    0.374241
    19  C   -0.085960
    20  H    0.195140
    21  C    0.631632
    22  C   -0.073867
    23  H    0.149353
    24  O   -0.564447
    25  C   -0.286034
    26  H    0.161962
    27  H    0.155381
    28  C   -0.463858
    29  H    0.167072
    30  H    0.136618
    31  H    0.168236
    32  C   -0.462759
    33  H    0.173229
    34  H    0.155319
    35  H    0.142019
    36  N   -0.621458
    37  H    0.385346
    38  C   -0.054473
    39  H    0.190074
    40  C    0.622292
    41  C   -0.452259
    42  H    0.176298
    43  H    0.165022
    44  H    0.175700
    45  O   -0.554101
    46  N   -0.601522
    47  H    0.363038
    48  C   -0.074182
    49  H    0.177821
    50  C    0.630529
    51  C   -0.264168
    52  H    0.157456
    53  H    0.187641
    54  O   -0.553991
    55  C   -0.353925
    56  H    0.139852
    57  H    0.182558
    58  C    0.592042
    59  N   -0.746328
    60  H    0.335976
    61  H    0.345030
    62  O   -0.504116
    63  N   -0.619170
    64  H    0.356948
    65  C   -0.036711
    66  H    0.177354
    67  C    0.615940
    68  C   -0.352337
    69  H    0.152265
    70  H    0.176017
    71  O   -0.561399
    72  C    0.151017
    73  C   -0.186976
    74  H    0.132540
    75  C   -0.209999
    76  H    0.138915
    77  C   -0.160935
    78  H    0.139394
    79  C   -0.170283
    80  H    0.126949
    81  O   -0.652662
    82  H    0.413480
    83  C    0.378819
    84  N   -0.612158
    85  H    0.370485
    86  C   -0.037679
    87  H    0.168985
    88  C    0.627264
    89  C   -0.447384
    90  H    0.159639
    91  H    0.178373
    92  H    0.160134
    93  O   -0.563216
    94  N   -0.619135
    95  H    0.351542
    96  C   -0.022429
    97  H    0.162795
    98  C    0.585585
    99  C   -0.292505
   100  H    0.132867
   101  H    0.197653
   102  O   -0.647782
   103  C   -0.307605
   104  H    0.164144
   105  H    0.162941
   106  C   -0.149996
   107  H    0.155904
   108  H    0.160332
   109  N   -0.600946
   110  H    0.405164
   111  N   -0.753247
   112  H    0.358828
   113  H    0.365001
   114  N   -0.756191
   115  H    0.343662
   116  H    0.412810
   117  C    0.751978
   118  O   -0.564186
 Sum of Mulliken charges =   1.00000
 Mulliken charges with hydrogens summed into heavy atoms:
               1
     1  N    0.520180
     5  C    0.061819
     7  C    0.646034
     8  C    0.321616
    10  O   -0.538222
    11  C    0.064082
    15  O   -0.205636
    17  N   -0.225854
    19  C    0.109180
    21  C    0.631632
    22  C    0.075486
    24  O   -0.564447
    25  C    0.031310
    28  C    0.008068
    32  C    0.007808
    36  N   -0.236112
    38  C    0.135601
    40  C    0.622292
    41  C    0.064761
    45  O   -0.554101
    46  N   -0.238484
    48  C    0.103639
    50  C    0.630529
    51  C    0.080929
    54  O   -0.553991
    55  C   -0.031515
    58  C    0.592042
    59  N   -0.065322
    62  O   -0.504116
    63  N   -0.262222
    65  C    0.140644
    67  C    0.615940
    68  C   -0.024055
    71  O   -0.561399
    72  C    0.151017
    73  C   -0.054436
    75  C   -0.071084
    77  C   -0.021541
    79  C   -0.043334
    81  O   -0.239182
    83  C    0.378819
    84  N   -0.241673
    86  C    0.131306
    88  C    0.627264
    89  C    0.050762
    93  O   -0.563216
    94  N   -0.267593
    96  C    0.140366
    98  C    0.585585
    99  C    0.038015
   102  O   -0.647782
   103  C    0.019480
   106  C    0.166240
   109  N   -0.195781
   111  N   -0.029418
   114  N    0.000280
   117  C    0.751978
   118  O   -0.564186
 Electronic spatial extent (au):  <R**2>=         113893.1120
 Charge=              1.0000 electrons
 Dipole moment (field-independent basis, Debye):
    X=            -19.8090    Y=             -5.0822    Z=            -25.8784  Tot=             32.9836
 Quadrupole moment (field-independent basis, Debye-Ang):
   XX=             27.0465   YY=           -103.2689   ZZ=           -148.4518
   XY=            295.3811   XZ=            184.9984   YZ=            162.0699
 Traceless Quadrupole moment (field-independent basis, Debye-Ang):
   XX=            101.9379   YY=            -28.3775   ZZ=            -73.5604
   XY=            295.3811   XZ=            184.9984   YZ=            162.0699
 Octapole moment (field-independent basis, Debye-Ang**2):
  XXX=          -1842.5982  YYY=             91.0556  ZZZ=           -895.3322  XYY=            399.4713
  XXY=             53.2558  XXZ=          -1319.5336  XZZ=          -2081.6032  YZZ=          -1356.8409
  YYZ=           -100.8254  XYZ=           -708.2334
 Hexadecapole moment (field-independent basis, Debye-Ang**3):
 XXXX=         -49188.0856 YYYY=         -14362.9806 ZZZZ=         -15393.4636 XXXY=           2338.0301
 XXXZ=          -2512.0293 YYYX=          -2580.8297 YYYZ=           -128.8153 ZZZX=          -5753.5132
 ZZZY=          -2098.1997 XXYY=           5611.0998 XXZZ=          -7322.6153 YYZZ=          -3630.8384
 XXYZ=           8667.4372 YYXZ=           5506.0145 ZZXY=           -212.4447
 N-N= 8.026429439642D+03 E-N=-2.264027822092D+04  KE= 2.811790208424D+03
 Unable to Open any file for archive entry.
 1\1\GINC-QML-003\SP\RB3LYP\6-31G(d)\C36H60N11O11(1+)\KENGMITH\17-Jul-2
 022\0\\# B3LYP/6-31G* empiricaldispersion=gd3bj guess=read geom=check 
 nosymm integral(ultrafinegrid)\\Candidate Structure: Conf:123 Charge c
 alc in gas phase\\1,1\N,0,-8.7416375972,-4.7065677865,-7.0170617576\H,
 0,-9.2060573944,-5.5316942383,-6.6297316539\H,0,-8.8357716655,-4.69622
 68465,-8.0476598522\H,0,-9.1366508832,-3.8516762839,-6.5502622939\C,0,
 -7.2772276719,-4.6358825182,-6.6916011447\H,0,-6.8996544366,-5.6470841
 164,-6.5234971297\C,0,-7.2138388956,-3.7368120267,-5.4385339073\C,0,-6
 .5756201589,-3.9693447195,-7.9148384363\H,0,-6.8102650252,-2.899289072
 1,-7.8845776621\O,0,-8.1911137096,-3.010517892,-5.211971384\C,0,-5.069
 2546773,-4.1797987534,-7.9160292758\H,0,-4.5902251517,-3.7415115955,-7
 .0357309345\H,0,-4.8237337697,-5.2495871236,-7.9387477091\H,0,-4.63915
 20245,-3.7050995361,-8.8021666172\O,0,-7.2058158886,-4.4558648886,-9.1
 014827983\H,0,-6.6893821676,-5.1967062405,-9.4601517873\N,0,-6.0849109
 611,-3.7864307701,-4.7470575737\H,0,-5.2831709126,-4.3404847716,-5.055
 3304913\C,0,-5.7073588862,-2.8445362507,-3.6959053266\H,0,-6.170963877
 4,-1.8808560657,-3.9213566829\C,0,-4.1738265255,-2.7516138677,-3.83166
 5472\C,0,-6.1913901379,-3.3377145709,-2.3031100108\H,0,-7.2654177627,-
 3.5236029785,-2.4420016231\O,0,-3.5672998605,-3.5785484067,-4.52868114
 81\C,0,-6.0554619481,-2.2848063835,-1.1865085791\H,0,-5.0014553557,-2.
 14213415,-0.9206946336\H,0,-6.5262821963,-2.7150934267,-0.2942661025\C
 ,0,-5.5098242779,-4.6512681115,-1.9051746334\H,0,-4.4351183305,-4.5092
 960884,-1.7450627077\H,0,-5.6360120441,-5.4262101553,-2.6686903264\H,0
 ,-5.9359559149,-5.0306339354,-0.971413699\C,0,-6.7071811167,-0.9305976
 495,-1.4839375517\H,0,-6.6966450217,-0.2977477886,-0.5919404274\H,0,-7
 .7495210736,-1.0509936353,-1.8021061092\H,0,-6.185392071,-0.3714547058
 ,-2.2703745324\N,0,-3.5825156585,-1.7649670603,-3.1546097573\H,0,-4.10
 10912406,-1.1483948108,-2.5323745542\C,0,-2.1410721331,-1.6464781111,-
 2.9958252422\H,0,-1.7176373857,-2.6531085795,-2.9128605211\C,0,-1.9461
 486037,-0.886810924,-1.6703341659\C,0,-1.4857071939,-0.914084445,-4.17
 5416879\H,0,-0.4039858988,-0.8298201477,-4.0320175933\H,0,-1.900558000
 4,0.0938129865,-4.2756025927\H,0,-1.6718548915,-1.4706910661,-5.097593
 8138\O,0,-2.9036496773,-0.330250828,-1.1216185044\N,0,-0.6920993203,-0
 .8910676276,-1.1956611067\H,0,0.0786911574,-1.2400077003,-1.7630822285
 \C,0,-0.2295500984,-0.059313084,-0.0954864409\H,0,-0.8840770989,0.8165
 185967,-0.0253831061\C,0,1.1990117814,0.3705110598,-0.48425215\C,0,-0.
 2163961919,-0.8176994805,1.244836029\H,0,0.2753297346,-0.1933603814,2.
 0003063261\H,0,0.3898239573,-1.7227257268,1.1391560131\O,0,1.794373182
 5,-0.1930380234,-1.407915161\C,0,-1.6105544943,-1.2151911421,1.7345606
 911\H,0,-2.2053530319,-0.3285087585,1.9826798044\H,0,-2.151497728,-1.7
 344418011,0.9363159805\C,0,-1.5107045794,-2.184982885,2.9093294455\N,0
 ,-2.4035733096,-1.9747772306,3.922594939\H,0,-2.9371293711,-1.12182305
 7,3.9935633832\H,0,-2.3200481507,-2.5529989384,4.7478334812\O,0,-0.716
 200782,-3.1143219334,2.9161594464\N,0,1.7291530378,1.3477463838,0.2655
 701004\H,0,1.2190014073,1.8033922651,1.0181072852\C,0,3.0922830161,1.8
 234152174,0.1186159667\H,0,3.7533118227,0.9655449779,-0.0373098006\C,0
 ,3.4248003093,2.5357067132,1.4372934004\C,0,3.2234738554,2.7851947157,
 -1.0950900436\H,0,2.5182013206,3.6102150366,-0.9474382519\H,0,2.898807
 8941,2.2205467106,-1.9753856628\O,0,2.5158658183,3.0102044509,2.127913
 0956\C,0,4.6251555069,3.3118014471,-1.2705204081\C,0,4.9560104708,4.62
 49486057,-0.9138531903\H,0,4.1743865281,5.2930764046,-0.5609912912\C,0
 ,5.6527519592,2.4702797862,-1.7121377768\H,0,5.4224702213,1.4481549237
 ,-2.0041025003\C,0,6.2657953967,5.0879025054,-0.9834878448\H,0,6.51981
 72872,6.103761327,-0.6998626995\C,0,6.9708620147,2.9154100241,-1.77723
 43632\H,0,7.7592268571,2.2438933966,-2.1100429643\O,0,8.5594068406,4.7
 141845907,-1.4340109045\H,0,9.1698451409,3.9771213004,-1.590851398\C,0
 ,7.2800392062,4.2244366554,-1.4023071562\N,0,4.7273133604,2.6100417865
 ,1.7457478552\H,0,5.4501259043,2.2966905758,1.1008368746\C,0,5.2365252
 808,3.4207272927,2.8381369281\H,0,4.686525047,4.3691324244,2.857377933
 4\C,0,6.7158736428,3.685964244,2.5077843548\C,0,5.0769190668,2.7214663
 082,4.1959208218\H,0,5.4543611506,3.3538369338,5.0056242965\H,0,4.0186
 643988,2.5151509187,4.3740305271\H,0,5.6327107499,1.7785929961,4.20256
 81345\O,0,7.2990838092,3.0222931622,1.6434923618\N,0,7.2964563184,4.65
 15507486,3.2340323849\H,0,6.7962505975,5.1996951242,3.9298796582\C,0,8
 .6930874954,5.0429245913,3.1063239194\H,0,9.315819352,4.1464962544,3.0
 40946387\C,0,9.0327538504,5.8433320966,4.3867456292\C,0,8.8586629059,5
 .8817754799,1.8089607319\H,0,8.3395314252,6.8387261649,1.956409767\H,0
 ,8.3108080293,5.3375298859,1.0384729851\O,0,10.2688226064,5.8694322089
 ,4.7272763821\C,0,10.2870232128,6.1156127714,1.2719249841\H,0,10.26471
 54729,6.0087375154,0.1820383739\H,0,10.9686203363,5.3397949732,1.64443
 16381\C,0,10.8941990282,7.493473658,1.5682561746\H,0,10.2109289791,8.2
 778606565,1.2202905807\H,0,11.8425799815,7.6082504415,1.0280881075\N,0
 ,11.1186123527,7.6401156784,3.0058785521\H,0,11.0570746429,6.754464074
 3,3.5550231161\N,0,10.601162809,9.9127406307,3.1727322245\H,0,10.48506
 00467,10.7162597002,3.7727578759\H,0,11.051282966,10.0961267712,2.2880
 162058\N,0,10.6205232649,8.5207213112,5.0618665416\H,0,10.2195180129,9
 .2644152783,5.6146107847\H,0,10.4227007101,7.5317840515,5.3391911765\C
 ,0,10.7787108517,8.6932917838,3.7442937249\O,0,8.1011878686,6.44990807
 89,4.9413858962\\Version=ES64L-G16RevC.01\HF=-2837.900394\RMSD=7.424e-
 09\Dipole=-10.6452445,-4.1214461,-9.1353171\Quadrupole=75.7883382,-21.
 0979732,-54.690365,219.6086371,137.5417766,120.4950332\PG=C01 [X(C36H6
 0N11O11)]\\@
 The archive entry for this job was punched.


 LET US LEARN TO DREAM, GENTLEMEN, THEN PERHAPS WE SHALL
 DISCOVER THE TRUTH;  BUT LET US BEWARE OF PUBLISHING
 OUR DREAMS ABROAD BEFORE THEY HAVE BEEN SCRUTINIZED
 BY OUR VIGILANT INTELLECT ... LET US ALWAYS ALLOW
 THE FRUIT TO HANG UNTIL IT IS RIPE.  UNRIPE FRUIT
 BRINGS EVEN THE GROWER BUT LITTLE PROFIT; IT DAMAGES
 THE HEALTH OF THOSE WHO CONSUME IT; IT ENDANGERS
 PARTICULARLY THE YOUTH WHO CANNOT YET DISTINGUISH
 BETWEEN RIPE AND UNRIPE FRUIT.

                                  -- KEKULE, 1890
 Job cpu time:       0 days  0 hours  4 minutes 32.3 seconds.
 Elapsed time:       0 days  0 hours  1 minutes  9.0 seconds.
 File lengths (MBytes):  RWF=    624 Int=      0 D2E=      0 Chk=     96 Scr=     16
 Normal termination of Gaussian 16 at Sun Jul 17 00:10:12 2022.
