 Entering Gaussian System, Link 0=/opt/software/Gaussian/g16-AVX-C.01/g16/g16
 Input=charge-conf-472.com
 Output=charge-conf-472.log
 Initial command:
 /opt/software/Gaussian/g16-AVX-C.01/g16/l1.exe "/mnt/gs18/scratch/users/kengmith/Gau-26483.inp" -scrdir="/mnt/gs18/scratch/users/kengmith/"
 Entering Link 1 = /opt/software/Gaussian/g16-AVX-C.01/g16/l1.exe PID=     26516.
  
 Copyright (c) 1988-2019, Gaussian, Inc.  All Rights Reserved.
  
 This is part of the Gaussian(R) 16 program.  It is based on
 the Gaussian(R) 09 system (copyright 2009, Gaussian, Inc.),
 the Gaussian(R) 03 system (copyright 2003, Gaussian, Inc.),
 the Gaussian(R) 98 system (copyright 1998, Gaussian, Inc.),
 the Gaussian(R) 94 system (copyright 1995, Gaussian, Inc.),
 the Gaussian 92(TM) system (copyright 1992, Gaussian, Inc.),
 the Gaussian 90(TM) system (copyright 1990, Gaussian, Inc.),
 the Gaussian 88(TM) system (copyright 1988, Gaussian, Inc.),
 the Gaussian 86(TM) system (copyright 1986, Carnegie Mellon
 University), and the Gaussian 82(TM) system (copyright 1983,
 Carnegie Mellon University). Gaussian is a federally registered
 trademark of Gaussian, Inc.
  
 This software contains proprietary and confidential information,
 including trade secrets, belonging to Gaussian, Inc.
  
 This software is provided under written license and may be
 used, copied, transmitted, or stored only in accord with that
 written license.
  
 The following legend is applicable only to US Government
 contracts under FAR:
  
                    RESTRICTED RIGHTS LEGEND
  
 Use, reproduction and disclosure by the US Government is
 subject to restrictions as set forth in subparagraphs (a)
 and (c) of the Commercial Computer Software - Restricted
 Rights clause in FAR 52.227-19.
  
 Gaussian, Inc.
 340 Quinnipiac St., Bldg. 40, Wallingford CT 06492
  
  
 ---------------------------------------------------------------
 Warning -- This program may not be used in any manner that
 competes with the business of Gaussian, Inc. or will provide
 assistance to any competitor of Gaussian, Inc.  The licensee
 of this program is prohibited from giving any competitor of
 Gaussian, Inc. access to this program.  By using this program,
 the user acknowledges that Gaussian, Inc. is engaged in the
 business of creating and licensing software in the field of
 computational chemistry and represents and warrants to the
 licensee that it is not a competitor of Gaussian, Inc. and that
 it will not use this program in any manner prohibited above.
 ---------------------------------------------------------------
  

 Cite this work as:
 Gaussian 16, Revision C.01,
 M. J. Frisch, G. W. Trucks, H. B. Schlegel, G. E. Scuseria, 
 M. A. Robb, J. R. Cheeseman, G. Scalmani, V. Barone, 
 G. A. Petersson, H. Nakatsuji, X. Li, M. Caricato, A. V. Marenich, 
 J. Bloino, B. G. Janesko, R. Gomperts, B. Mennucci, H. P. Hratchian, 
 J. V. Ortiz, A. F. Izmaylov, J. L. Sonnenberg, D. Williams-Young, 
 F. Ding, F. Lipparini, F. Egidi, J. Goings, B. Peng, A. Petrone, 
 T. Henderson, D. Ranasinghe, V. G. Zakrzewski, J. Gao, N. Rega, 
 G. Zheng, W. Liang, M. Hada, M. Ehara, K. Toyota, R. Fukuda, 
 J. Hasegawa, M. Ishida, T. Nakajima, Y. Honda, O. Kitao, H. Nakai, 
 T. Vreven, K. Throssell, J. A. Montgomery, Jr., J. E. Peralta, 
 F. Ogliaro, M. J. Bearpark, J. J. Heyd, E. N. Brothers, K. N. Kudin, 
 V. N. Staroverov, T. A. Keith, R. Kobayashi, J. Normand, 
 K. Raghavachari, A. P. Rendell, J. C. Burant, S. S. Iyengar, 
 J. Tomasi, M. Cossi, J. M. Millam, M. Klene, C. Adamo, R. Cammi, 
 J. W. Ochterski, R. L. Martin, K. Morokuma, O. Farkas, 
 J. B. Foresman, and D. J. Fox, Gaussian, Inc., Wallingford CT, 2019.
 
 ******************************************
 Gaussian 16:  ES64L-G16RevC.01  3-Jul-2019
                26-May-2022 
 ******************************************
 %mem=8gb
 %nproc=4
 Will use up to    4 processors via shared memory.
 %chk=conf-472.chk
 -------------------------------------------------------------------
 # B3LYP/6-31G* guess=read geom=check nosymm integral(ultrafinegrid)
 -------------------------------------------------------------------
 1/29=2,38=1,172=1/1;
 2/12=2,15=1,40=1/2;
 3/5=1,6=6,7=1,11=2,14=-4,25=1,30=1,74=-5,75=-5,116=-2/1,2,3;
 4/5=1/1;
 5/5=2,38=6/2;
 6/7=2,8=2,9=2,10=2,28=1/1;
 99/5=1,9=1/99;
 ------------------------------------------------------
 Candidate Structure: Conf:472 Charge calc in gas phase
 ------------------------------------------------------
 Structure from the checkpoint file:  "conf-472.chk"
 Charge =  1 Multiplicity = 1
 Redundant internal coordinates found in file.  (old form).
 N,0,-5.89506976,2.4831579194,2.8456185847
 H,0,-6.3255244884,2.475497659,1.898130615
 H,0,-5.8246235602,1.4934708158,3.1693490859
 H,0,-6.4713324052,3.0420631286,3.4800412414
 C,0,-4.4521836285,2.941760757,2.7760747891
 H,0,-4.3806549685,3.7177419099,2.0174161513
 C,0,-3.7352633622,1.6385701654,2.3390420643
 C,0,-4.0231634397,3.4922452974,4.1561863886
 H,0,-4.4308927833,4.5052226213,4.2463939567
 H,0,-4.4775437239,2.8790059141,4.9444161268
 O,0,-4.1631956838,0.5768000263,2.8087233524
 C,0,-2.5021526581,3.5116325221,4.4056959713
 H,0,-2.1428948726,2.5189554036,4.6923461131
 H,0,-2.2835874548,4.1751194024,5.2507182504
 C,0,-1.7111680438,3.9634136902,3.187419154
 O,0,-2.2035228983,4.6226313627,2.2837692643
 O,0,-0.4746847384,3.4769149059,3.1796469441
 N,0,-2.7541395845,1.7847052984,1.4478416138
 H,0,-2.4259924419,2.715613025,1.1916248836
 C,0,-1.9875428718,0.7042794346,0.8405432412
 H,0,-2.0145699814,-0.155141501,1.5160679575
 C,0,-0.5428112222,1.2331144228,0.6696452617
 C,0,-2.5922537712,0.2894452021,-0.536785359
 H,0,-1.9716827474,-0.5224120641,-0.93122416
 H,0,-2.4835067467,1.137111369,-1.2248085507
 O,0,-0.3359022694,2.45954028,0.6816430737
 C,0,-4.0249438817,-0.1518677305,-0.4378742381
 C,0,-4.4539474691,-1.4455870293,-0.2705815808
 H,0,-3.8763340855,-2.3601154963,-0.2582670432
 C,0,-5.2093633961,0.6710054625,-0.3737076319
 C,0,-6.3177403421,-0.1976091982,-0.1362132801
 C,0,-5.4546724509,2.0516285301,-0.4847063764
 H,0,-4.6428571125,2.7385663255,-0.7092642744
 N,0,-5.8221873498,-1.4783000903,-0.0886847729
 H,0,-6.3707688883,-2.3158459044,0.0352051038
 C,0,-7.8304770666,1.6507825431,-0.0568219309
 H,0,-8.8361651519,2.0480751525,0.0472835187
 C,0,-7.6238175642,0.2769487189,0.0282641341
 H,0,-8.4521669944,-0.4022322521,0.2105056411
 C,0,-6.7550375367,2.5334848362,-0.3192227973
 H,0,-6.9553048445,3.5950599305,-0.4436147121
 N,0,0.3681819959,0.2724894483,0.4760439538
 H,0,-0.0006113491,-0.6776875698,0.4157426889
 C,0,1.6981919855,0.4726794755,0.0162196651
 H,0,2.4935480967,0.262504192,0.7237226668
 C,0,1.9326981308,1.1495800865,-1.1649367414
 C,0,0.8658520699,-1.9446629418,-1.6072672189
 H,0,0.7969031006,-1.0670149776,-2.2752272229
 O,0,1.0313821591,1.4347727997,-2.0370882032
 C,0,2.1150928124,-2.7761705636,-1.7273096133
 H,0,2.9997855682,-2.1315540289,-1.7016097355
 H,0,2.1133723622,-3.2911909088,-2.6989518616
 H,0,2.1584465497,-3.5216162291,-0.9296832281
 O,0,-0.0677670713,-2.227995808,-0.8655563681
 N,0,3.2642528277,1.572477078,-1.4085704213
 H,0,3.942924804,1.2006225412,-0.7555199469
 C,0,3.7448571244,1.7274242322,-2.7616384286
 H,0,2.8666285012,1.6839234129,-3.4084787534
 C,0,4.6574485193,0.6143910242,-3.2790439223
 C,0,4.4607861316,3.0846309005,-3.0015370042
 H,0,4.611693244,3.1982420808,-4.0807158082
 H,0,5.4634028117,3.0540798743,-2.5559318928
 O,0,5.0367084502,0.5347466736,-4.4263671288
 C,0,3.7262935815,4.2973534813,-2.4099634275
 H,0,3.785914069,4.2600922062,-1.3174414249
 H,0,4.2552195314,5.2094524573,-2.7208451981
 C,0,2.2348159532,4.4253800778,-2.7435723131
 H,0,1.6700240364,3.6033558255,-2.3018690242
 H,0,1.8422742611,5.3581374362,-2.3215848802
 N,0,1.975769891,4.4425947374,-4.1956202173
 H,0,2.4738589441,5.1410534784,-4.7320724744
 N,0,0.5541913066,2.5969726094,-4.3208798758
 H,0,-0.1796871486,2.1342373333,-4.8392535818
 H,0,0.8255099083,2.1708366827,-3.3725993148
 N,0,0.8369844635,3.9784248031,-6.1628826177
 H,0,1.2736618552,4.782038115,-6.5909670628
 H,0,0.5743475344,3.239650685,-6.799984657
 C,0,1.1318997578,3.6531328336,-4.8723321072
 O,0,5.0341596501,-0.2664869428,-2.3194690522
 H,0,5.6366710216,-0.9010306091,-2.7532185106
 H,0,-0.1506370406,3.4509900013,2.2406869501
 Recover connectivity data from disk.
                           ----------------------------
                           !    Current Parameters    !
                           ! (Angstroms and Degrees)  !
 --------------------------                            --------------------------
 ! Name  Definition              Value                                          !
 --------------------------------------------------------------------------------
 ! R1    R(1,2)                  1.0407                                         !
 ! R2    R(1,3)                  1.0437                                         !
 ! R3    R(1,4)                  1.0232                                         !
 ! R4    R(1,5)                  1.5156                                         !
 ! R5    R(5,6)                  1.0876                                         !
 ! R6    R(5,7)                  1.5503                                         !
 ! R7    R(5,8)                  1.5465                                         !
 ! R8    R(7,11)                 1.2374                                         !
 ! R9    R(7,18)                 1.3335                                         !
 ! R10   R(8,9)                  1.0957                                         !
 ! R11   R(8,10)                 1.0972                                         !
 ! R12   R(8,12)                 1.5415                                         !
 ! R13   R(12,13)                1.0939                                         !
 ! R14   R(12,14)                1.0964                                         !
 ! R15   R(12,15)                1.5212                                         !
 ! R16   R(15,16)                1.2221                                         !
 ! R17   R(15,17)                1.3288                                         !
 ! R18   R(17,81)                0.9936                                         !
 ! R19   R(18,19)                1.0198                                         !
 ! R20   R(18,20)                1.4573                                         !
 ! R21   R(20,21)                1.0935                                         !
 ! R22   R(20,22)                1.5479                                         !
 ! R23   R(20,23)                1.5604                                         !
 ! R24   R(22,26)                1.2438                                         !
 ! R25   R(22,42)                1.338                                          !
 ! R26   R(23,24)                1.0954                                         !
 ! R27   R(23,25)                1.0972                                         !
 ! R28   R(23,27)                1.5024                                         !
 ! R29   R(27,28)                1.3732                                         !
 ! R30   R(27,30)                1.4436                                         !
 ! R31   R(28,29)                1.0817                                         !
 ! R32   R(28,34)                1.3807                                         !
 ! R33   R(30,31)                1.4281                                         !
 ! R34   R(30,32)                1.4066                                         !
 ! R35   R(31,34)                1.374                                          !
 ! R36   R(31,38)                1.3993                                         !
 ! R37   R(32,33)                1.0869                                         !
 ! R38   R(32,40)                1.3966                                         !
 ! R39   R(34,35)                1.0088                                         !
 ! R40   R(36,37)                1.0863                                         !
 ! R41   R(36,38)                1.3919                                         !
 ! R42   R(36,40)                1.4158                                         !
 ! R43   R(38,39)                1.0866                                         !
 ! R44   R(40,41)                1.0874                                         !
 ! R45   R(42,43)                1.021                                          !
 ! R46   R(42,44)                1.4214                                         !
 ! R47   R(44,45)                1.085                                          !
 ! R48   R(44,46)                1.3814                                         !
 ! R49   R(44,47)                3.0285                                         !
 ! R50   R(46,49)                1.2862                                         !
 ! R51   R(46,55)                1.4182                                         !
 ! R52   R(47,48)                1.1051                                         !
 ! R53   R(47,50)                1.5055                                         !
 ! R54   R(47,54)                1.2256                                         !
 ! R55   R(50,51)                1.0949                                         !
 ! R56   R(50,52)                1.0997                                         !
 ! R57   R(50,53)                1.0926                                         !
 ! R58   R(55,56)                1.0126                                         !
 ! R59   R(55,57)                1.4442                                         !
 ! R60   R(57,58)                1.0916                                         !
 ! R61   R(57,59)                1.5295                                         !
 ! R62   R(57,60)                1.5531                                         !
 ! R63   R(59,63)                1.211                                          !
 ! R64   R(59,79)                1.356                                          !
 ! R65   R(60,61)                1.0956                                         !
 ! R66   R(60,62)                1.0976                                         !
 ! R67   R(60,64)                1.5363                                         !
 ! R68   R(64,65)                1.0948                                         !
 ! R69   R(64,66)                1.0992                                         !
 ! R70   R(64,67)                1.5337                                         !
 ! R71   R(67,68)                1.0908                                         !
 ! R72   R(67,69)                1.0964                                         !
 ! R73   R(67,70)                1.4751                                         !
 ! R74   R(70,71)                1.0118                                         !
 ! R75   R(70,78)                1.3391                                         !
 ! R76   R(72,73)                1.0106                                         !
 ! R77   R(72,74)                1.0744                                         !
 ! R78   R(72,78)                1.3241                                         !
 ! R79   R(75,76)                1.0098                                         !
 ! R80   R(75,77)                1.0103                                         !
 ! R81   R(75,78)                1.3632                                         !
 ! R82   R(79,80)                0.9766                                         !
 ! A1    A(2,1,3)              107.6582                                         !
 ! A2    A(2,1,4)              109.6071                                         !
 ! A3    A(2,1,5)              110.7457                                         !
 ! A4    A(3,1,4)              111.3256                                         !
 ! A5    A(3,1,5)              103.7042                                         !
 ! A6    A(4,1,5)              113.5369                                         !
 ! A7    A(1,5,6)              108.0902                                         !
 ! A8    A(1,5,7)              101.4689                                         !
 ! A9    A(1,5,8)              109.3205                                         !
 ! A10   A(6,5,7)              111.8834                                         !
 ! A11   A(6,5,8)              110.505                                          !
 ! A12   A(7,5,8)              114.9928                                         !
 ! A13   A(5,7,11)             117.0258                                         !
 ! A14   A(5,7,18)             115.8831                                         !
 ! A15   A(11,7,18)            127.0256                                         !
 ! A16   A(5,8,9)              107.4168                                         !
 ! A17   A(5,8,10)             109.1031                                         !
 ! A18   A(5,8,12)             115.0019                                         !
 ! A19   A(9,8,10)             107.6665                                         !
 ! A20   A(9,8,12)             110.0131                                         !
 ! A21   A(10,8,12)            107.4204                                         !
 ! A22   A(8,12,13)            110.7972                                         !
 ! A23   A(8,12,14)            109.2126                                         !
 ! A24   A(8,12,15)            112.7795                                         !
 ! A25   A(13,12,14)           106.363                                          !
 ! A26   A(13,12,15)           107.9751                                         !
 ! A27   A(14,12,15)           109.5044                                         !
 ! A28   A(12,15,16)           122.8812                                         !
 ! A29   A(12,15,17)           112.3223                                         !
 ! A30   A(16,15,17)           124.6148                                         !
 ! A31   A(15,17,81)           108.5753                                         !
 ! A32   A(7,18,19)            120.3123                                         !
 ! A33   A(7,18,20)            125.7526                                         !
 ! A34   A(19,18,20)           113.7537                                         !
 ! A35   A(18,20,21)           108.1947                                         !
 ! A36   A(18,20,22)           106.4801                                         !
 ! A37   A(18,20,23)           111.1662                                         !
 ! A38   A(21,20,22)           111.0872                                         !
 ! A39   A(21,20,23)           109.0734                                         !
 ! A40   A(22,20,23)           110.798                                          !
 ! A41   A(20,22,26)           119.41                                           !
 ! A42   A(20,22,42)           113.9642                                         !
 ! A43   A(26,22,42)           126.5883                                         !
 ! A44   A(20,23,24)           107.1781                                         !
 ! A45   A(20,23,25)           108.0423                                         !
 ! A46   A(20,23,27)           112.9261                                         !
 ! A47   A(24,23,25)           106.8979                                         !
 ! A48   A(24,23,27)           110.2587                                         !
 ! A49   A(25,23,27)           111.2694                                         !
 ! A50   A(23,27,28)           125.6387                                         !
 ! A51   A(23,27,30)           128.1613                                         !
 ! A52   A(28,27,30)           105.9783                                         !
 ! A53   A(27,28,29)           129.1278                                         !
 ! A54   A(27,28,34)           110.363                                          !
 ! A55   A(29,28,34)           120.5063                                         !
 ! A56   A(27,30,31)           107.3055                                         !
 ! A57   A(27,30,32)           134.3495                                         !
 ! A58   A(31,30,32)           118.344                                          !
 ! A59   A(30,31,34)           107.023                                          !
 ! A60   A(30,31,38)           122.5264                                         !
 ! A61   A(34,31,38)           130.4398                                         !
 ! A62   A(30,32,33)           120.4227                                         !
 ! A63   A(30,32,40)           119.4501                                         !
 ! A64   A(33,32,40)           120.1231                                         !
 ! A65   A(28,34,31)           109.3153                                         !
 ! A66   A(28,34,35)           125.0805                                         !
 ! A67   A(31,34,35)           125.5865                                         !
 ! A68   A(37,36,38)           119.5099                                         !
 ! A69   A(37,36,40)           119.5348                                         !
 ! A70   A(38,36,40)           120.9248                                         !
 ! A71   A(31,38,36)           117.7833                                         !
 ! A72   A(31,38,39)           121.2839                                         !
 ! A73   A(36,38,39)           120.9317                                         !
 ! A74   A(32,40,36)           120.9368                                         !
 ! A75   A(32,40,41)           119.6521                                         !
 ! A76   A(36,40,41)           119.3363                                         !
 ! A77   A(22,42,43)           115.5161                                         !
 ! A78   A(22,42,44)           125.6461                                         !
 ! A79   A(43,42,44)           116.7393                                         !
 ! A80   A(42,44,45)           116.5936                                         !
 ! A81   A(42,44,46)           120.2949                                         !
 ! A82   A(42,44,47)            78.6876                                         !
 ! A83   A(45,44,46)           121.8705                                         !
 ! A84   A(45,44,47)           113.3524                                         !
 ! A85   A(46,44,47)            88.8207                                         !
 ! A86   A(44,46,49)           124.713                                          !
 ! A87   A(44,46,55)           116.8974                                         !
 ! A88   A(49,46,55)           118.3814                                         !
 ! A89   A(44,47,48)            72.9774                                         !
 ! A90   A(44,47,50)           104.8061                                         !
 ! A91   A(44,47,54)            93.9834                                         !
 ! A92   A(48,47,50)           116.2465                                         !
 ! A93   A(48,47,54)           120.1245                                         !
 ! A94   A(50,47,54)           123.552                                          !
 ! A95   A(47,50,51)           110.0861                                         !
 ! A96   A(47,50,52)           109.1368                                         !
 ! A97   A(47,50,53)           110.5822                                         !
 ! A98   A(51,50,52)           107.3208                                         !
 ! A99   A(51,50,53)           110.6387                                         !
 ! A100  A(52,50,53)           108.9991                                         !
 ! A101  A(46,55,56)           114.1415                                         !
 ! A102  A(46,55,57)           120.3574                                         !
 ! A103  A(56,55,57)           114.8715                                         !
 ! A104  A(55,57,58)           106.4487                                         !
 ! A105  A(55,57,59)           115.9389                                         !
 ! A106  A(55,57,60)           113.0709                                         !
 ! A107  A(58,57,59)           104.5118                                         !
 ! A108  A(58,57,60)           108.3101                                         !
 ! A109  A(59,57,60)           107.9767                                         !
 ! A110  A(57,59,63)           123.7255                                         !
 ! A111  A(57,59,79)           113.5227                                         !
 ! A112  A(63,59,79)           122.733                                          !
 ! A113  A(57,60,61)           107.8343                                         !
 ! A114  A(57,60,62)           109.5143                                         !
 ! A115  A(57,60,64)           114.2022                                         !
 ! A116  A(61,60,62)           106.0792                                         !
 ! A117  A(61,60,64)           111.3029                                         !
 ! A118  A(62,60,64)           107.5998                                         !
 ! A119  A(60,64,65)           109.3521                                         !
 ! A120  A(60,64,66)           108.4241                                         !
 ! A121  A(60,64,67)           116.5563                                         !
 ! A122  A(65,64,66)           106.5151                                         !
 ! A123  A(65,64,67)           105.8353                                         !
 ! A124  A(66,64,67)           109.7032                                         !
 ! A125  A(64,67,68)           110.6429                                         !
 ! A126  A(64,67,69)           109.6003                                         !
 ! A127  A(64,67,70)           112.6985                                         !
 ! A128  A(68,67,69)           107.4503                                         !
 ! A129  A(68,67,70)           108.4504                                         !
 ! A130  A(69,67,70)           107.8219                                         !
 ! A131  A(67,70,71)           116.3292                                         !
 ! A132  A(67,70,78)           126.9579                                         !
 ! A133  A(71,70,78)           116.6957                                         !
 ! A134  A(73,72,74)           117.03                                           !
 ! A135  A(73,72,78)           117.9307                                         !
 ! A136  A(74,72,78)           125.0109                                         !
 ! A137  A(76,75,77)           115.2784                                         !
 ! A138  A(76,75,78)           119.8462                                         !
 ! A139  A(77,75,78)           118.6043                                         !
 ! A140  A(70,78,72)           122.3237                                         !
 ! A141  A(70,78,75)           118.2978                                         !
 ! A142  A(72,78,75)           119.3547                                         !
 ! A143  A(59,79,80)           106.2114                                         !
 ! D1    D(2,1,5,6)             36.7119                                         !
 ! D2    D(2,1,5,7)            -81.0868                                         !
 ! D3    D(2,1,5,8)            157.0447                                         !
 ! D4    D(3,1,5,6)            151.9411                                         !
 ! D5    D(3,1,5,7)             34.1424                                         !
 ! D6    D(3,1,5,8)            -87.7261                                         !
 ! D7    D(4,1,5,6)            -87.0944                                         !
 ! D8    D(4,1,5,7)            155.107                                          !
 ! D9    D(4,1,5,8)             33.2384                                         !
 ! D10   D(1,5,7,11)           -37.0613                                         !
 ! D11   D(1,5,7,18)           140.2067                                         !
 ! D12   D(6,5,7,11)          -152.0814                                         !
 ! D13   D(6,5,7,18)            25.1866                                         !
 ! D14   D(8,5,7,11)            80.7814                                         !
 ! D15   D(8,5,7,18)          -101.9505                                         !
 ! D16   D(1,5,8,9)            -78.6418                                         !
 ! D17   D(1,5,8,10)            37.7971                                         !
 ! D18   D(1,5,8,12)           158.5343                                         !
 ! D19   D(6,5,8,9)             40.2018                                         !
 ! D20   D(6,5,8,10)           156.6407                                         !
 ! D21   D(6,5,8,12)           -82.6221                                         !
 ! D22   D(7,5,8,9)            168.0359                                         !
 ! D23   D(7,5,8,10)           -75.5252                                         !
 ! D24   D(7,5,8,12)            45.212                                          !
 ! D25   D(5,7,18,19)            8.5436                                         !
 ! D26   D(5,7,18,20)         -176.6677                                         !
 ! D27   D(11,7,18,19)        -174.5049                                         !
 ! D28   D(11,7,18,20)           0.2838                                         !
 ! D29   D(5,8,12,13)          -79.9312                                         !
 ! D30   D(5,8,12,14)          163.2296                                         !
 ! D31   D(5,8,12,15)           41.2359                                         !
 ! D32   D(9,8,12,13)          158.6459                                         !
 ! D33   D(9,8,12,14)           41.8067                                         !
 ! D34   D(9,8,12,15)          -80.187                                          !
 ! D35   D(10,8,12,13)          41.7231                                         !
 ! D36   D(10,8,12,14)         -75.1162                                         !
 ! D37   D(10,8,12,15)         162.8902                                         !
 ! D38   D(8,12,15,16)          21.4572                                         !
 ! D39   D(8,12,15,17)        -153.8472                                         !
 ! D40   D(13,12,15,16)        144.216                                          !
 ! D41   D(13,12,15,17)        -31.0884                                         !
 ! D42   D(14,12,15,16)       -100.3718                                         !
 ! D43   D(14,12,15,17)         84.3238                                         !
 ! D44   D(12,15,17,81)        155.4568                                         !
 ! D45   D(16,15,17,81)        -19.7515                                         !
 ! D46   D(7,18,20,21)         -24.8413                                         !
 ! D47   D(7,18,20,22)        -144.3255                                         !
 ! D48   D(7,18,20,23)          94.9026                                         !
 ! D49   D(19,18,20,21)        150.2442                                         !
 ! D50   D(19,18,20,22)         30.76                                           !
 ! D51   D(19,18,20,23)        -90.0118                                         !
 ! D52   D(18,20,22,26)        -19.6227                                         !
 ! D53   D(18,20,22,42)        162.4597                                         !
 ! D54   D(21,20,22,26)       -137.2082                                         !
 ! D55   D(21,20,22,42)         44.8742                                         !
 ! D56   D(23,20,22,26)        101.3851                                         !
 ! D57   D(23,20,22,42)        -76.5325                                         !
 ! D58   D(18,20,23,24)       -179.8689                                         !
 ! D59   D(18,20,23,25)         65.2542                                         !
 ! D60   D(18,20,23,27)        -58.2505                                         !
 ! D61   D(21,20,23,24)        -60.6491                                         !
 ! D62   D(21,20,23,25)       -175.5259                                         !
 ! D63   D(21,20,23,27)         60.9693                                         !
 ! D64   D(22,20,23,24)         61.936                                          !
 ! D65   D(22,20,23,25)        -52.9408                                         !
 ! D66   D(22,20,23,27)       -176.4456                                         !
 ! D67   D(20,22,42,43)          3.0638                                         !
 ! D68   D(20,22,42,44)        165.9694                                         !
 ! D69   D(26,22,42,43)       -174.677                                          !
 ! D70   D(26,22,42,44)        -11.7714                                         !
 ! D71   D(20,23,27,28)        -92.8351                                         !
 ! D72   D(20,23,27,30)         80.9822                                         !
 ! D73   D(24,23,27,28)         27.0278                                         !
 ! D74   D(24,23,27,30)       -159.1549                                         !
 ! D75   D(25,23,27,28)        145.4626                                         !
 ! D76   D(25,23,27,30)        -40.7201                                         !
 ! D77   D(23,27,28,29)         -5.2452                                         !
 ! D78   D(23,27,28,34)        174.124                                          !
 ! D79   D(30,27,28,29)        179.8082                                         !
 ! D80   D(30,27,28,34)         -0.8226                                         !
 ! D81   D(23,27,30,31)       -173.5643                                         !
 ! D82   D(23,27,30,32)          6.056                                          !
 ! D83   D(28,27,30,31)          1.212                                          !
 ! D84   D(28,27,30,32)       -179.1678                                         !
 ! D85   D(27,28,34,31)          0.1034                                         !
 ! D86   D(27,28,34,35)        178.6378                                         !
 ! D87   D(29,28,34,31)        179.5354                                         !
 ! D88   D(29,28,34,35)         -1.9302                                         !
 ! D89   D(27,30,31,34)         -1.1623                                         !
 ! D90   D(27,30,31,38)        177.756                                          !
 ! D91   D(32,30,31,34)        179.1463                                         !
 ! D92   D(32,30,31,38)         -1.9354                                         !
 ! D93   D(27,30,32,33)          3.1457                                         !
 ! D94   D(27,30,32,40)       -177.5931                                         !
 ! D95   D(31,30,32,33)       -177.2663                                         !
 ! D96   D(31,30,32,40)          1.9949                                         !
 ! D97   D(30,31,34,28)          0.6738                                         !
 ! D98   D(30,31,34,35)       -177.8514                                         !
 ! D99   D(38,31,34,28)       -178.1278                                         !
 ! D100  D(38,31,34,35)          3.347                                          !
 ! D101  D(30,31,38,36)          0.5084                                         !
 ! D102  D(30,31,38,39)       -179.8518                                         !
 ! D103  D(34,31,38,36)        179.1493                                         !
 ! D104  D(34,31,38,39)         -1.2108                                         !
 ! D105  D(30,32,40,36)         -0.7279                                         !
 ! D106  D(30,32,40,41)       -177.5622                                         !
 ! D107  D(33,32,40,36)        178.5355                                         !
 ! D108  D(33,32,40,41)          1.7013                                         !
 ! D109  D(37,36,38,31)        178.8177                                         !
 ! D110  D(37,36,38,39)         -0.8234                                         !
 ! D111  D(40,36,38,31)          0.8368                                         !
 ! D112  D(40,36,38,39)       -178.8043                                         !
 ! D113  D(37,36,40,32)       -178.7217                                         !
 ! D114  D(37,36,40,41)         -1.8776                                         !
 ! D115  D(38,36,40,32)         -0.7414                                         !
 ! D116  D(38,36,40,41)        176.1027                                         !
 ! D117  D(22,42,44,45)        112.9142                                         !
 ! D118  D(22,42,44,46)        -54.5973                                         !
 ! D119  D(22,42,44,47)       -136.4811                                         !
 ! D120  D(43,42,44,45)        -84.3658                                         !
 ! D121  D(43,42,44,46)        108.1227                                         !
 ! D122  D(43,42,44,47)         26.2389                                         !
 ! D123  D(42,44,46,49)        -12.7098                                         !
 ! D124  D(42,44,46,55)        166.2288                                         !
 ! D125  D(45,44,46,49)       -179.5486                                         !
 ! D126  D(45,44,46,55)         -0.61                                           !
 ! D127  D(47,44,46,49)         63.4475                                         !
 ! D128  D(47,44,46,55)       -117.6139                                         !
 ! D129  D(42,44,47,48)        101.7904                                         !
 ! D130  D(42,44,47,50)       -144.7906                                         !
 ! D131  D(42,44,47,54)        -18.5295                                         !
 ! D132  D(45,44,47,48)       -143.9487                                         !
 ! D133  D(45,44,47,50)        -30.5296                                         !
 ! D134  D(45,44,47,54)         95.7314                                         !
 ! D135  D(46,44,47,48)        -19.4529                                         !
 ! D136  D(46,44,47,50)         93.9662                                         !
 ! D137  D(46,44,47,54)       -139.7727                                         !
 ! D138  D(44,46,55,56)          9.5132                                         !
 ! D139  D(44,46,55,57)        152.323                                          !
 ! D140  D(49,46,55,56)       -171.4785                                         !
 ! D141  D(49,46,55,57)        -28.6687                                         !
 ! D142  D(44,47,50,51)        -29.2367                                         !
 ! D143  D(44,47,50,52)       -146.781                                          !
 ! D144  D(44,47,50,53)         93.325                                          !
 ! D145  D(48,47,50,51)         48.8002                                         !
 ! D146  D(48,47,50,52)        -68.744                                          !
 ! D147  D(48,47,50,53)        171.3619                                         !
 ! D148  D(54,47,50,51)       -134.3968                                         !
 ! D149  D(54,47,50,52)        108.059                                          !
 ! D150  D(54,47,50,53)        -11.835                                          !
 ! D151  D(46,55,57,58)         12.2982                                         !
 ! D152  D(46,55,57,59)       -103.433                                          !
 ! D153  D(46,55,57,60)        131.1009                                         !
 ! D154  D(56,55,57,58)        154.8543                                         !
 ! D155  D(56,55,57,59)         39.1231                                         !
 ! D156  D(56,55,57,60)        -86.343                                          !
 ! D157  D(55,57,59,63)        172.7371                                         !
 ! D158  D(55,57,59,79)         -8.8008                                         !
 ! D159  D(58,57,59,63)         55.9192                                         !
 ! D160  D(58,57,59,79)       -125.6187                                         !
 ! D161  D(60,57,59,63)        -59.2412                                         !
 ! D162  D(60,57,59,79)        119.2209                                         !
 ! D163  D(55,57,60,61)       -169.0275                                         !
 ! D164  D(55,57,60,62)         75.9676                                         !
 ! D165  D(55,57,60,64)        -44.7627                                         !
 ! D166  D(58,57,60,61)        -51.3086                                         !
 ! D167  D(58,57,60,62)       -166.3136                                         !
 ! D168  D(58,57,60,64)         72.9562                                         !
 ! D169  D(59,57,60,61)         61.3265                                         !
 ! D170  D(59,57,60,62)        -53.6784                                         !
 ! D171  D(59,57,60,64)       -174.4087                                         !
 ! D172  D(57,59,79,80)       -177.6878                                         !
 ! D173  D(63,59,79,80)          0.7917                                         !
 ! D174  D(57,60,64,65)         69.9787                                         !
 ! D175  D(57,60,64,66)       -174.2636                                         !
 ! D176  D(57,60,64,67)        -49.9463                                         !
 ! D177  D(61,60,64,65)       -167.632                                          !
 ! D178  D(61,60,64,66)        -51.8743                                         !
 ! D179  D(61,60,64,67)         72.443                                          !
 ! D180  D(62,60,64,65)        -51.8103                                         !
 ! D181  D(62,60,64,66)         63.9473                                         !
 ! D182  D(62,60,64,67)       -171.7354                                         !
 ! D183  D(60,64,67,68)         65.3572                                         !
 ! D184  D(60,64,67,69)       -176.3282                                         !
 ! D185  D(60,64,67,70)        -56.255                                          !
 ! D186  D(65,64,67,68)        -56.4346                                         !
 ! D187  D(65,64,67,69)         61.88                                           !
 ! D188  D(65,64,67,70)       -178.0469                                         !
 ! D189  D(66,64,67,68)       -170.9811                                         !
 ! D190  D(66,64,67,69)        -52.6665                                         !
 ! D191  D(66,64,67,70)         67.4066                                         !
 ! D192  D(64,67,70,71)        -54.7735                                         !
 ! D193  D(64,67,70,78)        126.7929                                         !
 ! D194  D(68,67,70,71)       -177.6206                                         !
 ! D195  D(68,67,70,78)          3.9458                                         !
 ! D196  D(69,67,70,71)         66.3189                                         !
 ! D197  D(69,67,70,78)       -112.1147                                         !
 ! D198  D(67,70,78,72)        -10.4137                                         !
 ! D199  D(67,70,78,75)        167.7991                                         !
 ! D200  D(71,70,78,72)        171.1578                                         !
 ! D201  D(71,70,78,75)        -10.6294                                         !
 ! D202  D(73,72,78,70)        170.4413                                         !
 ! D203  D(73,72,78,75)         -7.7533                                         !
 ! D204  D(74,72,78,70)        -11.5604                                         !
 ! D205  D(74,72,78,75)        170.2451                                         !
 ! D206  D(76,75,78,70)          1.7669                                         !
 ! D207  D(76,75,78,72)       -179.9659                                         !
 ! D208  D(77,75,78,70)        152.6521                                         !
 ! D209  D(77,75,78,72)        -29.0807                                         !
 --------------------------------------------------------------------------------
 Symmetry turned off by external request.
 Stoichiometry    C26H39N8O8(1+)
 Framework group  C1[X(C26H39N8O8)]
 Deg. of freedom   237
 Full point group                 C1      NOp   1
                          Input orientation:                          
 ---------------------------------------------------------------------
 Center     Atomic      Atomic             Coordinates (Angstroms)
 Number     Number       Type             X           Y           Z
 ---------------------------------------------------------------------
      1          7           0       -5.895070    2.483158    2.845619
      2          1           0       -6.325524    2.475498    1.898131
      3          1           0       -5.824624    1.493471    3.169349
      4          1           0       -6.471332    3.042063    3.480041
      5          6           0       -4.452184    2.941761    2.776075
      6          1           0       -4.380655    3.717742    2.017416
      7          6           0       -3.735263    1.638570    2.339042
      8          6           0       -4.023163    3.492245    4.156186
      9          1           0       -4.430893    4.505223    4.246394
     10          1           0       -4.477544    2.879006    4.944416
     11          8           0       -4.163196    0.576800    2.808723
     12          6           0       -2.502153    3.511633    4.405696
     13          1           0       -2.142895    2.518955    4.692346
     14          1           0       -2.283587    4.175119    5.250718
     15          6           0       -1.711168    3.963414    3.187419
     16          8           0       -2.203523    4.622631    2.283769
     17          8           0       -0.474685    3.476915    3.179647
     18          7           0       -2.754140    1.784705    1.447842
     19          1           0       -2.425992    2.715613    1.191625
     20          6           0       -1.987543    0.704279    0.840543
     21          1           0       -2.014570   -0.155142    1.516068
     22          6           0       -0.542811    1.233114    0.669645
     23          6           0       -2.592254    0.289445   -0.536785
     24          1           0       -1.971683   -0.522412   -0.931224
     25          1           0       -2.483507    1.137111   -1.224809
     26          8           0       -0.335902    2.459540    0.681643
     27          6           0       -4.024944   -0.151868   -0.437874
     28          6           0       -4.453947   -1.445587   -0.270582
     29          1           0       -3.876334   -2.360115   -0.258267
     30          6           0       -5.209363    0.671005   -0.373708
     31          6           0       -6.317740   -0.197609   -0.136213
     32          6           0       -5.454672    2.051629   -0.484706
     33          1           0       -4.642857    2.738566   -0.709264
     34          7           0       -5.822187   -1.478300   -0.088685
     35          1           0       -6.370769   -2.315846    0.035205
     36          6           0       -7.830477    1.650783   -0.056822
     37          1           0       -8.836165    2.048075    0.047284
     38          6           0       -7.623818    0.276949    0.028264
     39          1           0       -8.452167   -0.402232    0.210506
     40          6           0       -6.755038    2.533485   -0.319223
     41          1           0       -6.955305    3.595060   -0.443615
     42          7           0        0.368182    0.272489    0.476044
     43          1           0       -0.000611   -0.677688    0.415743
     44          6           0        1.698192    0.472679    0.016220
     45          1           0        2.493548    0.262504    0.723723
     46          6           0        1.932698    1.149580   -1.164937
     47          6           0        0.865852   -1.944663   -1.607267
     48          1           0        0.796903   -1.067015   -2.275227
     49          8           0        1.031382    1.434773   -2.037088
     50          6           0        2.115093   -2.776171   -1.727310
     51          1           0        2.999786   -2.131554   -1.701610
     52          1           0        2.113372   -3.291191   -2.698952
     53          1           0        2.158447   -3.521616   -0.929683
     54          8           0       -0.067767   -2.227996   -0.865556
     55          7           0        3.264253    1.572477   -1.408570
     56          1           0        3.942925    1.200623   -0.755520
     57          6           0        3.744857    1.727424   -2.761638
     58          1           0        2.866629    1.683923   -3.408479
     59          6           0        4.657449    0.614391   -3.279044
     60          6           0        4.460786    3.084631   -3.001537
     61          1           0        4.611693    3.198242   -4.080716
     62          1           0        5.463403    3.054080   -2.555932
     63          8           0        5.036708    0.534747   -4.426367
     64          6           0        3.726294    4.297353   -2.409963
     65          1           0        3.785914    4.260092   -1.317441
     66          1           0        4.255220    5.209452   -2.720845
     67          6           0        2.234816    4.425380   -2.743572
     68          1           0        1.670024    3.603356   -2.301869
     69          1           0        1.842274    5.358137   -2.321585
     70          7           0        1.975770    4.442595   -4.195620
     71          1           0        2.473859    5.141053   -4.732072
     72          7           0        0.554191    2.596973   -4.320880
     73          1           0       -0.179687    2.134237   -4.839254
     74          1           0        0.825510    2.170837   -3.372599
     75          7           0        0.836984    3.978425   -6.162883
     76          1           0        1.273662    4.782038   -6.590967
     77          1           0        0.574348    3.239651   -6.799985
     78          6           0        1.131900    3.653133   -4.872332
     79          8           0        5.034160   -0.266487   -2.319469
     80          1           0        5.636671   -0.901031   -2.753219
     81          1           0       -0.150637    3.450990    2.240687
 ---------------------------------------------------------------------
 Rotational constants (GHZ):           0.1171681           0.0430915           0.0410903
 Standard basis: 6-31G(d) (6D, 7F)
   708 basis functions,  1332 primitive gaussians,   708 cartesian basis functions
   157 alpha electrons      157 beta electrons
       nuclear repulsion energy      5346.5522234174 Hartrees.
 NAtoms=   81 NActive=   81 NUniq=   81 SFac= 1.00D+00 NAtFMM=   60 NAOKFM=T Big=T
 Integral buffers will be    131072 words long.
 Raffenetti 2 integral format.
 Two-electron integral symmetry is turned off.
 One-electron integrals computed using PRISM.
 NBasis=   708 RedAO= T EigKep=  3.75D-04  NBF=   708
 NBsUse=   708 1.00D-06 EigRej= -1.00D+00 NBFU=   708
 Initial guess from the checkpoint file:  "conf-472.chk"
 B after Tr=     0.000000    0.000000    0.000000
         Rot=    1.000000    0.000000    0.000000    0.000000 Ang=   0.00 deg.
 Requested convergence on RMS density matrix=1.00D-08 within 128 cycles.
 Requested convergence on MAX density matrix=1.00D-06.
 Requested convergence on             energy=1.00D-06.
 No special actions if energy rises.
 SCF Done:  E(RB3LYP) =  -2053.89626567     A.U. after    1 cycles
            NFock=  1  Conv=0.68D-08     -V/T= 2.0093

 **********************************************************************

            Population analysis using the SCF Density.

 **********************************************************************

 Alpha  occ. eigenvalues --  -19.26753 -19.25799 -19.22665 -19.21751 -19.20458
 Alpha  occ. eigenvalues --  -19.19981 -19.18104 -19.14921 -14.56642 -14.48505
 Alpha  occ. eigenvalues --  -14.48460 -14.46380 -14.45876 -14.45523 -14.41478
 Alpha  occ. eigenvalues --  -14.39144 -10.44106 -10.40212 -10.39843 -10.38534
 Alpha  occ. eigenvalues --  -10.36936 -10.34923 -10.32853 -10.31725 -10.31226
 Alpha  occ. eigenvalues --  -10.31035 -10.30903 -10.30865 -10.29925 -10.29780
 Alpha  occ. eigenvalues --  -10.29626 -10.28147 -10.28137 -10.27932 -10.27801
 Alpha  occ. eigenvalues --  -10.27349 -10.26890 -10.26708 -10.26278 -10.26191
 Alpha  occ. eigenvalues --  -10.24039 -10.21751  -1.17668  -1.17282  -1.15200
 Alpha  occ. eigenvalues --   -1.12505  -1.10573  -1.09489  -1.09148  -1.08852
 Alpha  occ. eigenvalues --   -1.08167  -1.06360  -1.05075  -1.02491  -1.02149
 Alpha  occ. eigenvalues --   -0.99959  -0.97534  -0.96095  -0.93053  -0.91478
 Alpha  occ. eigenvalues --   -0.88600  -0.87292  -0.85270  -0.83056  -0.82475
 Alpha  occ. eigenvalues --   -0.82175  -0.80491  -0.79750  -0.77621  -0.76717
 Alpha  occ. eigenvalues --   -0.75377  -0.73836  -0.73070  -0.71117  -0.70692
 Alpha  occ. eigenvalues --   -0.70310  -0.69596  -0.69108  -0.68410  -0.67977
 Alpha  occ. eigenvalues --   -0.67026  -0.66111  -0.65588  -0.64618  -0.64329
 Alpha  occ. eigenvalues --   -0.62810  -0.62658  -0.62054  -0.61609  -0.61024
 Alpha  occ. eigenvalues --   -0.60578  -0.59859  -0.58681  -0.57738  -0.57491
 Alpha  occ. eigenvalues --   -0.57068  -0.56426  -0.56286  -0.55984  -0.55537
 Alpha  occ. eigenvalues --   -0.55481  -0.54601  -0.53986  -0.53512  -0.52944
 Alpha  occ. eigenvalues --   -0.52816  -0.52575  -0.52425  -0.52204  -0.51934
 Alpha  occ. eigenvalues --   -0.51649  -0.50872  -0.50467  -0.50245  -0.49701
 Alpha  occ. eigenvalues --   -0.49343  -0.49076  -0.48711  -0.48259  -0.48131
 Alpha  occ. eigenvalues --   -0.47842  -0.47518  -0.47030  -0.46698  -0.46350
 Alpha  occ. eigenvalues --   -0.46076  -0.45890  -0.45306  -0.44577  -0.44444
 Alpha  occ. eigenvalues --   -0.44061  -0.43875  -0.43260  -0.42732  -0.42695
 Alpha  occ. eigenvalues --   -0.42297  -0.41821  -0.41725  -0.41032  -0.40091
 Alpha  occ. eigenvalues --   -0.38985  -0.38789  -0.38172  -0.37251  -0.36480
 Alpha  occ. eigenvalues --   -0.36415  -0.35609  -0.35382  -0.35146  -0.32652
 Alpha  occ. eigenvalues --   -0.32056  -0.31524  -0.30925  -0.30282  -0.29591
 Alpha  occ. eigenvalues --   -0.28609  -0.22362
 Alpha virt. eigenvalues --   -0.10358  -0.09411  -0.08250  -0.07898  -0.07582
 Alpha virt. eigenvalues --   -0.07374  -0.06279  -0.05683  -0.05446  -0.04721
 Alpha virt. eigenvalues --   -0.01519  -0.01333  -0.00936  -0.00372   0.00094
 Alpha virt. eigenvalues --    0.00399   0.00445   0.00572   0.01817   0.02457
 Alpha virt. eigenvalues --    0.02899   0.03223   0.03830   0.04120   0.04462
 Alpha virt. eigenvalues --    0.04931   0.05622   0.05906   0.05918   0.06215
 Alpha virt. eigenvalues --    0.06739   0.06853   0.07092   0.07443   0.07605
 Alpha virt. eigenvalues --    0.07875   0.08073   0.08339   0.08587   0.09142
 Alpha virt. eigenvalues --    0.09792   0.09936   0.10389   0.10782   0.10932
 Alpha virt. eigenvalues --    0.11247   0.11737   0.11830   0.11994   0.12133
 Alpha virt. eigenvalues --    0.12648   0.13013   0.13237   0.13573   0.14472
 Alpha virt. eigenvalues --    0.14918   0.15545   0.15740   0.16199   0.16921
 Alpha virt. eigenvalues --    0.17215   0.17608   0.18084   0.18459   0.18851
 Alpha virt. eigenvalues --    0.19027   0.19147   0.19841   0.20127   0.21402
 Alpha virt. eigenvalues --    0.22753   0.22997   0.24006   0.24752   0.25067
 Alpha virt. eigenvalues --    0.25865   0.26549   0.27157   0.27496   0.28024
 Alpha virt. eigenvalues --    0.29685   0.30581   0.31500   0.32099   0.32516
 Alpha virt. eigenvalues --    0.33031   0.35032   0.35330   0.37262   0.38433
 Alpha virt. eigenvalues --    0.39606   0.40530   0.41281   0.41530   0.41657
 Alpha virt. eigenvalues --    0.42194   0.42857   0.43102   0.43994   0.44187
 Alpha virt. eigenvalues --    0.44497   0.44799   0.45375   0.45903   0.46151
 Alpha virt. eigenvalues --    0.46474   0.46967   0.47163   0.47525   0.47712
 Alpha virt. eigenvalues --    0.47921   0.48293   0.49283   0.49461   0.49824
 Alpha virt. eigenvalues --    0.49929   0.50296   0.50744   0.51009   0.51171
 Alpha virt. eigenvalues --    0.51365   0.51964   0.52395   0.52698   0.52868
 Alpha virt. eigenvalues --    0.53309   0.53799   0.53898   0.54012   0.54438
 Alpha virt. eigenvalues --    0.55127   0.55332   0.55446   0.55975   0.56865
 Alpha virt. eigenvalues --    0.57057   0.57532   0.57919   0.58007   0.58297
 Alpha virt. eigenvalues --    0.58618   0.59135   0.59892   0.60594   0.60987
 Alpha virt. eigenvalues --    0.61722   0.61971   0.62373   0.62913   0.63301
 Alpha virt. eigenvalues --    0.64088   0.64284   0.65048   0.65378   0.65862
 Alpha virt. eigenvalues --    0.67106   0.67320   0.67718   0.68126   0.68885
 Alpha virt. eigenvalues --    0.69271   0.69685   0.69914   0.70835   0.70962
 Alpha virt. eigenvalues --    0.71249   0.71847   0.72088   0.72697   0.72802
 Alpha virt. eigenvalues --    0.73175   0.73679   0.73996   0.74469   0.74699
 Alpha virt. eigenvalues --    0.75236   0.75341   0.75513   0.75621   0.76296
 Alpha virt. eigenvalues --    0.76585   0.76721   0.76796   0.77139   0.77559
 Alpha virt. eigenvalues --    0.77826   0.78080   0.78537   0.78832   0.79043
 Alpha virt. eigenvalues --    0.79381   0.79699   0.80096   0.81097   0.81347
 Alpha virt. eigenvalues --    0.81853   0.82315   0.82420   0.82848   0.83056
 Alpha virt. eigenvalues --    0.83842   0.84048   0.84480   0.84865   0.85180
 Alpha virt. eigenvalues --    0.85380   0.86040   0.86197   0.86822   0.86870
 Alpha virt. eigenvalues --    0.87277   0.87509   0.87758   0.88334   0.88762
 Alpha virt. eigenvalues --    0.88856   0.89622   0.89933   0.91070   0.91140
 Alpha virt. eigenvalues --    0.91963   0.92252   0.92852   0.93773   0.94995
 Alpha virt. eigenvalues --    0.95097   0.95483   0.97548   0.97994   0.98299
 Alpha virt. eigenvalues --    0.98830   0.98951   0.99646   1.00372   1.00908
 Alpha virt. eigenvalues --    1.01234   1.02382   1.03357   1.03924   1.04415
 Alpha virt. eigenvalues --    1.05207   1.05509   1.06084   1.06900   1.07005
 Alpha virt. eigenvalues --    1.07588   1.08311   1.08935   1.09703   1.10025
 Alpha virt. eigenvalues --    1.10955   1.11493   1.12281   1.12673   1.13312
 Alpha virt. eigenvalues --    1.14328   1.14796   1.15351   1.16726   1.16906
 Alpha virt. eigenvalues --    1.18379   1.20326   1.20430   1.21114   1.21558
 Alpha virt. eigenvalues --    1.22163   1.22737   1.23828   1.24720   1.24766
 Alpha virt. eigenvalues --    1.25465   1.25732   1.26495   1.27246   1.28399
 Alpha virt. eigenvalues --    1.28510   1.29784   1.30170   1.31437   1.32567
 Alpha virt. eigenvalues --    1.32851   1.34008   1.34374   1.35077   1.35521
 Alpha virt. eigenvalues --    1.36277   1.36910   1.37789   1.38141   1.38904
 Alpha virt. eigenvalues --    1.39203   1.40191   1.40659   1.40996   1.41445
 Alpha virt. eigenvalues --    1.42211   1.42326   1.42592   1.42811   1.44349
 Alpha virt. eigenvalues --    1.45835   1.46798   1.47763   1.47958   1.48860
 Alpha virt. eigenvalues --    1.49562   1.50087   1.50310   1.51062   1.52391
 Alpha virt. eigenvalues --    1.53681   1.54469   1.54975   1.56872   1.57274
 Alpha virt. eigenvalues --    1.58005   1.59571   1.60158   1.60299   1.61833
 Alpha virt. eigenvalues --    1.63316   1.63585   1.64943   1.65725   1.65884
 Alpha virt. eigenvalues --    1.66347   1.66609   1.67821   1.68511   1.68999
 Alpha virt. eigenvalues --    1.69286   1.69980   1.70277   1.70588   1.71351
 Alpha virt. eigenvalues --    1.71597   1.72368   1.72944   1.73144   1.73888
 Alpha virt. eigenvalues --    1.74294   1.74647   1.74773   1.75343   1.75911
 Alpha virt. eigenvalues --    1.76031   1.76936   1.77569   1.78089   1.78706
 Alpha virt. eigenvalues --    1.79438   1.79747   1.80323   1.80817   1.81575
 Alpha virt. eigenvalues --    1.81820   1.82507   1.83128   1.83256   1.83440
 Alpha virt. eigenvalues --    1.83824   1.84547   1.85140   1.85670   1.86153
 Alpha virt. eigenvalues --    1.86491   1.86934   1.87715   1.87820   1.88342
 Alpha virt. eigenvalues --    1.88981   1.89565   1.90569   1.91381   1.91623
 Alpha virt. eigenvalues --    1.91657   1.93049   1.93405   1.93947   1.94586
 Alpha virt. eigenvalues --    1.95795   1.96005   1.96953   1.97114   1.98432
 Alpha virt. eigenvalues --    1.99221   1.99637   1.99794   1.99983   2.00168
 Alpha virt. eigenvalues --    2.02178   2.02300   2.02840   2.03174   2.04717
 Alpha virt. eigenvalues --    2.05157   2.05963   2.06902   2.07065   2.08512
 Alpha virt. eigenvalues --    2.08845   2.09187   2.10432   2.10651   2.11304
 Alpha virt. eigenvalues --    2.13452   2.14508   2.15046   2.15724   2.16165
 Alpha virt. eigenvalues --    2.17436   2.17744   2.18299   2.18489   2.19269
 Alpha virt. eigenvalues --    2.19372   2.19915   2.21953   2.22815   2.23113
 Alpha virt. eigenvalues --    2.23975   2.24715   2.25107   2.27142   2.27725
 Alpha virt. eigenvalues --    2.27890   2.28921   2.29492   2.30230   2.30892
 Alpha virt. eigenvalues --    2.31083   2.31567   2.31817   2.32175   2.33499
 Alpha virt. eigenvalues --    2.34226   2.34467   2.35313   2.36670   2.37013
 Alpha virt. eigenvalues --    2.37981   2.38607   2.39419   2.40429   2.41195
 Alpha virt. eigenvalues --    2.42131   2.42727   2.45072   2.46302   2.46683
 Alpha virt. eigenvalues --    2.47262   2.48023   2.48881   2.49648   2.49882
 Alpha virt. eigenvalues --    2.50595   2.51475   2.52177   2.53178   2.54099
 Alpha virt. eigenvalues --    2.54604   2.55295   2.55947   2.56998   2.57588
 Alpha virt. eigenvalues --    2.58218   2.59085   2.60474   2.60654   2.62318
 Alpha virt. eigenvalues --    2.63879   2.64177   2.64983   2.66382   2.66953
 Alpha virt. eigenvalues --    2.67687   2.69006   2.69848   2.70380   2.70894
 Alpha virt. eigenvalues --    2.71899   2.74967   2.75413   2.77123   2.78374
 Alpha virt. eigenvalues --    2.80126   2.80976   2.81623   2.84211   2.84723
 Alpha virt. eigenvalues --    2.87895   2.90327   2.90485   2.91311   2.92244
 Alpha virt. eigenvalues --    2.92399   2.93448   2.94209   2.97561   3.00058
 Alpha virt. eigenvalues --    3.02289   3.04026   3.04347   3.05329   3.09161
 Alpha virt. eigenvalues --    3.09940   3.16243   3.23215   3.34441   3.68338
 Alpha virt. eigenvalues --    3.73735   3.76487   3.84875   3.85094   3.86834
 Alpha virt. eigenvalues --    3.89784   3.94812   3.95827   3.98533   4.02958
 Alpha virt. eigenvalues --    4.03411   4.04353   4.04889   4.07694   4.09858
 Alpha virt. eigenvalues --    4.11858   4.12128   4.13401   4.17641   4.19143
 Alpha virt. eigenvalues --    4.20717   4.21158   4.22984   4.23642   4.24617
 Alpha virt. eigenvalues --    4.27159   4.31081   4.32364   4.34802   4.36305
 Alpha virt. eigenvalues --    4.38386   4.38824   4.41652   4.46663   4.46843
 Alpha virt. eigenvalues --    4.49271   4.55183   4.59865   4.64295   4.65568
 Alpha virt. eigenvalues --    4.72640
          Condensed to atoms (all electrons):
 Mulliken charges:
               1
     1  N   -0.766255
     2  H    0.418357
     3  H    0.416249
     4  H    0.398710
     5  C   -0.108825
     6  H    0.226035
     7  C    0.641335
     8  C   -0.280553
     9  H    0.182413
    10  H    0.167219
    11  O   -0.550142
    12  C   -0.369353
    13  H    0.203672
    14  H    0.206972
    15  C    0.592095
    16  O   -0.494636
    17  O   -0.568091
    18  N   -0.606247
    19  H    0.381899
    20  C   -0.082271
    21  H    0.189769
    22  C    0.650948
    23  C   -0.369909
    24  H    0.199087
    25  H    0.157775
    26  O   -0.591819
    27  C    0.079863
    28  C    0.020544
    29  H    0.183189
    30  C    0.077216
    31  C    0.325793
    32  C   -0.237805
    33  H    0.144001
    34  N   -0.683789
    35  H    0.343272
    36  C   -0.170420
    37  H    0.148021
    38  C   -0.163433
    39  H    0.149086
    40  C   -0.222024
    41  H    0.144243
    42  N   -0.604455
    43  H    0.364372
    44  C   -0.224081
    45  H    0.111109
    46  C    0.645308
    47  C    0.258912
    48  H    0.136168
    49  O   -0.699407
    50  C   -0.524324
    51  H    0.182166
    52  H    0.170063
    53  H    0.178405
    54  O   -0.445767
    55  N   -0.627655
    56  H    0.324675
    57  C   -0.058495
    58  H    0.166991
    59  C    0.580943
    60  C   -0.268304
    61  H    0.151686
    62  H    0.155231
    63  O   -0.462373
    64  C   -0.274357
    65  H    0.180873
    66  H    0.139539
    67  C   -0.183640
    68  H    0.230489
    69  H    0.175654
    70  N   -0.598750
    71  H    0.344399
    72  N   -0.793048
    73  H    0.350393
    74  H    0.468828
    75  N   -0.764260
    76  H    0.362194
    77  H    0.367424
    78  C    0.793153
    79  O   -0.568495
    80  H    0.418945
    81  H    0.457298
 Sum of Mulliken charges =   1.00000
 Mulliken charges with hydrogens summed into heavy atoms:
               1
     1  N    0.467060
     5  C    0.117210
     7  C    0.641335
     8  C    0.069079
    11  O   -0.550142
    12  C    0.041291
    15  C    0.592095
    16  O   -0.494636
    17  O   -0.110792
    18  N   -0.224348
    20  C    0.107499
    22  C    0.650948
    23  C   -0.013047
    26  O   -0.591819
    27  C    0.079863
    28  C    0.203733
    30  C    0.077216
    31  C    0.325793
    32  C   -0.093804
    34  N   -0.340517
    36  C   -0.022399
    38  C   -0.014347
    40  C   -0.077781
    42  N   -0.240083
    44  C   -0.112972
    46  C    0.645308
    47  C    0.395081
    49  O   -0.699407
    50  C    0.006309
    54  O   -0.445767
    55  N   -0.302981
    57  C    0.108496
    59  C    0.580943
    60  C    0.038614
    63  O   -0.462373
    64  C    0.046055
    67  C    0.222504
    70  N   -0.254351
    72  N    0.026174
    75  N   -0.034642
    78  C    0.793153
    79  O   -0.149549
 Electronic spatial extent (au):  <R**2>=          31839.6274
 Charge=              1.0000 electrons
 Dipole moment (field-independent basis, Debye):
    X=            -13.3339    Y=             13.3240    Z=             -5.1201  Tot=             19.5330
 Quadrupole moment (field-independent basis, Debye-Ang):
   XX=            -97.8577   YY=           -168.3911   ZZ=           -133.7509
   XY=            -16.6614   XZ=            -63.6034   YZ=            -25.7720
 Traceless Quadrupole moment (field-independent basis, Debye-Ang):
   XX=             35.4755   YY=            -35.0579   ZZ=             -0.4177
   XY=            -16.6614   XZ=            -63.6034   YZ=            -25.7720
 Octapole moment (field-independent basis, Debye-Ang**2):
  XXX=             17.9875  YYY=           -874.8537  ZZZ=             12.8012  XYY=            223.3542
  XXY=           -154.6078  XXZ=            408.9063  XZZ=            142.7480  YZZ=             79.9722
  YYZ=            -78.4310  XYZ=           -238.8616
 Hexadecapole moment (field-independent basis, Debye-Ang**3):
 XXXX=         -15390.2475 YYYY=          -8074.1900 ZZZZ=          -6220.3474 XXXY=           -406.7042
 XXXZ=           1766.4673 YYYX=           1168.2894 YYYZ=           -639.2274 ZZZX=           2782.8374
 ZZZY=          -1169.4928 XXYY=          -3685.5318 XXZZ=          -4680.1452 YYZZ=          -1244.5904
 XXYZ=            901.8159 YYXZ=            146.8669 ZZXY=            147.8800
 N-N= 5.346552223417D+03 E-N=-1.545569833398D+04  KE= 2.034896119760D+03
 Unable to Open any file for archive entry.
 1\1\GINC-QML-002\SP\RB3LYP\6-31G(d)\C26H39N8O8(1+)\KENGMITH\26-May-202
 2\0\\# B3LYP/6-31G* guess=read geom=check nosymm integral(ultrafinegri
 d)\\Candidate Structure: Conf:472 Charge calc in gas phase\\1,1\N,0,-5
 .89506976,2.4831579194,2.8456185847\H,0,-6.3255244884,2.475497659,1.89
 8130615\H,0,-5.8246235602,1.4934708158,3.1693490859\H,0,-6.4713324052,
 3.0420631286,3.4800412414\C,0,-4.4521836285,2.941760757,2.7760747891\H
 ,0,-4.3806549685,3.7177419099,2.0174161513\C,0,-3.7352633622,1.6385701
 654,2.3390420643\C,0,-4.0231634397,3.4922452974,4.1561863886\H,0,-4.43
 08927833,4.5052226213,4.2463939567\H,0,-4.4775437239,2.8790059141,4.94
 44161268\O,0,-4.1631956838,0.5768000263,2.8087233524\C,0,-2.5021526581
 ,3.5116325221,4.4056959713\H,0,-2.1428948726,2.5189554036,4.6923461131
 \H,0,-2.2835874548,4.1751194024,5.2507182504\C,0,-1.7111680438,3.96341
 36902,3.187419154\O,0,-2.2035228983,4.6226313627,2.2837692643\O,0,-0.4
 746847384,3.4769149059,3.1796469441\N,0,-2.7541395845,1.7847052984,1.4
 478416138\H,0,-2.4259924419,2.715613025,1.1916248836\C,0,-1.9875428718
 ,0.7042794346,0.8405432412\H,0,-2.0145699814,-0.155141501,1.5160679575
 \C,0,-0.5428112222,1.2331144228,0.6696452617\C,0,-2.5922537712,0.28944
 52021,-0.536785359\H,0,-1.9716827474,-0.5224120641,-0.93122416\H,0,-2.
 4835067467,1.137111369,-1.2248085507\O,0,-0.3359022694,2.45954028,0.68
 16430737\C,0,-4.0249438817,-0.1518677305,-0.4378742381\C,0,-4.45394746
 91,-1.4455870293,-0.2705815808\H,0,-3.8763340855,-2.3601154963,-0.2582
 670432\C,0,-5.2093633961,0.6710054625,-0.3737076319\C,0,-6.3177403421,
 -0.1976091982,-0.1362132801\C,0,-5.4546724509,2.0516285301,-0.48470637
 64\H,0,-4.6428571125,2.7385663255,-0.7092642744\N,0,-5.8221873498,-1.4
 783000903,-0.0886847729\H,0,-6.3707688883,-2.3158459044,0.0352051038\C
 ,0,-7.8304770666,1.6507825431,-0.0568219309\H,0,-8.8361651519,2.048075
 1525,0.0472835187\C,0,-7.6238175642,0.2769487189,0.0282641341\H,0,-8.4
 521669944,-0.4022322521,0.2105056411\C,0,-6.7550375367,2.5334848362,-0
 .3192227973\H,0,-6.9553048445,3.5950599305,-0.4436147121\N,0,0.3681819
 959,0.2724894483,0.4760439538\H,0,-0.0006113491,-0.6776875698,0.415742
 6889\C,0,1.6981919855,0.4726794755,0.0162196651\H,0,2.4935480967,0.262
 504192,0.7237226668\C,0,1.9326981308,1.1495800865,-1.1649367414\C,0,0.
 8658520699,-1.9446629418,-1.6072672189\H,0,0.7969031006,-1.0670149776,
 -2.2752272229\O,0,1.0313821591,1.4347727997,-2.0370882032\C,0,2.115092
 8124,-2.7761705636,-1.7273096133\H,0,2.9997855682,-2.1315540289,-1.701
 6097355\H,0,2.1133723622,-3.2911909088,-2.6989518616\H,0,2.1584465497,
 -3.5216162291,-0.9296832281\O,0,-0.0677670713,-2.227995808,-0.86555636
 81\N,0,3.2642528277,1.572477078,-1.4085704213\H,0,3.942924804,1.200622
 5412,-0.7555199469\C,0,3.7448571244,1.7274242322,-2.7616384286\H,0,2.8
 666285012,1.6839234129,-3.4084787534\C,0,4.6574485193,0.6143910242,-3.
 2790439223\C,0,4.4607861316,3.0846309005,-3.0015370042\H,0,4.611693244
 ,3.1982420808,-4.0807158082\H,0,5.4634028117,3.0540798743,-2.555931892
 8\O,0,5.0367084502,0.5347466736,-4.4263671288\C,0,3.7262935815,4.29735
 34813,-2.4099634275\H,0,3.785914069,4.2600922062,-1.3174414249\H,0,4.2
 552195314,5.2094524573,-2.7208451981\C,0,2.2348159532,4.4253800778,-2.
 7435723131\H,0,1.6700240364,3.6033558255,-2.3018690242\H,0,1.842274261
 1,5.3581374362,-2.3215848802\N,0,1.975769891,4.4425947374,-4.195620217
 3\H,0,2.4738589441,5.1410534784,-4.7320724744\N,0,0.5541913066,2.59697
 26094,-4.3208798758\H,0,-0.1796871486,2.1342373333,-4.8392535818\H,0,0
 .8255099083,2.1708366827,-3.3725993148\N,0,0.8369844635,3.9784248031,-
 6.1628826177\H,0,1.2736618552,4.782038115,-6.5909670628\H,0,0.57434753
 44,3.239650685,-6.799984657\C,0,1.1318997578,3.6531328336,-4.872332107
 2\O,0,5.0341596501,-0.2664869428,-2.3194690522\H,0,5.6366710216,-0.901
 0306091,-2.7532185106\H,0,-0.1506370406,3.4509900013,2.2406869501\\Ver
 sion=ES64L-G16RevC.01\HF=-2053.8962657\RMSD=6.761e-09\Dipole=-3.372717
 6,2.30189,-1.0806941\Quadrupole=26.3751954,-26.0646721,-0.3105233,-12.
 3873725,-47.2875323,-19.160847\PG=C01 [X(C26H39N8O8)]\\@
 The archive entry for this job was punched.


 Spring appears, and we are once more children.
                                  -- Anonymous
 Job cpu time:       0 days  0 hours  3 minutes 17.0 seconds.
 Elapsed time:       0 days  0 hours  0 minutes 50.0 seconds.
 File lengths (MBytes):  RWF=    376 Int=      0 D2E=      0 Chk=     56 Scr=     16
 Normal termination of Gaussian 16 at Thu May 26 18:13:39 2022.
