 Entering Gaussian System, Link 0=/opt/software/Gaussian/g16-AVX2-C.01/g16/g16
 Input=charge-conf-172.com
 Output=charge-conf-172.log
 Initial command:
 /opt/software/Gaussian/g16-AVX2-C.01/g16/l1.exe "/mnt/gs21/scratch/kengmith/Gau-10860.inp" -scrdir="/mnt/gs21/scratch/kengmith/"
 Entering Link 1 = /opt/software/Gaussian/g16-AVX2-C.01/g16/l1.exe PID=     10875.
  
 Copyright (c) 1988-2019, Gaussian, Inc.  All Rights Reserved.
  
 This is part of the Gaussian(R) 16 program.  It is based on
 the Gaussian(R) 09 system (copyright 2009, Gaussian, Inc.),
 the Gaussian(R) 03 system (copyright 2003, Gaussian, Inc.),
 the Gaussian(R) 98 system (copyright 1998, Gaussian, Inc.),
 the Gaussian(R) 94 system (copyright 1995, Gaussian, Inc.),
 the Gaussian 92(TM) system (copyright 1992, Gaussian, Inc.),
 the Gaussian 90(TM) system (copyright 1990, Gaussian, Inc.),
 the Gaussian 88(TM) system (copyright 1988, Gaussian, Inc.),
 the Gaussian 86(TM) system (copyright 1986, Carnegie Mellon
 University), and the Gaussian 82(TM) system (copyright 1983,
 Carnegie Mellon University). Gaussian is a federally registered
 trademark of Gaussian, Inc.
  
 This software contains proprietary and confidential information,
 including trade secrets, belonging to Gaussian, Inc.
  
 This software is provided under written license and may be
 used, copied, transmitted, or stored only in accord with that
 written license.
  
 The following legend is applicable only to US Government
 contracts under FAR:
  
                    RESTRICTED RIGHTS LEGEND
  
 Use, reproduction and disclosure by the US Government is
 subject to restrictions as set forth in subparagraphs (a)
 and (c) of the Commercial Computer Software - Restricted
 Rights clause in FAR 52.227-19.
  
 Gaussian, Inc.
 340 Quinnipiac St., Bldg. 40, Wallingford CT 06492
  
  
 ---------------------------------------------------------------
 Warning -- This program may not be used in any manner that
 competes with the business of Gaussian, Inc. or will provide
 assistance to any competitor of Gaussian, Inc.  The licensee
 of this program is prohibited from giving any competitor of
 Gaussian, Inc. access to this program.  By using this program,
 the user acknowledges that Gaussian, Inc. is engaged in the
 business of creating and licensing software in the field of
 computational chemistry and represents and warrants to the
 licensee that it is not a competitor of Gaussian, Inc. and that
 it will not use this program in any manner prohibited above.
 ---------------------------------------------------------------
  

 Cite this work as:
 Gaussian 16, Revision C.01,
 M. J. Frisch, G. W. Trucks, H. B. Schlegel, G. E. Scuseria, 
 M. A. Robb, J. R. Cheeseman, G. Scalmani, V. Barone, 
 G. A. Petersson, H. Nakatsuji, X. Li, M. Caricato, A. V. Marenich, 
 J. Bloino, B. G. Janesko, R. Gomperts, B. Mennucci, H. P. Hratchian, 
 J. V. Ortiz, A. F. Izmaylov, J. L. Sonnenberg, D. Williams-Young, 
 F. Ding, F. Lipparini, F. Egidi, J. Goings, B. Peng, A. Petrone, 
 T. Henderson, D. Ranasinghe, V. G. Zakrzewski, J. Gao, N. Rega, 
 G. Zheng, W. Liang, M. Hada, M. Ehara, K. Toyota, R. Fukuda, 
 J. Hasegawa, M. Ishida, T. Nakajima, Y. Honda, O. Kitao, H. Nakai, 
 T. Vreven, K. Throssell, J. A. Montgomery, Jr., J. E. Peralta, 
 F. Ogliaro, M. J. Bearpark, J. J. Heyd, E. N. Brothers, K. N. Kudin, 
 V. N. Staroverov, T. A. Keith, R. Kobayashi, J. Normand, 
 K. Raghavachari, A. P. Rendell, J. C. Burant, S. S. Iyengar, 
 J. Tomasi, M. Cossi, J. M. Millam, M. Klene, C. Adamo, R. Cammi, 
 J. W. Ochterski, R. L. Martin, K. Morokuma, O. Farkas, 
 J. B. Foresman, and D. J. Fox, Gaussian, Inc., Wallingford CT, 2019.
 
 ******************************************
 Gaussian 16:  ES64L-G16RevC.01  3-Jul-2019
                11-Aug-2022 
 ******************************************
 %mem=8gb
 %nproc=4
 Will use up to    4 processors via shared memory.
 %chk=conf-172.chk
 ----------------------------------------------------------------------
 # B3LYP/6-31G* empiricaldispersion=gd3bj guess=read geom=check nosymm 
 integral(ultrafinegrid)
 ----------------------------------------------------------------------
 1/29=2,38=1,172=1/1;
 2/12=2,15=1,40=1/2;
 3/5=1,6=6,7=1,11=2,14=-4,25=1,30=1,74=-5,75=-5,116=-2,124=41/1,2,3;
 4/5=1/1;
 5/5=2,38=6/2;
 6/7=2,8=2,9=2,10=2,28=1/1;
 99/5=1,9=1/99;
 ------------------------------------------------------
 Candidate Structure: Conf:172 Charge calc in gas phase
 ------------------------------------------------------
 Structure from the checkpoint file:  "conf-172.chk"
 Charge =  1 Multiplicity = 1
 Redundant internal coordinates found in file.  (old form).
 N,0,1.7913405228,7.8277825,-0.3491739364
 H,0,1.9154876271,7.8978051919,0.6629915186
 H,0,0.7391015713,7.7706771298,-0.5292640816
 H,0,2.1635289179,8.6899994527,-0.8130772196
 C,0,2.4611168874,6.601686912,-0.8868267492
 H,0,3.4880837401,6.5574980774,-0.5204836989
 H,0,1.9049336075,5.7189744563,-0.5599490514
 C,0,2.3933667923,6.6571728094,-2.409345485
 O,0,1.3110238875,6.8638735712,-2.9760702886
 N,0,3.5632889555,6.4893127951,-3.0319769174
 H,0,4.4171008298,6.3147915078,-2.484654632
 C,0,3.6884992057,6.5094801943,-4.4721099161
 H,0,4.7322449508,6.2982370509,-4.714395866
 H,0,3.464159012,7.5040522587,-4.8571773295
 C,0,2.7795546171,5.4745103739,-5.1200852304
 O,0,2.5470418887,4.3765842087,-4.6065733526
 N,0,2.2868417982,5.8506589089,-6.3201867141
 H,0,2.4220694135,6.815427627,-6.5944083299
 C,0,1.293878279,5.0465048838,-7.005782267
 H,0,1.3527796587,5.2412283936,-8.0816534285
 H,0,1.5101518342,3.9929746737,-6.8341078306
 C,0,-0.1468529647,5.2959727608,-6.5420210206
 O,0,-0.9627040862,4.388524683,-6.5224792678
 N,0,-0.450863608,6.5938803786,-6.2137805605
 H,0,0.2611226755,7.3132545086,-6.276482122
 C,0,-1.8286974527,6.9799039372,-6.0003603381
 H,0,-2.202190126,7.6196773991,-6.8113333827
 H,0,-2.4244477622,6.0639950151,-6.0146671032
 C,0,-2.1278855283,7.7004721079,-4.6973085484
 O,0,-3.282829119,7.9482023527,-4.3728006185
 N,0,-1.0458618798,8.1077634068,-3.9403431934
 H,0,-0.1932991263,7.5498158338,-4.0163199047
 C,0,-1.2871353629,8.6753126114,-2.6080236365
 H,0,-0.4061438778,9.2448739121,-2.312559135
 H,0,-2.1458563081,9.3473381473,-2.6809949058
 C,0,-1.5491014223,7.5944292272,-1.5594424568
 O,0,-0.7966900195,7.4240721103,-0.5813284014
 N,0,-2.6004867168,6.7979344054,-1.7886970734
 H,0,-3.1823698857,7.0111980488,-2.5957859022
 C,0,-2.770504899,5.525705616,-1.1058261355
 H,0,-2.3919152226,5.6230973838,-0.0856686604
 H,0,-3.83061299,5.274086333,-1.0551563778
 C,0,-2.0509758645,4.342836034,-1.7746239994
 O,0,-2.4251860781,3.2036235289,-1.5521453963
 N,0,-1.0205064927,4.6490376706,-2.6298519044
 H,0,-0.5296574252,5.5248168921,-2.4969945561
 C,0,-0.1901849148,3.5658803056,-3.100539021
 H,0,-0.8324346926,2.6998669233,-3.2758338837
 H,0,0.284332331,3.8424737526,-4.0446526365
 C,0,0.8991314479,3.2095054349,-2.0868775586
 O,0,1.1238706564,3.8813122931,-1.0815761014
 N,0,1.6316295364,2.1044168701,-2.3904093182
 H,0,1.3996718391,1.5771190287,-3.2208834973
 C,0,2.6402537063,1.5881781257,-1.486865531
 H,0,2.7479067966,0.5106691941,-1.6320235924
 H,0,2.3107008909,1.7524673642,-0.4568669349
 C,0,4.0319854421,2.2058700228,-1.6105762084
 O,0,4.9661429516,1.7588085707,-0.9401562776
 N,0,4.1740076618,3.2520832053,-2.4571949496
 H,0,3.4222113262,3.5571610954,-3.076087756
 C,0,5.5006331778,3.7909595806,-2.6850778833
 H,0,6.2141519819,2.974136991,-2.8337539696
 H,0,5.478255011,4.4005545919,-3.5882876609
 C,0,5.9822060355,4.6742644513,-1.5296288306
 O,0,5.8035784565,5.9098650378,-1.5077667582
 N,0,6.6258131274,4.036317222,-0.5451093872
 H,0,6.5616997196,3.0208296639,-0.5318902092
 C,0,7.2750030085,4.7748597897,0.5104049098
 H,0,6.546924044,5.3469861832,1.098953414
 H,0,7.7663903448,4.06212924,1.1782219385
 C,0,8.3354190053,5.7159900044,-0.0840320836
 O,0,8.9243791082,5.4514745114,-1.1284675895
 N,0,8.5909405708,6.8344443444,0.6394231117
 H,0,7.9988379254,7.0727535029,1.4223780447
 C,0,9.5767646867,7.813628879,0.1906607241
 H,0,10.4622491966,7.2763889036,-0.1583516153
 H,0,9.8459809335,8.4555902596,1.0290875254
 C,0,9.002694687,8.7048277553,-0.9185020099
 O,0,8.6058097477,9.8508904661,-0.683794252
 N,0,8.9369525123,8.1236319132,-2.1394836998
 H,0,9.1013943502,7.1184539155,-2.1823969428
 C,0,8.3791743329,8.8130265725,-3.2952666001
 H,0,8.7604271087,9.8395002883,-3.3048470056
 H,0,8.7012175825,8.3025082151,-4.2025233782
 C,0,6.8473237443,8.8300239131,-3.2787218067
 O,0,6.164234247,8.2471858832,-4.1254340214
 N,0,6.3021877641,9.5471960208,-2.2622687384
 H,0,6.970116404,9.9540187695,-1.6018677791
 C,0,4.9613822453,9.2871622695,-1.7739243548
 H,0,4.8563794024,9.8043320394,-0.81721193
 H,0,4.8417696703,8.2164203278,-1.5850749605
 C,0,3.7622266889,9.7487792737,-2.6012154467
 O,0,2.6494314666,9.8273411444,-2.0507652617
 N,0,3.9432890346,10.0732944294,-3.8919547941
 H,0,4.7954670842,9.7482119904,-4.3403709303
 C,0,2.8942204696,10.7259375946,-4.6594966208
 H,0,3.3342870095,11.0733513727,-5.597675257
 H,0,2.5204207332,11.5862155131,-4.1020449718
 C,0,1.7117344644,9.818050928,-5.0006143345
 O,0,1.8071035186,8.7683664697,-5.6206115259
 O,0,0.5616733125,10.3229767117,-4.5752997502
 H,0,-0.1485063273,9.6404442081,-4.6933229648
 Recover connectivity data from disk.
                           ----------------------------
                           !    Current Parameters    !
                           ! (Angstroms and Degrees)  !
 --------------------------                            --------------------------
 ! Name  Definition              Value                                          !
 --------------------------------------------------------------------------------
 ! R1    R(1,2)                  1.0222                                         !
 ! R2    R(1,3)                  1.0691                                         !
 ! R3    R(1,4)                  1.0474                                         !
 ! R4    R(1,5)                  1.497                                          !
 ! R5    R(5,6)                  1.0912                                         !
 ! R6    R(5,7)                  1.0933                                         !
 ! R7    R(5,8)                  1.525                                          !
 ! R8    R(8,9)                  1.2391                                         !
 ! R9    R(8,10)                 1.3359                                         !
 ! R10   R(10,11)                1.0291                                         !
 ! R11   R(10,12)                1.4457                                         !
 ! R12   R(12,13)                1.0921                                         !
 ! R13   R(12,14)                1.0899                                         !
 ! R14   R(12,15)                1.5222                                         !
 ! R15   R(15,16)                1.2342                                         !
 ! R16   R(15,17)                1.3507                                         !
 ! R17   R(17,18)                1.0121                                         !
 ! R18   R(17,19)                1.4501                                         !
 ! R19   R(19,20)                1.0949                                         !
 ! R20   R(19,21)                1.0891                                         !
 ! R21   R(19,22)                1.534                                          !
 ! R22   R(22,23)                1.2204                                         !
 ! R23   R(22,24)                1.3729                                         !
 ! R24   R(24,25)                1.0141                                         !
 ! R25   R(24,26)                1.4467                                         !
 ! R26   R(26,27)                1.0984                                         !
 ! R27   R(26,28)                1.0927                                         !
 ! R28   R(26,29)                1.5188                                         !
 ! R29   R(29,30)                1.225                                          !
 ! R30   R(29,31)                1.3819                                         !
 ! R31   R(31,32)                1.0217                                         !
 ! R32   R(31,33)                1.4681                                         !
 ! R33   R(33,34)                1.0899                                         !
 ! R34   R(33,35)                1.0929                                         !
 ! R35   R(33,36)                1.5285                                         !
 ! R36   R(36,37)                1.2457                                         !
 ! R37   R(36,38)                1.3388                                         !
 ! R38   R(38,39)                1.0176                                         !
 ! R39   R(38,40)                1.4539                                         !
 ! R40   R(40,41)                1.0925                                         !
 ! R41   R(40,42)                1.0907                                         !
 ! R42   R(40,43)                1.5376                                         !
 ! R43   R(43,44)                1.2196                                         !
 ! R44   R(43,45)                1.3737                                         !
 ! R45   R(45,46)                1.0127                                         !
 ! R46   R(45,47)                1.4437                                         !
 ! R47   R(47,48)                1.0923                                         !
 ! R48   R(47,49)                1.0923                                         !
 ! R49   R(47,50)                1.5301                                         !
 ! R50   R(50,51)                1.2298                                         !
 ! R51   R(50,52)                1.3601                                         !
 ! R52   R(52,53)                1.0107                                         !
 ! R53   R(52,54)                1.4492                                         !
 ! R54   R(54,55)                1.0926                                         !
 ! R55   R(54,56)                1.0938                                         !
 ! R56   R(54,57)                1.5277                                         !
 ! R57   R(57,58)                1.2337                                         !
 ! R58   R(57,59)                1.3533                                         !
 ! R59   R(59,60)                1.0204                                         !
 ! R60   R(59,61)                1.4499                                         !
 ! R61   R(61,62)                1.0947                                         !
 ! R62   R(61,63)                1.0899                                         !
 ! R63   R(61,64)                1.5321                                         !
 ! R64   R(64,65)                1.2486                                         !
 ! R65   R(64,66)                1.3381                                         !
 ! R66   R(66,67)                1.0176                                         !
 ! R67   R(66,68)                1.4426                                         !
 ! R68   R(68,69)                1.0972                                         !
 ! R69   R(68,70)                1.0934                                         !
 ! R70   R(68,71)                1.5374                                         !
 ! R71   R(71,72)                1.2279                                         !
 ! R72   R(71,73)                1.3563                                         !
 ! R73   R(73,74)                1.0101                                         !
 ! R74   R(73,75)                1.4602                                         !
 ! R75   R(75,76)                1.0929                                         !
 ! R76   R(75,77)                1.0897                                         !
 ! R77   R(75,78)                1.5343                                         !
 ! R78   R(78,79)                1.2353                                         !
 ! R79   R(78,80)                1.3538                                         !
 ! R80   R(80,81)                1.0194                                         !
 ! R81   R(80,82)                1.4568                                         !
 ! R82   R(82,83)                1.095                                          !
 ! R83   R(82,84)                1.0897                                         !
 ! R84   R(82,85)                1.532                                          !
 ! R85   R(85,86)                1.2342                                         !
 ! R86   R(85,87)                1.3582                                         !
 ! R87   R(87,88)                1.0236                                         !
 ! R88   R(87,89)                1.4505                                         !
 ! R89   R(89,90)                1.0926                                         !
 ! R90   R(89,91)                1.0938                                         !
 ! R91   R(89,92)                1.5282                                         !
 ! R92   R(92,93)                1.244                                          !
 ! R93   R(92,94)                1.3432                                         !
 ! R94   R(94,95)                1.0163                                         !
 ! R95   R(94,96)                1.4545                                         !
 ! R96   R(96,97)                1.0929                                         !
 ! R97   R(96,98)                1.0911                                         !
 ! R98   R(96,99)                1.5293                                         !
 ! R99   R(99,100)               1.2228                                         !
 ! R100  R(99,101)               1.3261                                         !
 ! R101  R(101,102)              0.992                                          !
 ! A1    A(2,1,3)              106.8588                                         !
 ! A2    A(2,1,4)              109.8168                                         !
 ! A3    A(2,1,5)              110.9414                                         !
 ! A4    A(3,1,4)              108.6084                                         !
 ! A5    A(3,1,5)              109.6407                                         !
 ! A6    A(4,1,5)              110.8642                                         !
 ! A7    A(1,5,6)              109.4907                                         !
 ! A8    A(1,5,7)              109.0432                                         !
 ! A9    A(1,5,8)              107.9922                                         !
 ! A10   A(6,5,7)              110.2232                                         !
 ! A11   A(6,5,8)              112.237                                          !
 ! A12   A(7,5,8)              107.7736                                         !
 ! A13   A(5,8,9)              120.0985                                         !
 ! A14   A(5,8,10)             114.9507                                         !
 ! A15   A(9,8,10)             124.9435                                         !
 ! A16   A(8,10,11)            120.0021                                         !
 ! A17   A(8,10,12)            122.5737                                         !
 ! A18   A(11,10,12)           117.4072                                         !
 ! A19   A(10,12,13)           107.5217                                         !
 ! A20   A(10,12,14)           110.2954                                         !
 ! A21   A(10,12,15)           111.2742                                         !
 ! A22   A(13,12,14)           107.149                                          !
 ! A23   A(13,12,15)           110.1645                                         !
 ! A24   A(14,12,15)           110.313                                          !
 ! A25   A(12,15,16)           122.6985                                         !
 ! A26   A(12,15,17)           113.9961                                         !
 ! A27   A(16,15,17)           123.2768                                         !
 ! A28   A(15,17,18)           117.2234                                         !
 ! A29   A(15,17,19)           121.0261                                         !
 ! A30   A(18,17,19)           119.4748                                         !
 ! A31   A(17,19,20)           109.2148                                         !
 ! A32   A(17,19,21)           109.0224                                         !
 ! A33   A(17,19,22)           114.2064                                         !
 ! A34   A(20,19,21)           108.4351                                         !
 ! A35   A(20,19,22)           108.5825                                         !
 ! A36   A(21,19,22)           107.2277                                         !
 ! A37   A(19,22,23)           120.7828                                         !
 ! A38   A(19,22,24)           115.7232                                         !
 ! A39   A(23,22,24)           123.442                                          !
 ! A40   A(22,24,25)           120.0265                                         !
 ! A41   A(22,24,26)           119.8964                                         !
 ! A42   A(25,24,26)           119.2427                                         !
 ! A43   A(24,26,27)           111.7367                                         !
 ! A44   A(24,26,28)           107.0772                                         !
 ! A45   A(24,26,29)           116.1533                                         !
 ! A46   A(27,26,28)           107.0474                                         !
 ! A47   A(27,26,29)           106.8655                                         !
 ! A48   A(28,26,29)           107.5482                                         !
 ! A49   A(26,29,30)           120.5946                                         !
 ! A50   A(26,29,31)           117.1006                                         !
 ! A51   A(30,29,31)           122.2433                                         !
 ! A52   A(29,31,32)           116.8511                                         !
 ! A53   A(29,31,33)           118.8395                                         !
 ! A54   A(32,31,33)           114.5644                                         !
 ! A55   A(31,33,34)           108.3729                                         !
 ! A56   A(31,33,35)           107.8337                                         !
 ! A57   A(31,33,36)           112.1692                                         !
 ! A58   A(34,33,35)           109.3843                                         !
 ! A59   A(34,33,36)           108.79                                           !
 ! A60   A(35,33,36)           110.2411                                         !
 ! A61   A(33,36,37)           122.1282                                         !
 ! A62   A(33,36,38)           115.9647                                         !
 ! A63   A(37,36,38)           121.8314                                         !
 ! A64   A(36,38,39)           117.4003                                         !
 ! A65   A(36,38,40)           122.1411                                         !
 ! A66   A(39,38,40)           119.2785                                         !
 ! A67   A(38,40,41)           108.6663                                         !
 ! A68   A(38,40,42)           109.7149                                         !
 ! A69   A(38,40,43)           114.4663                                         !
 ! A70   A(41,40,42)           108.3                                            !
 ! A71   A(41,40,43)           108.2148                                         !
 ! A72   A(42,40,43)           107.3108                                         !
 ! A73   A(40,43,44)           119.7145                                         !
 ! A74   A(40,43,45)           116.7664                                         !
 ! A75   A(44,43,45)           123.5019                                         !
 ! A76   A(43,45,46)           118.3383                                         !
 ! A77   A(43,45,47)           117.8514                                         !
 ! A78   A(46,45,47)           114.3832                                         !
 ! A79   A(45,47,48)           107.9981                                         !
 ! A80   A(45,47,49)           109.9795                                         !
 ! A81   A(45,47,50)           111.6059                                         !
 ! A82   A(48,47,49)           108.5109                                         !
 ! A83   A(48,47,50)           109.8921                                         !
 ! A84   A(49,47,50)           108.8037                                         !
 ! A85   A(47,50,51)           122.9846                                         !
 ! A86   A(47,50,52)           115.1389                                         !
 ! A87   A(51,50,52)           121.86                                           !
 ! A88   A(50,52,53)           118.9247                                         !
 ! A89   A(50,52,54)           121.676                                          !
 ! A90   A(53,52,54)           119.0895                                         !
 ! A91   A(52,54,55)           109.6976                                         !
 ! A92   A(52,54,56)           108.8986                                         !
 ! A93   A(52,54,57)           116.0739                                         !
 ! A94   A(55,54,56)           107.6329                                         !
 ! A95   A(55,54,57)           107.3521                                         !
 ! A96   A(56,54,57)           106.8577                                         !
 ! A97   A(54,57,58)           119.9538                                         !
 ! A98   A(54,57,59)           117.3126                                         !
 ! A99   A(58,57,59)           122.7272                                         !
 ! A100  A(57,59,60)           122.2232                                         !
 ! A101  A(57,59,61)           118.7939                                         !
 ! A102  A(60,59,61)           117.8821                                         !
 ! A103  A(59,61,62)           109.9007                                         !
 ! A104  A(59,61,63)           108.6227                                         !
 ! A105  A(59,61,64)           112.5412                                         !
 ! A106  A(62,61,63)           108.5518                                         !
 ! A107  A(62,61,64)           109.1317                                         !
 ! A108  A(63,61,64)           107.9977                                         !
 ! A109  A(61,64,65)           122.5996                                         !
 ! A110  A(61,64,66)           115.5447                                         !
 ! A111  A(65,64,66)           121.8508                                         !
 ! A112  A(64,66,67)           117.0666                                         !
 ! A113  A(64,66,68)           120.7122                                         !
 ! A114  A(67,66,68)           121.9887                                         !
 ! A115  A(66,68,69)           111.1508                                         !
 ! A116  A(66,68,70)           108.3869                                         !
 ! A117  A(66,68,71)           109.9316                                         !
 ! A118  A(69,68,70)           108.0903                                         !
 ! A119  A(69,68,71)           110.2372                                         !
 ! A120  A(70,68,71)           108.9791                                         !
 ! A121  A(68,71,72)           121.8608                                         !
 ! A122  A(68,71,73)           115.3728                                         !
 ! A123  A(72,71,73)           122.7507                                         !
 ! A124  A(71,73,74)           119.8375                                         !
 ! A125  A(71,73,75)           121.0814                                         !
 ! A126  A(74,73,75)           118.4085                                         !
 ! A127  A(73,75,76)           108.3912                                         !
 ! A128  A(73,75,77)           108.9886                                         !
 ! A129  A(73,75,78)           111.0444                                         !
 ! A130  A(76,75,77)           109.579                                          !
 ! A131  A(76,75,78)           110.9658                                         !
 ! A132  A(77,75,78)           107.8456                                         !
 ! A133  A(75,78,79)           121.4488                                         !
 ! A134  A(75,78,80)           114.884                                          !
 ! A135  A(79,78,80)           123.6428                                         !
 ! A136  A(78,80,81)           116.963                                          !
 ! A137  A(78,80,82)           122.0701                                         !
 ! A138  A(81,80,82)           119.668                                          !
 ! A139  A(80,82,83)           108.4959                                         !
 ! A140  A(80,82,84)           109.0072                                         !
 ! A141  A(80,82,85)           112.304                                          !
 ! A142  A(83,82,84)           109.207                                          !
 ! A143  A(83,82,85)           109.744                                          !
 ! A144  A(84,82,85)           108.0403                                         !
 ! A145  A(82,85,86)           122.7351                                         !
 ! A146  A(82,85,87)           114.5358                                         !
 ! A147  A(86,85,87)           122.7273                                         !
 ! A148  A(85,87,88)           115.5182                                         !
 ! A149  A(85,87,89)           121.8925                                         !
 ! A150  A(88,87,89)           117.2083                                         !
 ! A151  A(87,89,90)           107.3847                                         !
 ! A152  A(87,89,91)           109.5546                                         !
 ! A153  A(87,89,92)           119.2706                                         !
 ! A154  A(90,89,91)           107.5573                                         !
 ! A155  A(90,89,92)           104.8107                                         !
 ! A156  A(91,89,92)           107.6585                                         !
 ! A157  A(89,92,93)           118.7809                                         !
 ! A158  A(89,92,94)           119.1707                                         !
 ! A159  A(93,92,94)           122.0425                                         !
 ! A160  A(92,94,95)           117.3698                                         !
 ! A161  A(92,94,96)           121.217                                          !
 ! A162  A(95,94,96)           121.0272                                         !
 ! A163  A(94,96,97)           107.7698                                         !
 ! A164  A(94,96,98)           109.3453                                         !
 ! A165  A(94,96,99)           114.1422                                         !
 ! A166  A(97,96,98)           109.0183                                         !
 ! A167  A(97,96,99)           107.9725                                         !
 ! A168  A(98,96,99)           108.4888                                         !
 ! A169  A(96,99,100)          124.22                                           !
 ! A170  A(96,99,101)          111.9001                                         !
 ! A171  A(100,99,101)         123.8558                                         !
 ! A172  A(99,101,102)         108.707                                          !
 ! D1    D(2,1,5,6)            -50.2304                                         !
 ! D2    D(2,1,5,7)             70.4394                                         !
 ! D3    D(2,1,5,8)           -172.7121                                         !
 ! D4    D(3,1,5,6)           -168.0239                                         !
 ! D5    D(3,1,5,7)            -47.3541                                         !
 ! D6    D(3,1,5,8)             69.4944                                         !
 ! D7    D(4,1,5,6)             72.0678                                         !
 ! D8    D(4,1,5,7)           -167.2624                                         !
 ! D9    D(4,1,5,8)            -50.4139                                         !
 ! D10   D(1,5,8,9)            -50.9787                                         !
 ! D11   D(1,5,8,10)           128.0794                                         !
 ! D12   D(6,5,8,9)           -171.7609                                         !
 ! D13   D(6,5,8,10)             7.2972                                         !
 ! D14   D(7,5,8,9)             66.69                                           !
 ! D15   D(7,5,8,10)          -114.2519                                         !
 ! D16   D(5,8,10,11)            1.4346                                         !
 ! D17   D(5,8,10,12)          179.898                                          !
 ! D18   D(9,8,10,11)         -179.5595                                         !
 ! D19   D(9,8,10,12)           -1.0962                                         !
 ! D20   D(8,10,12,13)        -177.1312                                         !
 ! D21   D(8,10,12,14)          66.354                                          !
 ! D22   D(8,10,12,15)         -56.4106                                         !
 ! D23   D(11,10,12,13)          1.3697                                         !
 ! D24   D(11,10,12,14)       -115.145                                          !
 ! D25   D(11,10,12,15)        122.0903                                         !
 ! D26   D(10,12,15,16)        -35.3999                                         !
 ! D27   D(10,12,15,17)        146.4864                                         !
 ! D28   D(13,12,15,16)         83.7545                                         !
 ! D29   D(13,12,15,17)        -94.3592                                         !
 ! D30   D(14,12,15,16)       -158.1544                                         !
 ! D31   D(14,12,15,17)         23.7319                                         !
 ! D32   D(12,15,17,18)        -10.5617                                         !
 ! D33   D(12,15,17,19)       -173.3359                                         !
 ! D34   D(16,15,17,18)        171.337                                          !
 ! D35   D(16,15,17,19)          8.5628                                         !
 ! D36   D(15,17,19,20)       -154.9827                                         !
 ! D37   D(15,17,19,21)        -36.6631                                         !
 ! D38   D(15,17,19,22)         83.2357                                         !
 ! D39   D(18,17,19,20)         42.6243                                         !
 ! D40   D(18,17,19,21)        160.9439                                         !
 ! D41   D(18,17,19,22)        -79.1573                                         !
 ! D42   D(17,19,22,23)       -146.4051                                         !
 ! D43   D(17,19,22,24)         36.1308                                         !
 ! D44   D(20,19,22,23)         91.4662                                         !
 ! D45   D(20,19,22,24)        -85.9979                                         !
 ! D46   D(21,19,22,23)        -25.505                                          !
 ! D47   D(21,19,22,24)        157.0309                                         !
 ! D48   D(19,22,24,25)         -0.6533                                         !
 ! D49   D(19,22,24,26)        168.8104                                         !
 ! D50   D(23,22,24,25)       -178.0424                                         !
 ! D51   D(23,22,24,26)         -8.5787                                         !
 ! D52   D(22,24,26,27)       -109.2008                                         !
 ! D53   D(22,24,26,28)          7.7124                                         !
 ! D54   D(22,24,26,29)        127.8609                                         !
 ! D55   D(25,24,26,27)         60.3455                                         !
 ! D56   D(25,24,26,28)        177.2587                                         !
 ! D57   D(25,24,26,29)        -62.5928                                         !
 ! D58   D(24,26,29,30)       -172.8436                                         !
 ! D59   D(24,26,29,31)          9.9445                                         !
 ! D60   D(27,26,29,30)         61.7062                                         !
 ! D61   D(27,26,29,31)       -115.5057                                         !
 ! D62   D(28,26,29,30)        -52.9491                                         !
 ! D63   D(28,26,29,31)        129.8389                                         !
 ! D64   D(26,29,31,32)        -29.2416                                         !
 ! D65   D(26,29,31,33)       -173.4057                                         !
 ! D66   D(30,29,31,32)        153.5959                                         !
 ! D67   D(30,29,31,33)          9.4319                                         !
 ! D68   D(29,31,33,34)       -160.4522                                         !
 ! D69   D(29,31,33,35)        -42.1427                                         !
 ! D70   D(29,31,33,36)         79.4269                                         !
 ! D71   D(32,31,33,34)         54.6                                            !
 ! D72   D(32,31,33,35)        172.9095                                         !
 ! D73   D(32,31,33,36)        -65.5209                                         !
 ! D74   D(31,33,36,37)        117.3032                                         !
 ! D75   D(31,33,36,38)        -59.5831                                         !
 ! D76   D(34,33,36,37)         -2.5749                                         !
 ! D77   D(34,33,36,38)       -179.4612                                         !
 ! D78   D(35,33,36,37)       -122.5168                                         !
 ! D79   D(35,33,36,38)         60.5969                                         !
 ! D80   D(33,36,38,39)         -4.4616                                         !
 ! D81   D(33,36,38,40)        163.0238                                         !
 ! D82   D(37,36,38,39)        178.642                                          !
 ! D83   D(37,36,38,40)        -13.8725                                         !
 ! D84   D(36,38,40,41)         35.2198                                         !
 ! D85   D(36,38,40,42)        153.4569                                         !
 ! D86   D(36,38,40,43)        -85.858                                          !
 ! D87   D(39,38,40,41)       -157.5217                                         !
 ! D88   D(39,38,40,42)        -39.2846                                         !
 ! D89   D(39,38,40,43)         81.4005                                         !
 ! D90   D(38,40,43,44)       -158.1397                                         !
 ! D91   D(38,40,43,45)         20.4                                            !
 ! D92   D(41,40,43,44)         80.5339                                         !
 ! D93   D(41,40,43,45)       -100.9264                                         !
 ! D94   D(42,40,43,44)        -36.133                                          !
 ! D95   D(42,40,43,45)        142.4068                                         !
 ! D96   D(40,43,45,46)         25.4989                                         !
 ! D97   D(40,43,45,47)        170.1322                                         !
 ! D98   D(44,43,45,46)       -156.022                                          !
 ! D99   D(44,43,45,47)        -11.3888                                         !
 ! D100  D(43,45,47,48)         38.0462                                         !
 ! D101  D(43,45,47,49)        156.2958                                         !
 ! D102  D(43,45,47,50)        -82.8485                                         !
 ! D103  D(46,45,47,48)       -175.9635                                         !
 ! D104  D(46,45,47,49)        -57.7139                                         !
 ! D105  D(46,45,47,50)         63.1417                                         !
 ! D106  D(45,47,50,51)         -8.2952                                         !
 ! D107  D(45,47,50,52)        173.1573                                         !
 ! D108  D(48,47,50,51)       -128.079                                          !
 ! D109  D(48,47,50,52)         53.3735                                         !
 ! D110  D(49,47,50,51)        113.2439                                         !
 ! D111  D(49,47,50,52)        -65.3036                                         !
 ! D112  D(47,50,52,53)         -2.3339                                         !
 ! D113  D(47,50,52,54)       -175.8818                                         !
 ! D114  D(51,50,52,53)        179.1006                                         !
 ! D115  D(51,50,52,54)          5.5527                                         !
 ! D116  D(50,52,54,55)        151.9364                                         !
 ! D117  D(50,52,54,56)         34.3788                                         !
 ! D118  D(50,52,54,57)        -86.2031                                         !
 ! D119  D(53,52,54,55)        -21.6012                                         !
 ! D120  D(53,52,54,56)       -139.1588                                         !
 ! D121  D(53,52,54,57)        100.2593                                         !
 ! D122  D(52,54,57,58)       -175.134                                          !
 ! D123  D(52,54,57,59)          5.7658                                         !
 ! D124  D(55,54,57,58)        -52.0387                                         !
 ! D125  D(55,54,57,59)        128.8611                                         !
 ! D126  D(56,54,57,58)         63.1938                                         !
 ! D127  D(56,54,57,59)       -115.9064                                         !
 ! D128  D(54,57,59,60)         -7.1324                                         !
 ! D129  D(54,57,59,61)       -174.8775                                         !
 ! D130  D(58,57,59,60)        173.7944                                         !
 ! D131  D(58,57,59,61)          6.0493                                         !
 ! D132  D(57,59,61,62)         44.532                                          !
 ! D133  D(57,59,61,63)        163.1555                                         !
 ! D134  D(57,59,61,64)        -77.3142                                         !
 ! D135  D(60,59,61,62)       -123.7467                                         !
 ! D136  D(60,59,61,63)         -5.1232                                         !
 ! D137  D(60,59,61,64)        114.4071                                         !
 ! D138  D(59,61,64,65)        -92.0328                                         !
 ! D139  D(59,61,64,66)         88.759                                          !
 ! D140  D(62,61,64,65)        145.6859                                         !
 ! D141  D(62,61,64,66)        -33.5223                                         !
 ! D142  D(63,61,64,65)         27.8599                                         !
 ! D143  D(63,61,64,66)       -151.3483                                         !
 ! D144  D(61,64,66,67)        -13.3959                                         !
 ! D145  D(61,64,66,68)        172.0365                                         !
 ! D146  D(65,64,66,67)        167.3894                                         !
 ! D147  D(65,64,66,68)         -7.1782                                         !
 ! D148  D(64,66,68,69)         63.5306                                         !
 ! D149  D(64,66,68,70)       -177.8194                                         !
 ! D150  D(64,66,68,71)        -58.8009                                         !
 ! D151  D(67,66,68,69)       -110.765                                          !
 ! D152  D(67,66,68,70)          7.885                                          !
 ! D153  D(67,66,68,71)        126.9035                                         !
 ! D154  D(66,68,71,72)        -29.2348                                         !
 ! D155  D(66,68,71,73)        152.1684                                         !
 ! D156  D(69,68,71,72)       -152.1059                                         !
 ! D157  D(69,68,71,73)         29.2973                                         !
 ! D158  D(70,68,71,72)         89.42                                           !
 ! D159  D(70,68,71,73)        -89.1768                                         !
 ! D160  D(68,71,73,74)         -9.6065                                         !
 ! D161  D(68,71,73,75)        179.9419                                         !
 ! D162  D(72,71,73,74)        171.8106                                         !
 ! D163  D(72,71,73,75)          1.3589                                         !
 ! D164  D(71,73,75,76)        -43.8656                                         !
 ! D165  D(71,73,75,77)       -163.0667                                         !
 ! D166  D(71,73,75,78)         78.2711                                         !
 ! D167  D(74,73,75,76)        145.5498                                         !
 ! D168  D(74,73,75,77)         26.3487                                         !
 ! D169  D(74,73,75,78)        -92.3135                                         !
 ! D170  D(73,75,78,79)        101.555                                          !
 ! D171  D(73,75,78,80)        -76.7126                                         !
 ! D172  D(76,75,78,79)       -137.818                                          !
 ! D173  D(76,75,78,80)         43.9144                                         !
 ! D174  D(77,75,78,79)        -17.7937                                         !
 ! D175  D(77,75,78,80)        163.9387                                         !
 ! D176  D(75,78,80,81)         11.0951                                         !
 ! D177  D(75,78,80,82)        178.0238                                         !
 ! D178  D(79,78,80,81)       -167.1296                                         !
 ! D179  D(79,78,80,82)         -0.201                                          !
 ! D180  D(78,80,82,83)         43.8161                                         !
 ! D181  D(78,80,82,84)        162.6411                                         !
 ! D182  D(78,80,82,85)        -77.667                                          !
 ! D183  D(81,80,82,83)       -149.5983                                         !
 ! D184  D(81,80,82,84)        -30.7733                                         !
 ! D185  D(81,80,82,85)         88.9186                                         !
 ! D186  D(80,82,85,86)       -114.8864                                         !
 ! D187  D(80,82,85,87)         65.5918                                         !
 ! D188  D(83,82,85,86)        124.347                                          !
 ! D189  D(83,82,85,87)        -55.1747                                         !
 ! D190  D(84,82,85,86)          5.3672                                         !
 ! D191  D(84,82,85,87)       -174.1546                                         !
 ! D192  D(82,85,87,88)         -2.8194                                         !
 ! D193  D(82,85,87,89)       -156.1717                                         !
 ! D194  D(86,85,87,88)        177.6588                                         !
 ! D195  D(86,85,87,89)         24.3065                                         !
 ! D196  D(85,87,89,90)        165.9331                                         !
 ! D197  D(85,87,89,91)         49.4039                                         !
 ! D198  D(85,87,89,92)        -75.2147                                         !
 ! D199  D(88,87,89,90)         13.005                                          !
 ! D200  D(88,87,89,91)       -103.5242                                         !
 ! D201  D(88,87,89,92)        131.8572                                         !
 ! D202  D(87,89,92,93)       -162.4983                                         !
 ! D203  D(87,89,92,94)         16.6428                                         !
 ! D204  D(90,89,92,93)        -42.3334                                         !
 ! D205  D(90,89,92,94)        136.8077                                         !
 ! D206  D(91,89,92,93)         71.9739                                         !
 ! D207  D(91,89,92,94)       -108.8851                                         !
 ! D208  D(89,92,94,95)         17.441                                          !
 ! D209  D(89,92,94,96)       -169.6211                                         !
 ! D210  D(93,92,94,95)       -163.4471                                         !
 ! D211  D(93,92,94,96)          9.4908                                         !
 ! D212  D(92,94,96,97)        168.404                                          !
 ! D213  D(92,94,96,98)         50.0324                                         !
 ! D214  D(92,94,96,99)        -71.6807                                         !
 ! D215  D(95,94,96,97)        -18.916                                          !
 ! D216  D(95,94,96,98)       -137.2876                                         !
 ! D217  D(95,94,96,99)        100.9993                                         !
 ! D218  D(94,96,99,100)       -57.6391                                         !
 ! D219  D(94,96,99,101)       124.0903                                         !
 ! D220  D(97,96,99,100)        62.1623                                         !
 ! D221  D(97,96,99,101)      -116.1082                                         !
 ! D222  D(98,96,99,100)      -179.8229                                         !
 ! D223  D(98,96,99,101)         1.9065                                         !
 ! D224  D(96,99,101,102)     -171.3662                                         !
 ! D225  D(100,99,101,102)      10.3558                                         !
 --------------------------------------------------------------------------------
 Symmetry turned off by external request.
 Stoichiometry    C28H45N14O15(1+)
 Framework group  C1[X(C28H45N14O15)]
 Deg. of freedom   300
 Full point group                 C1      NOp   1
                          Input orientation:                          
 ---------------------------------------------------------------------
 Center     Atomic      Atomic             Coordinates (Angstroms)
 Number     Number       Type             X           Y           Z
 ---------------------------------------------------------------------
      1          7           0        1.791341    7.827783   -0.349174
      2          1           0        1.915488    7.897805    0.662992
      3          1           0        0.739102    7.770677   -0.529264
      4          1           0        2.163529    8.689999   -0.813077
      5          6           0        2.461117    6.601687   -0.886827
      6          1           0        3.488084    6.557498   -0.520484
      7          1           0        1.904934    5.718974   -0.559949
      8          6           0        2.393367    6.657173   -2.409345
      9          8           0        1.311024    6.863874   -2.976070
     10          7           0        3.563289    6.489313   -3.031977
     11          1           0        4.417101    6.314792   -2.484655
     12          6           0        3.688499    6.509480   -4.472110
     13          1           0        4.732245    6.298237   -4.714396
     14          1           0        3.464159    7.504052   -4.857177
     15          6           0        2.779555    5.474510   -5.120085
     16          8           0        2.547042    4.376584   -4.606573
     17          7           0        2.286842    5.850659   -6.320187
     18          1           0        2.422069    6.815428   -6.594408
     19          6           0        1.293878    5.046505   -7.005782
     20          1           0        1.352780    5.241228   -8.081653
     21          1           0        1.510152    3.992975   -6.834108
     22          6           0       -0.146853    5.295973   -6.542021
     23          8           0       -0.962704    4.388525   -6.522479
     24          7           0       -0.450864    6.593880   -6.213781
     25          1           0        0.261123    7.313255   -6.276482
     26          6           0       -1.828697    6.979904   -6.000360
     27          1           0       -2.202190    7.619677   -6.811333
     28          1           0       -2.424448    6.063995   -6.014667
     29          6           0       -2.127886    7.700472   -4.697309
     30          8           0       -3.282829    7.948202   -4.372801
     31          7           0       -1.045862    8.107763   -3.940343
     32          1           0       -0.193299    7.549816   -4.016320
     33          6           0       -1.287135    8.675313   -2.608024
     34          1           0       -0.406144    9.244874   -2.312559
     35          1           0       -2.145856    9.347338   -2.680995
     36          6           0       -1.549101    7.594429   -1.559442
     37          8           0       -0.796690    7.424072   -0.581328
     38          7           0       -2.600487    6.797934   -1.788697
     39          1           0       -3.182370    7.011198   -2.595786
     40          6           0       -2.770505    5.525706   -1.105826
     41          1           0       -2.391915    5.623097   -0.085669
     42          1           0       -3.830613    5.274086   -1.055156
     43          6           0       -2.050976    4.342836   -1.774624
     44          8           0       -2.425186    3.203624   -1.552145
     45          7           0       -1.020506    4.649038   -2.629852
     46          1           0       -0.529657    5.524817   -2.496995
     47          6           0       -0.190185    3.565880   -3.100539
     48          1           0       -0.832435    2.699867   -3.275834
     49          1           0        0.284332    3.842474   -4.044653
     50          6           0        0.899131    3.209505   -2.086878
     51          8           0        1.123871    3.881312   -1.081576
     52          7           0        1.631630    2.104417   -2.390409
     53          1           0        1.399672    1.577119   -3.220883
     54          6           0        2.640254    1.588178   -1.486866
     55          1           0        2.747907    0.510669   -1.632024
     56          1           0        2.310701    1.752467   -0.456867
     57          6           0        4.031985    2.205870   -1.610576
     58          8           0        4.966143    1.758809   -0.940156
     59          7           0        4.174008    3.252083   -2.457195
     60          1           0        3.422211    3.557161   -3.076088
     61          6           0        5.500633    3.790960   -2.685078
     62          1           0        6.214152    2.974137   -2.833754
     63          1           0        5.478255    4.400555   -3.588288
     64          6           0        5.982206    4.674264   -1.529629
     65          8           0        5.803578    5.909865   -1.507767
     66          7           0        6.625813    4.036317   -0.545109
     67          1           0        6.561700    3.020830   -0.531890
     68          6           0        7.275003    4.774860    0.510405
     69          1           0        6.546924    5.346986    1.098953
     70          1           0        7.766390    4.062129    1.178222
     71          6           0        8.335419    5.715990   -0.084032
     72          8           0        8.924379    5.451475   -1.128468
     73          7           0        8.590941    6.834444    0.639423
     74          1           0        7.998838    7.072754    1.422378
     75          6           0        9.576765    7.813629    0.190661
     76          1           0       10.462249    7.276389   -0.158352
     77          1           0        9.845981    8.455590    1.029088
     78          6           0        9.002695    8.704828   -0.918502
     79          8           0        8.605810    9.850890   -0.683794
     80          7           0        8.936953    8.123632   -2.139484
     81          1           0        9.101394    7.118454   -2.182397
     82          6           0        8.379174    8.813027   -3.295267
     83          1           0        8.760427    9.839500   -3.304847
     84          1           0        8.701218    8.302508   -4.202523
     85          6           0        6.847324    8.830024   -3.278722
     86          8           0        6.164234    8.247186   -4.125434
     87          7           0        6.302188    9.547196   -2.262269
     88          1           0        6.970116    9.954019   -1.601868
     89          6           0        4.961382    9.287162   -1.773924
     90          1           0        4.856379    9.804332   -0.817212
     91          1           0        4.841770    8.216420   -1.585075
     92          6           0        3.762227    9.748779   -2.601215
     93          8           0        2.649431    9.827341   -2.050765
     94          7           0        3.943289   10.073294   -3.891955
     95          1           0        4.795467    9.748212   -4.340371
     96          6           0        2.894220   10.725938   -4.659497
     97          1           0        3.334287   11.073351   -5.597675
     98          1           0        2.520421   11.586216   -4.102045
     99          6           0        1.711734    9.818051   -5.000614
    100          8           0        1.807104    8.768366   -5.620612
    101          8           0        0.561673   10.322977   -4.575300
    102          1           0       -0.148506    9.640444   -4.693323
 ---------------------------------------------------------------------
 Rotational constants (GHZ):           0.0706431           0.0370823           0.0308629
 Standard basis: 6-31G(d) (6D, 7F)
   945 basis functions,  1776 primitive gaussians,   945 cartesian basis functions
   215 alpha electrons      215 beta electrons
       nuclear repulsion energy      9724.0413741154 Hartrees.
 NAtoms=  102 NActive=  102 NUniq=  102 SFac= 1.00D+00 NAtFMM=   60 NAOKFM=T Big=T
 Integral buffers will be    131072 words long.
 Raffenetti 2 integral format.
 Two-electron integral symmetry is turned off.
 Nuclear repulsion after empirical dispersion term =     9723.7815672149 Hartrees.
 One-electron integrals computed using PRISM.
 NBasis=   945 RedAO= T EigKep=  2.02D-03  NBF=   945
 NBsUse=   945 1.00D-06 EigRej= -1.00D+00 NBFU=   945
 Initial guess from the checkpoint file:  "conf-172.chk"
 B after Tr=     0.000000    0.000000    0.000000
         Rot=    1.000000    0.000000    0.000000    0.000000 Ang=   0.00 deg.
 Requested convergence on RMS density matrix=1.00D-08 within 128 cycles.
 Requested convergence on MAX density matrix=1.00D-06.
 Requested convergence on             energy=1.00D-06.
 No special actions if energy rises.
 SCF Done:  E(RB3LYP) =  -2989.29625671     A.U. after    2 cycles
            NFock=  2  Conv=0.52D-08     -V/T= 2.0091
 Hyperfine terms turned off by default for NAtoms > 100.

 **********************************************************************

            Population analysis using the SCF Density.

 **********************************************************************

 Alpha  occ. eigenvalues --  -19.30422 -19.26267 -19.24969 -19.24106 -19.23799
 Alpha  occ. eigenvalues --  -19.23772 -19.23144 -19.22887 -19.22833 -19.22481
 Alpha  occ. eigenvalues --  -19.22169 -19.20678 -19.20566 -19.20522 -19.18815
 Alpha  occ. eigenvalues --  -14.53570 -14.48492 -14.47603 -14.47321 -14.47154
 Alpha  occ. eigenvalues --  -14.46959 -14.46747 -14.46464 -14.46342 -14.46056
 Alpha  occ. eigenvalues --  -14.45542 -14.45254 -14.44936 -14.43276 -10.44247
 Alpha  occ. eigenvalues --  -10.41674 -10.41157 -10.40172 -10.39958 -10.39901
 Alpha  occ. eigenvalues --  -10.39851 -10.39774 -10.39731 -10.39029 -10.38012
 Alpha  occ. eigenvalues --  -10.37669 -10.37518 -10.36253 -10.35346 -10.35084
 Alpha  occ. eigenvalues --  -10.34747 -10.34097 -10.33513 -10.33060 -10.32975
 Alpha  occ. eigenvalues --  -10.32857 -10.32804 -10.32368 -10.32203 -10.31575
 Alpha  occ. eigenvalues --  -10.31170 -10.29858  -1.22173  -1.16528  -1.16001
 Alpha  occ. eigenvalues --   -1.15496  -1.15405  -1.14801  -1.14664  -1.14380
 Alpha  occ. eigenvalues --   -1.14303  -1.13478  -1.13165  -1.12819  -1.12612
 Alpha  occ. eigenvalues --   -1.12185  -1.10820  -1.08780  -1.04814  -1.04246
 Alpha  occ. eigenvalues --   -1.03939  -1.03565  -1.03447  -1.03312  -1.03206
 Alpha  occ. eigenvalues --   -1.02745  -1.02044  -1.02004  -1.01069  -1.00610
 Alpha  occ. eigenvalues --   -0.99488  -0.88328  -0.87924  -0.87276  -0.86437
 Alpha  occ. eigenvalues --   -0.85573  -0.84750  -0.84294  -0.83048  -0.82230
 Alpha  occ. eigenvalues --   -0.80987  -0.80305  -0.79264  -0.78733  -0.77065
 Alpha  occ. eigenvalues --   -0.74578  -0.72070  -0.71319  -0.70653  -0.70211
 Alpha  occ. eigenvalues --   -0.70010  -0.69695  -0.69280  -0.68933  -0.68611
 Alpha  occ. eigenvalues --   -0.68099  -0.67983  -0.67809  -0.67295  -0.66900
 Alpha  occ. eigenvalues --   -0.65911  -0.65515  -0.64496  -0.64179  -0.64122
 Alpha  occ. eigenvalues --   -0.63721  -0.63544  -0.62883  -0.62526  -0.62356
 Alpha  occ. eigenvalues --   -0.61777  -0.61545  -0.61349  -0.60759  -0.60071
 Alpha  occ. eigenvalues --   -0.59935  -0.59214  -0.58753  -0.58495  -0.58335
 Alpha  occ. eigenvalues --   -0.57961  -0.57891  -0.57483  -0.57234  -0.57152
 Alpha  occ. eigenvalues --   -0.56599  -0.56421  -0.56036  -0.55298  -0.55205
 Alpha  occ. eigenvalues --   -0.54902  -0.54606  -0.54359  -0.54080  -0.53548
 Alpha  occ. eigenvalues --   -0.53313  -0.53138  -0.52765  -0.52696  -0.52513
 Alpha  occ. eigenvalues --   -0.52111  -0.52016  -0.51856  -0.51773  -0.51608
 Alpha  occ. eigenvalues --   -0.51358  -0.51281  -0.51170  -0.50942  -0.50695
 Alpha  occ. eigenvalues --   -0.50372  -0.50146  -0.49945  -0.49828  -0.49695
 Alpha  occ. eigenvalues --   -0.49276  -0.49237  -0.48936  -0.48638  -0.48266
 Alpha  occ. eigenvalues --   -0.48097  -0.47906  -0.47691  -0.47448  -0.47263
 Alpha  occ. eigenvalues --   -0.46678  -0.46606  -0.46137  -0.45631  -0.45062
 Alpha  occ. eigenvalues --   -0.43958  -0.43441  -0.43361  -0.41079  -0.40230
 Alpha  occ. eigenvalues --   -0.39811  -0.39040  -0.38710  -0.38594  -0.38325
 Alpha  occ. eigenvalues --   -0.38285  -0.38143  -0.37761  -0.37681  -0.37532
 Alpha  occ. eigenvalues --   -0.37426  -0.37010  -0.36486  -0.36339  -0.36180
 Alpha  occ. eigenvalues --   -0.36083  -0.35150  -0.34719  -0.34630  -0.34489
 Alpha  occ. eigenvalues --   -0.34227  -0.33593  -0.33278  -0.33065  -0.31618
 Alpha virt. eigenvalues --   -0.11743  -0.11277  -0.10610  -0.10416  -0.10288
 Alpha virt. eigenvalues --   -0.09682  -0.09043  -0.08561  -0.08545  -0.07690
 Alpha virt. eigenvalues --   -0.06963  -0.06478  -0.06088  -0.05130  -0.04883
 Alpha virt. eigenvalues --   -0.02660  -0.02060  -0.00801  -0.00414   0.00044
 Alpha virt. eigenvalues --    0.00405   0.00595   0.01237   0.01329   0.02231
 Alpha virt. eigenvalues --    0.02350   0.02899   0.03137   0.03602   0.03780
 Alpha virt. eigenvalues --    0.03959   0.04118   0.04462   0.04660   0.04861
 Alpha virt. eigenvalues --    0.05071   0.05492   0.05577   0.05765   0.05972
 Alpha virt. eigenvalues --    0.06247   0.06643   0.06967   0.07112   0.07219
 Alpha virt. eigenvalues --    0.07699   0.07793   0.07886   0.08235   0.08381
 Alpha virt. eigenvalues --    0.08567   0.08806   0.09299   0.09624   0.09902
 Alpha virt. eigenvalues --    0.09959   0.10530   0.10760   0.10865   0.11029
 Alpha virt. eigenvalues --    0.11132   0.11297   0.11783   0.11926   0.12184
 Alpha virt. eigenvalues --    0.12284   0.12476   0.13109   0.13308   0.13637
 Alpha virt. eigenvalues --    0.13789   0.13972   0.14494   0.14611   0.14900
 Alpha virt. eigenvalues --    0.15257   0.15870   0.16118   0.16672   0.17093
 Alpha virt. eigenvalues --    0.17256   0.17703   0.18170   0.18375   0.18669
 Alpha virt. eigenvalues --    0.19223   0.19975   0.20349   0.20532   0.21655
 Alpha virt. eigenvalues --    0.22513   0.22909   0.23876   0.24726   0.25050
 Alpha virt. eigenvalues --    0.25892   0.26522   0.27038   0.27371   0.27696
 Alpha virt. eigenvalues --    0.27949   0.28678   0.28813   0.29170   0.29752
 Alpha virt. eigenvalues --    0.30013   0.30462   0.30596   0.31491   0.31791
 Alpha virt. eigenvalues --    0.32447   0.33030   0.33351   0.33528   0.35148
 Alpha virt. eigenvalues --    0.35996   0.37453   0.38320   0.39511   0.39959
 Alpha virt. eigenvalues --    0.40262   0.40610   0.40676   0.40927   0.41499
 Alpha virt. eigenvalues --    0.41947   0.42223   0.42512   0.42562   0.42939
 Alpha virt. eigenvalues --    0.43574   0.44001   0.44155   0.44349   0.44435
 Alpha virt. eigenvalues --    0.44714   0.45019   0.45105   0.45566   0.45842
 Alpha virt. eigenvalues --    0.45987   0.46622   0.46982   0.47082   0.47195
 Alpha virt. eigenvalues --    0.47677   0.47715   0.47856   0.48140   0.48478
 Alpha virt. eigenvalues --    0.48712   0.49150   0.49313   0.49812   0.50061
 Alpha virt. eigenvalues --    0.50530   0.50818   0.50930   0.51246   0.51895
 Alpha virt. eigenvalues --    0.51901   0.52539   0.52705   0.52819   0.53634
 Alpha virt. eigenvalues --    0.54007   0.54213   0.55098   0.55149   0.55444
 Alpha virt. eigenvalues --    0.55560   0.55998   0.56203   0.56496   0.56594
 Alpha virt. eigenvalues --    0.57105   0.57168   0.57817   0.58240   0.58341
 Alpha virt. eigenvalues --    0.58718   0.58939   0.59252   0.59664   0.59747
 Alpha virt. eigenvalues --    0.59881   0.60766   0.61218   0.61551   0.61694
 Alpha virt. eigenvalues --    0.62019   0.62224   0.62777   0.62926   0.63347
 Alpha virt. eigenvalues --    0.63917   0.64668   0.65028   0.65434   0.66027
 Alpha virt. eigenvalues --    0.66476   0.67029   0.67343   0.67840   0.68496
 Alpha virt. eigenvalues --    0.68849   0.69215   0.69770   0.69988   0.70663
 Alpha virt. eigenvalues --    0.70958   0.71220   0.71352   0.72127   0.72299
 Alpha virt. eigenvalues --    0.72380   0.72686   0.72792   0.72925   0.73338
 Alpha virt. eigenvalues --    0.73520   0.74050   0.74294   0.74549   0.74815
 Alpha virt. eigenvalues --    0.75127   0.75181   0.75590   0.76209   0.76525
 Alpha virt. eigenvalues --    0.76727   0.76905   0.77437   0.77654   0.77771
 Alpha virt. eigenvalues --    0.77914   0.78176   0.78209   0.78530   0.78866
 Alpha virt. eigenvalues --    0.79353   0.79700   0.79874   0.80011   0.80262
 Alpha virt. eigenvalues --    0.80481   0.80539   0.81649   0.82063   0.82463
 Alpha virt. eigenvalues --    0.82836   0.83220   0.83444   0.83643   0.83992
 Alpha virt. eigenvalues --    0.84333   0.84756   0.85116   0.85613   0.85834
 Alpha virt. eigenvalues --    0.86436   0.86805   0.87110   0.87210   0.87475
 Alpha virt. eigenvalues --    0.87848   0.87959   0.88796   0.89224   0.89268
 Alpha virt. eigenvalues --    0.90092   0.90351   0.91292   0.91345   0.91918
 Alpha virt. eigenvalues --    0.92096   0.92489   0.92735   0.93343   0.93535
 Alpha virt. eigenvalues --    0.94099   0.94368   0.94766   0.95401   0.95866
 Alpha virt. eigenvalues --    0.96373   0.96622   0.96965   0.97186   0.97686
 Alpha virt. eigenvalues --    0.97916   0.98314   0.98540   0.99269   0.99711
 Alpha virt. eigenvalues --    1.00018   1.00730   1.00998   1.01646   1.02213
 Alpha virt. eigenvalues --    1.02672   1.02848   1.03698   1.03991   1.04053
 Alpha virt. eigenvalues --    1.04980   1.05330   1.05808   1.06284   1.06887
 Alpha virt. eigenvalues --    1.07387   1.07503   1.08111   1.08608   1.08841
 Alpha virt. eigenvalues --    1.09161   1.09479   1.10159   1.10605   1.11112
 Alpha virt. eigenvalues --    1.11932   1.12112   1.12597   1.13076   1.13826
 Alpha virt. eigenvalues --    1.14013   1.14644   1.15005   1.15391   1.16017
 Alpha virt. eigenvalues --    1.16622   1.16914   1.17886   1.18106   1.18805
 Alpha virt. eigenvalues --    1.19218   1.19409   1.19800   1.20365   1.21391
 Alpha virt. eigenvalues --    1.21791   1.22190   1.22702   1.22998   1.23279
 Alpha virt. eigenvalues --    1.23619   1.24858   1.25720   1.26280   1.26582
 Alpha virt. eigenvalues --    1.27312   1.27403   1.27979   1.28268   1.28906
 Alpha virt. eigenvalues --    1.29245   1.29893   1.30356   1.30609   1.30922
 Alpha virt. eigenvalues --    1.31288   1.32193   1.32513   1.33040   1.33361
 Alpha virt. eigenvalues --    1.33981   1.34526   1.35210   1.36520   1.36660
 Alpha virt. eigenvalues --    1.36947   1.37797   1.37982   1.38670   1.39218
 Alpha virt. eigenvalues --    1.40461   1.40810   1.41190   1.41347   1.42866
 Alpha virt. eigenvalues --    1.43251   1.43521   1.44068   1.44399   1.44863
 Alpha virt. eigenvalues --    1.44943   1.45618   1.46270   1.46955   1.47421
 Alpha virt. eigenvalues --    1.47658   1.47887   1.49454   1.50465   1.50513
 Alpha virt. eigenvalues --    1.51273   1.52628   1.53288   1.53686   1.55050
 Alpha virt. eigenvalues --    1.55845   1.56124   1.56646   1.57236   1.57408
 Alpha virt. eigenvalues --    1.58042   1.59189   1.59735   1.60659   1.60846
 Alpha virt. eigenvalues --    1.61380   1.61574   1.61844   1.62216   1.62743
 Alpha virt. eigenvalues --    1.63388   1.63737   1.64041   1.64350   1.65114
 Alpha virt. eigenvalues --    1.65952   1.66279   1.67125   1.67870   1.68244
 Alpha virt. eigenvalues --    1.68623   1.68826   1.69260   1.69350   1.69802
 Alpha virt. eigenvalues --    1.69900   1.70138   1.70335   1.70607   1.70698
 Alpha virt. eigenvalues --    1.71184   1.71424   1.71632   1.72004   1.72374
 Alpha virt. eigenvalues --    1.72483   1.72811   1.73131   1.73191   1.73521
 Alpha virt. eigenvalues --    1.74089   1.74277   1.74478   1.74789   1.75168
 Alpha virt. eigenvalues --    1.75779   1.75964   1.76287   1.76344   1.76450
 Alpha virt. eigenvalues --    1.76618   1.77059   1.77183   1.77565   1.78032
 Alpha virt. eigenvalues --    1.78171   1.78347   1.78837   1.79158   1.79800
 Alpha virt. eigenvalues --    1.80301   1.80556   1.81496   1.82125   1.82449
 Alpha virt. eigenvalues --    1.82645   1.82826   1.82938   1.83670   1.83875
 Alpha virt. eigenvalues --    1.84102   1.84596   1.84817   1.85142   1.85606
 Alpha virt. eigenvalues --    1.86186   1.86695   1.86766   1.86988   1.87237
 Alpha virt. eigenvalues --    1.87452   1.87788   1.88591   1.88853   1.88934
 Alpha virt. eigenvalues --    1.89174   1.89638   1.90221   1.90513   1.90894
 Alpha virt. eigenvalues --    1.91127   1.91295   1.91914   1.92666   1.93185
 Alpha virt. eigenvalues --    1.93487   1.94538   1.94582   1.94787   1.95407
 Alpha virt. eigenvalues --    1.96189   1.96586   1.96844   1.97709   1.98162
 Alpha virt. eigenvalues --    1.98257   1.99142   1.99442   1.99876   2.00145
 Alpha virt. eigenvalues --    2.00465   2.01176   2.01351   2.02198   2.02419
 Alpha virt. eigenvalues --    2.03225   2.04011   2.04394   2.05027   2.06351
 Alpha virt. eigenvalues --    2.06577   2.06691   2.07216   2.07332   2.08301
 Alpha virt. eigenvalues --    2.09235   2.09720   2.10171   2.10739   2.11113
 Alpha virt. eigenvalues --    2.11857   2.13336   2.13663   2.13945   2.14457
 Alpha virt. eigenvalues --    2.15566   2.16184   2.17423   2.19232   2.20081
 Alpha virt. eigenvalues --    2.21518   2.22321   2.22525   2.22758   2.23659
 Alpha virt. eigenvalues --    2.23697   2.24177   2.25043   2.25992   2.26248
 Alpha virt. eigenvalues --    2.26306   2.26606   2.27262   2.27795   2.28087
 Alpha virt. eigenvalues --    2.28268   2.28803   2.28947   2.29347   2.29561
 Alpha virt. eigenvalues --    2.30078   2.30473   2.31343   2.31689   2.32634
 Alpha virt. eigenvalues --    2.32773   2.32844   2.34008   2.34129   2.34572
 Alpha virt. eigenvalues --    2.34925   2.35270   2.36098   2.36480   2.36734
 Alpha virt. eigenvalues --    2.37422   2.37689   2.38073   2.38120   2.38383
 Alpha virt. eigenvalues --    2.39409   2.40687   2.41727   2.42505   2.43035
 Alpha virt. eigenvalues --    2.43984   2.45342   2.45386   2.46234   2.46911
 Alpha virt. eigenvalues --    2.48027   2.48256   2.49200   2.49963   2.50236
 Alpha virt. eigenvalues --    2.51306   2.51703   2.51940   2.52335   2.53766
 Alpha virt. eigenvalues --    2.54224   2.54672   2.55045   2.55698   2.55989
 Alpha virt. eigenvalues --    2.56667   2.57824   2.57854   2.58290   2.59279
 Alpha virt. eigenvalues --    2.59495   2.59921   2.60134   2.60690   2.61096
 Alpha virt. eigenvalues --    2.61206   2.62194   2.62612   2.63636   2.63885
 Alpha virt. eigenvalues --    2.64460   2.64618   2.65721   2.66470   2.66848
 Alpha virt. eigenvalues --    2.68773   2.74191   2.74403   2.75712   2.76248
 Alpha virt. eigenvalues --    2.77946   2.78169   2.79317   2.81196   2.81606
 Alpha virt. eigenvalues --    2.83589   2.84925   2.85704   2.86063   2.87460
 Alpha virt. eigenvalues --    2.89095   2.89282   2.90091   2.90620   2.90918
 Alpha virt. eigenvalues --    2.92095   2.92678   2.93429   2.93976   2.94459
 Alpha virt. eigenvalues --    2.95023   2.96509   2.96831   2.97655   2.98577
 Alpha virt. eigenvalues --    3.01258   3.01583   3.03592   3.03719   3.03906
 Alpha virt. eigenvalues --    3.04683   3.05662   3.05887   3.06073   3.06830
 Alpha virt. eigenvalues --    3.07249   3.08381   3.10591   3.80033   3.81072
 Alpha virt. eigenvalues --    3.82761   3.84234   3.86572   3.86723   3.87339
 Alpha virt. eigenvalues --    3.90933   3.92478   3.94118   3.94730   3.95517
 Alpha virt. eigenvalues --    3.96574   3.97880   3.98602   4.00113   4.00505
 Alpha virt. eigenvalues --    4.01817   4.02305   4.03223   4.06204   4.06591
 Alpha virt. eigenvalues --    4.07664   4.09936   4.11370   4.13895   4.14587
 Alpha virt. eigenvalues --    4.15820   4.17038   4.17346   4.18052   4.19192
 Alpha virt. eigenvalues --    4.19979   4.20298   4.22183   4.23531   4.24268
 Alpha virt. eigenvalues --    4.25923   4.27797   4.29145   4.29731   4.32423
 Alpha virt. eigenvalues --    4.33733   4.39560   4.41788   4.43446   4.45052
 Alpha virt. eigenvalues --    4.45597   4.47279   4.48577   4.49663   4.51241
 Alpha virt. eigenvalues --    4.52934   4.53969   4.54443   4.55742   4.58688
          Condensed to atoms (all electrons):
 Mulliken charges:
               1
     1  N   -0.805464
     2  H    0.389090
     3  H    0.458202
     4  H    0.428418
     5  C   -0.319106
     6  H    0.193811
     7  H    0.288495
     8  C    0.639952
     9  O   -0.575109
    10  N   -0.633018
    11  H    0.429838
    12  C   -0.268112
    13  H    0.218649
    14  H    0.203348
    15  C    0.650502
    16  O   -0.549318
    17  N   -0.599496
    18  H    0.363782
    19  C   -0.251060
    20  H    0.199468
    21  H    0.217502
    22  C    0.617545
    23  O   -0.493910
    24  N   -0.640881
    25  H    0.353377
    26  C   -0.227011
    27  H    0.203896
    28  H    0.244890
    29  C    0.594112
    30  O   -0.500509
    31  N   -0.691305
    32  H    0.416030
    33  C   -0.245994
    34  H    0.191790
    35  H    0.221390
    36  C    0.607017
    37  O   -0.577367
    38  N   -0.567910
    39  H    0.390623
    40  C   -0.253287
    41  H    0.220706
    42  H    0.208869
    43  C    0.602382
    44  O   -0.491631
    45  N   -0.605279
    46  H    0.360153
    47  C   -0.270157
    48  H    0.212188
    49  H    0.214865
    50  C    0.623133
    51  O   -0.542260
    52  N   -0.603781
    53  H    0.351990
    54  C   -0.222876
    55  H    0.200188
    56  H    0.218482
    57  C    0.608553
    58  O   -0.540848
    59  N   -0.629082
    60  H    0.421042
    61  C   -0.250369
    62  H    0.201600
    63  H    0.176347
    64  C    0.633960
    65  O   -0.580955
    66  N   -0.550414
    67  H    0.390063
    68  C   -0.225709
    69  H    0.167556
    70  H    0.211869
    71  C    0.639201
    72  O   -0.526201
    73  N   -0.588813
    74  H    0.344051
    75  C   -0.233311
    76  H    0.209026
    77  H    0.199638
    78  C    0.595206
    79  O   -0.533491
    80  N   -0.577628
    81  H    0.389159
    82  C   -0.242169
    83  H    0.207610
    84  H    0.197452
    85  C    0.592830
    86  O   -0.543084
    87  N   -0.597244
    88  H    0.392876
    89  C   -0.252710
    90  H    0.192396
    91  H    0.203667
    92  C    0.642494
    93  O   -0.564803
    94  N   -0.580531
    95  H    0.385532
    96  C   -0.220291
    97  H    0.206740
    98  H    0.218920
    99  C    0.610184
   100  O   -0.493459
   101  O   -0.550067
   102  H    0.443368
 Sum of Mulliken charges =   1.00000
 Mulliken charges with hydrogens summed into heavy atoms:
               1
     1  N    0.470247
     5  C    0.163200
     8  C    0.639952
     9  O   -0.575109
    10  N   -0.203180
    12  C    0.153885
    15  C    0.650502
    16  O   -0.549318
    17  N   -0.235714
    19  C    0.165910
    22  C    0.617545
    23  O   -0.493910
    24  N   -0.287504
    26  C    0.221775
    29  C    0.594112
    30  O   -0.500509
    31  N   -0.275275
    33  C    0.167185
    36  C    0.607017
    37  O   -0.577367
    38  N   -0.177287
    40  C    0.176288
    43  C    0.602382
    44  O   -0.491631
    45  N   -0.245127
    47  C    0.156896
    50  C    0.623133
    51  O   -0.542260
    52  N   -0.251791
    54  C    0.195794
    57  C    0.608553
    58  O   -0.540848
    59  N   -0.208039
    61  C    0.127577
    64  C    0.633960
    65  O   -0.580955
    66  N   -0.160351
    68  C    0.153716
    71  C    0.639201
    72  O   -0.526201
    73  N   -0.244762
    75  C    0.175353
    78  C    0.595206
    79  O   -0.533491
    80  N   -0.188469
    82  C    0.162893
    85  C    0.592830
    86  O   -0.543084
    87  N   -0.204368
    89  C    0.143353
    92  C    0.642494
    93  O   -0.564803
    94  N   -0.195000
    96  C    0.205369
    99  C    0.610184
   100  O   -0.493459
   101  O   -0.106699
 Electronic spatial extent (au):  <R**2>=         124214.7536
 Charge=              1.0000 electrons
 Dipole moment (field-independent basis, Debye):
    X=             20.9116    Y=             37.7313    Z=            -11.2563  Tot=             44.5830
 Quadrupole moment (field-independent basis, Debye-Ang):
   XX=           -201.9923   YY=            -12.7523   ZZ=           -239.0752
   XY=            142.9601   XZ=            -28.5161   YZ=            -94.9198
 Traceless Quadrupole moment (field-independent basis, Debye-Ang):
   XX=            -50.7190   YY=            138.5209   ZZ=            -87.8019
   XY=            142.9601   XZ=            -28.5161   YZ=            -94.9198
 Octapole moment (field-independent basis, Debye-Ang**2):
  XXX=          -1818.2718  YYY=          -3689.7063  ZZZ=           2175.3642  XYY=            154.9113
  XXY=          -1185.3161  XXZ=            853.1309  XZZ=           -642.0919  YZZ=          -1399.9761
  YYZ=            -11.4100  XYZ=           -234.6324
 Hexadecapole moment (field-independent basis, Debye-Ang**3):
 XXXX=         -33552.4825 YYYY=         -70758.9058 ZZZZ=         -19227.0961 XXXY=         -11986.0289
 XXXZ=           4481.8508 YYYX=         -10480.5638 YYYZ=           9233.5639 ZZZX=           3462.0454
 ZZZY=          13840.3710 XXYY=         -15838.3508 XXZZ=          -9583.3489 YYZZ=         -13150.7652
 XXYZ=           5166.5925 YYXZ=           -889.4555 ZZXY=          -4284.4077
 N-N= 9.723781567215D+03 E-N=-2.639063551464D+04  KE= 2.962359888696D+03
 Unable to Open any file for archive entry.
 1\1\GINC-SKL-141\SP\RB3LYP\6-31G(d)\C28H45N14O15(1+)\KENGMITH\11-Aug-2
 022\0\\# B3LYP/6-31G* empiricaldispersion=gd3bj guess=read geom=check 
 nosymm integral(ultrafinegrid)\\Candidate Structure: Conf:172 Charge c
 alc in gas phase\\1,1\N,0,1.7913405228,7.8277825,-0.3491739364\H,0,1.9
 154876271,7.8978051919,0.6629915186\H,0,0.7391015713,7.7706771298,-0.5
 292640816\H,0,2.1635289179,8.6899994527,-0.8130772196\C,0,2.4611168874
 ,6.601686912,-0.8868267492\H,0,3.4880837401,6.5574980774,-0.5204836989
 \H,0,1.9049336075,5.7189744563,-0.5599490514\C,0,2.3933667923,6.657172
 8094,-2.409345485\O,0,1.3110238875,6.8638735712,-2.9760702886\N,0,3.56
 32889555,6.4893127951,-3.0319769174\H,0,4.4171008298,6.3147915078,-2.4
 84654632\C,0,3.6884992057,6.5094801943,-4.4721099161\H,0,4.7322449508,
 6.2982370509,-4.714395866\H,0,3.464159012,7.5040522587,-4.8571773295\C
 ,0,2.7795546171,5.4745103739,-5.1200852304\O,0,2.5470418887,4.37658420
 87,-4.6065733526\N,0,2.2868417982,5.8506589089,-6.3201867141\H,0,2.422
 0694135,6.815427627,-6.5944083299\C,0,1.293878279,5.0465048838,-7.0057
 82267\H,0,1.3527796587,5.2412283936,-8.0816534285\H,0,1.5101518342,3.9
 929746737,-6.8341078306\C,0,-0.1468529647,5.2959727608,-6.5420210206\O
 ,0,-0.9627040862,4.388524683,-6.5224792678\N,0,-0.450863608,6.59388037
 86,-6.2137805605\H,0,0.2611226755,7.3132545086,-6.276482122\C,0,-1.828
 6974527,6.9799039372,-6.0003603381\H,0,-2.202190126,7.6196773991,-6.81
 13333827\H,0,-2.4244477622,6.0639950151,-6.0146671032\C,0,-2.127885528
 3,7.7004721079,-4.6973085484\O,0,-3.282829119,7.9482023527,-4.37280061
 85\N,0,-1.0458618798,8.1077634068,-3.9403431934\H,0,-0.1932991263,7.54
 98158338,-4.0163199047\C,0,-1.2871353629,8.6753126114,-2.6080236365\H,
 0,-0.4061438778,9.2448739121,-2.312559135\H,0,-2.1458563081,9.34733814
 73,-2.6809949058\C,0,-1.5491014223,7.5944292272,-1.5594424568\O,0,-0.7
 966900195,7.4240721103,-0.5813284014\N,0,-2.6004867168,6.7979344054,-1
 .7886970734\H,0,-3.1823698857,7.0111980488,-2.5957859022\C,0,-2.770504
 899,5.525705616,-1.1058261355\H,0,-2.3919152226,5.6230973838,-0.085668
 6604\H,0,-3.83061299,5.274086333,-1.0551563778\C,0,-2.0509758645,4.342
 836034,-1.7746239994\O,0,-2.4251860781,3.2036235289,-1.5521453963\N,0,
 -1.0205064927,4.6490376706,-2.6298519044\H,0,-0.5296574252,5.524816892
 1,-2.4969945561\C,0,-0.1901849148,3.5658803056,-3.100539021\H,0,-0.832
 4346926,2.6998669233,-3.2758338837\H,0,0.284332331,3.8424737526,-4.044
 6526365\C,0,0.8991314479,3.2095054349,-2.0868775586\O,0,1.1238706564,3
 .8813122931,-1.0815761014\N,0,1.6316295364,2.1044168701,-2.3904093182\
 H,0,1.3996718391,1.5771190287,-3.2208834973\C,0,2.6402537063,1.5881781
 257,-1.486865531\H,0,2.7479067966,0.5106691941,-1.6320235924\H,0,2.310
 7008909,1.7524673642,-0.4568669349\C,0,4.0319854421,2.2058700228,-1.61
 05762084\O,0,4.9661429516,1.7588085707,-0.9401562776\N,0,4.1740076618,
 3.2520832053,-2.4571949496\H,0,3.4222113262,3.5571610954,-3.076087756\
 C,0,5.5006331778,3.7909595806,-2.6850778833\H,0,6.2141519819,2.9741369
 91,-2.8337539696\H,0,5.478255011,4.4005545919,-3.5882876609\C,0,5.9822
 060355,4.6742644513,-1.5296288306\O,0,5.8035784565,5.9098650378,-1.507
 7667582\N,0,6.6258131274,4.036317222,-0.5451093872\H,0,6.5616997196,3.
 0208296639,-0.5318902092\C,0,7.2750030085,4.7748597897,0.5104049098\H,
 0,6.546924044,5.3469861832,1.098953414\H,0,7.7663903448,4.06212924,1.1
 782219385\C,0,8.3354190053,5.7159900044,-0.0840320836\O,0,8.9243791082
 ,5.4514745114,-1.1284675895\N,0,8.5909405708,6.8344443444,0.6394231117
 \H,0,7.9988379254,7.0727535029,1.4223780447\C,0,9.5767646867,7.8136288
 79,0.1906607241\H,0,10.4622491966,7.2763889036,-0.1583516153\H,0,9.845
 9809335,8.4555902596,1.0290875254\C,0,9.002694687,8.7048277553,-0.9185
 020099\O,0,8.6058097477,9.8508904661,-0.683794252\N,0,8.9369525123,8.1
 236319132,-2.1394836998\H,0,9.1013943502,7.1184539155,-2.1823969428\C,
 0,8.3791743329,8.8130265725,-3.2952666001\H,0,8.7604271087,9.839500288
 3,-3.3048470056\H,0,8.7012175825,8.3025082151,-4.2025233782\C,0,6.8473
 237443,8.8300239131,-3.2787218067\O,0,6.164234247,8.2471858832,-4.1254
 340214\N,0,6.3021877641,9.5471960208,-2.2622687384\H,0,6.970116404,9.9
 540187695,-1.6018677791\C,0,4.9613822453,9.2871622695,-1.7739243548\H,
 0,4.8563794024,9.8043320394,-0.81721193\H,0,4.8417696703,8.2164203278,
 -1.5850749605\C,0,3.7622266889,9.7487792737,-2.6012154467\O,0,2.649431
 4666,9.8273411444,-2.0507652617\N,0,3.9432890346,10.0732944294,-3.8919
 547941\H,0,4.7954670842,9.7482119904,-4.3403709303\C,0,2.8942204696,10
 .7259375946,-4.6594966208\H,0,3.3342870095,11.0733513727,-5.597675257\
 H,0,2.5204207332,11.5862155131,-4.1020449718\C,0,1.7117344644,9.818050
 928,-5.0006143345\O,0,1.8071035186,8.7683664697,-5.6206115259\O,0,0.56
 16733125,10.3229767117,-4.5752997502\H,0,-0.1485063273,9.6404442081,-4
 .6933229648\\Version=ES64L-G16RevC.01\HF=-2989.2962567\RMSD=5.229e-09\
 Dipole=2.8567924,2.6072998,0.7696561\Quadrupole=-37.7083648,102.986922
 1,-65.2785573,106.2873663,-21.2010029,-70.5705217\PG=C01 [X(C28H45N14O
 15)]\\@
 The archive entry for this job was punched.


 THERE'S NOTHING WRONG WITH FOLLOWING A TRAIN OF THOUGHT...
 AS LONG AS IT ULTIMATELY PULLS INTO THE STATION.
 Job cpu time:       0 days  0 hours  6 minutes 30.3 seconds.
 Elapsed time:       0 days  0 hours  1 minutes 38.4 seconds.
 File lengths (MBytes):  RWF=    704 Int=      0 D2E=      0 Chk=     96 Scr=     32
 Normal termination of Gaussian 16 at Thu Aug 11 11:44:57 2022.
