 Entering Gaussian System, Link 0=/opt/software/Gaussian/g16-AVX2-C.01/g16/g16
 Input=charge-conf-202.com
 Output=charge-conf-202.log
 Initial command:
 /opt/software/Gaussian/g16-AVX2-C.01/g16/l1.exe "/mnt/gs21/scratch/kengmith/Gau-642.inp" -scrdir="/mnt/gs21/scratch/kengmith/"
 Entering Link 1 = /opt/software/Gaussian/g16-AVX2-C.01/g16/l1.exe PID=       652.
  
 Copyright (c) 1988-2019, Gaussian, Inc.  All Rights Reserved.
  
 This is part of the Gaussian(R) 16 program.  It is based on
 the Gaussian(R) 09 system (copyright 2009, Gaussian, Inc.),
 the Gaussian(R) 03 system (copyright 2003, Gaussian, Inc.),
 the Gaussian(R) 98 system (copyright 1998, Gaussian, Inc.),
 the Gaussian(R) 94 system (copyright 1995, Gaussian, Inc.),
 the Gaussian 92(TM) system (copyright 1992, Gaussian, Inc.),
 the Gaussian 90(TM) system (copyright 1990, Gaussian, Inc.),
 the Gaussian 88(TM) system (copyright 1988, Gaussian, Inc.),
 the Gaussian 86(TM) system (copyright 1986, Carnegie Mellon
 University), and the Gaussian 82(TM) system (copyright 1983,
 Carnegie Mellon University). Gaussian is a federally registered
 trademark of Gaussian, Inc.
  
 This software contains proprietary and confidential information,
 including trade secrets, belonging to Gaussian, Inc.
  
 This software is provided under written license and may be
 used, copied, transmitted, or stored only in accord with that
 written license.
  
 The following legend is applicable only to US Government
 contracts under FAR:
  
                    RESTRICTED RIGHTS LEGEND
  
 Use, reproduction and disclosure by the US Government is
 subject to restrictions as set forth in subparagraphs (a)
 and (c) of the Commercial Computer Software - Restricted
 Rights clause in FAR 52.227-19.
  
 Gaussian, Inc.
 340 Quinnipiac St., Bldg. 40, Wallingford CT 06492
  
  
 ---------------------------------------------------------------
 Warning -- This program may not be used in any manner that
 competes with the business of Gaussian, Inc. or will provide
 assistance to any competitor of Gaussian, Inc.  The licensee
 of this program is prohibited from giving any competitor of
 Gaussian, Inc. access to this program.  By using this program,
 the user acknowledges that Gaussian, Inc. is engaged in the
 business of creating and licensing software in the field of
 computational chemistry and represents and warrants to the
 licensee that it is not a competitor of Gaussian, Inc. and that
 it will not use this program in any manner prohibited above.
 ---------------------------------------------------------------
  

 Cite this work as:
 Gaussian 16, Revision C.01,
 M. J. Frisch, G. W. Trucks, H. B. Schlegel, G. E. Scuseria, 
 M. A. Robb, J. R. Cheeseman, G. Scalmani, V. Barone, 
 G. A. Petersson, H. Nakatsuji, X. Li, M. Caricato, A. V. Marenich, 
 J. Bloino, B. G. Janesko, R. Gomperts, B. Mennucci, H. P. Hratchian, 
 J. V. Ortiz, A. F. Izmaylov, J. L. Sonnenberg, D. Williams-Young, 
 F. Ding, F. Lipparini, F. Egidi, J. Goings, B. Peng, A. Petrone, 
 T. Henderson, D. Ranasinghe, V. G. Zakrzewski, J. Gao, N. Rega, 
 G. Zheng, W. Liang, M. Hada, M. Ehara, K. Toyota, R. Fukuda, 
 J. Hasegawa, M. Ishida, T. Nakajima, Y. Honda, O. Kitao, H. Nakai, 
 T. Vreven, K. Throssell, J. A. Montgomery, Jr., J. E. Peralta, 
 F. Ogliaro, M. J. Bearpark, J. J. Heyd, E. N. Brothers, K. N. Kudin, 
 V. N. Staroverov, T. A. Keith, R. Kobayashi, J. Normand, 
 K. Raghavachari, A. P. Rendell, J. C. Burant, S. S. Iyengar, 
 J. Tomasi, M. Cossi, J. M. Millam, M. Klene, C. Adamo, R. Cammi, 
 J. W. Ochterski, R. L. Martin, K. Morokuma, O. Farkas, 
 J. B. Foresman, and D. J. Fox, Gaussian, Inc., Wallingford CT, 2019.
 
 ******************************************
 Gaussian 16:  ES64L-G16RevC.01  3-Jul-2019
                11-Aug-2022 
 ******************************************
 %mem=8gb
 %nproc=4
 Will use up to    4 processors via shared memory.
 %chk=conf-202.chk
 ----------------------------------------------------------------------
 # B3LYP/6-31G* empiricaldispersion=gd3bj guess=read geom=check nosymm 
 integral(ultrafinegrid)
 ----------------------------------------------------------------------
 1/29=2,38=1,172=1/1;
 2/12=2,15=1,40=1/2;
 3/5=1,6=6,7=1,11=2,14=-4,25=1,30=1,74=-5,75=-5,116=-2,124=41/1,2,3;
 4/5=1/1;
 5/5=2,38=6/2;
 6/7=2,8=2,9=2,10=2,28=1/1;
 99/5=1,9=1/99;
 ------------------------------------------------------
 Candidate Structure: Conf:202 Charge calc in gas phase
 ------------------------------------------------------
 Structure from the checkpoint file:  "conf-202.chk"
 Charge =  1 Multiplicity = 1
 Redundant internal coordinates found in file.  (old form).
 N,0,-0.3787609929,8.6500966862,0.7011421763
 H,0,0.4668815803,8.7591319134,0.0854817183
 H,0,-0.9775097815,7.8949830054,0.2953897673
 H,0,-0.0643770836,8.3687234884,1.6335890454
 C,0,-1.1332017315,9.9525066793,0.748079184
 H,0,-1.8733766027,9.8996613891,1.5446688287
 H,0,-0.4087885052,10.7437703218,0.9550052778
 C,0,-1.8922891521,10.1998465643,-0.5653229347
 O,0,-3.1167397496,10.2791901557,-0.5599226964
 N,0,-1.1267958735,10.3210054509,-1.6766026877
 H,0,-0.1266038751,10.1126276267,-1.6253008623
 C,0,-1.7542262561,10.3895850469,-2.9962294879
 H,0,-1.0364703671,10.7851461454,-3.7144181882
 H,0,-2.6255325828,11.0453693893,-2.9428159205
 C,0,-2.123795009,8.9580770814,-3.3831269314
 O,0,-1.3549000174,8.2342549472,-4.0251927107
 N,0,-3.2792205011,8.4969192053,-2.839609753
 H,0,-3.7119115627,9.0918402704,-2.1349359694
 C,0,-3.4333378161,7.0581891003,-2.6809393518
 H,0,-4.3904703064,6.8604167653,-2.1942160658
 H,0,-3.4260891027,6.5707367817,-3.6583686408
 C,0,-2.298429147,6.5635408074,-1.7814695523
 O,0,-2.1158987012,7.0857034284,-0.6741489816
 N,0,-1.4813336622,5.6065779665,-2.2643410084
 H,0,-1.6188389737,5.2806647264,-3.2113262097
 C,0,-0.2753902859,5.2457566051,-1.5425817914
 H,0,-0.5085317541,5.085755215,-0.489150501
 H,0,0.1140452611,4.3059076781,-1.9407141254
 C,0,0.8520974387,6.2846839837,-1.6105066427
 O,0,1.7200544375,6.2803484079,-0.7346179897
 N,0,0.8655779564,7.1287257929,-2.6609032936
 H,0,0.0434287775,7.2503732621,-3.2507359106
 C,0,2.0046271737,7.9995816203,-2.9124711
 H,0,2.8588788067,7.3958075736,-3.2360065623
 H,0,1.7162685288,8.6737730076,-3.7243303203
 C,0,2.3791656947,8.8366793888,-1.6907535189
 O,0,1.5005679531,9.4359994798,-1.0169578384
 N,0,3.6704130597,8.900332751,-1.4022319748
 H,0,4.3555934795,8.3584957982,-1.9406486564
 C,0,4.2159089741,9.4929202766,-0.1865471613
 H,0,5.1047741032,10.0742669394,-0.4303723406
 H,0,3.4602481964,10.1471655607,0.2530797943
 C,0,4.6508756181,8.40240113,0.8165264582
 O,0,5.6983528764,8.4935111774,1.4367367416
 N,0,3.7631355089,7.3718014201,0.9369754297
 H,0,3.0209705918,7.2908716999,0.2503162487
 C,0,4.1130331747,6.110537848,1.5736006042
 H,0,5.0389067919,6.2657961068,2.1348454176
 H,0,3.3291913877,5.7836368409,2.2599189238
 C,0,4.2920106225,5.0097662739,0.5213057341
 O,0,3.7633920031,3.9063052737,0.6066521998
 N,0,5.0919320727,5.363303932,-0.5234354101
 H,0,5.4035197893,6.3203856993,-0.6537484159
 C,0,5.2442340537,4.4672737015,-1.6450064362
 H,0,5.3544002744,3.4484241203,-1.2670848067
 H,0,6.1441740672,4.7366132788,-2.1993916875
 C,0,4.0721155669,4.5477890894,-2.6227415866
 O,0,4.006777491,5.398674162,-3.5242512082
 N,0,3.114006653,3.6058702094,-2.4827659966
 H,0,3.1987397531,2.9411833926,-1.7238197557
 C,0,2.2172090363,3.3458949962,-3.5968475463
 H,0,1.532384139,2.5436363045,-3.3137705633
 H,0,1.6433562258,4.2470329592,-3.8361834128
 C,0,3.0577383693,2.8668268944,-4.7927077591
 O,0,3.7618114361,1.8649766904,-4.6890697479
 N,0,2.9968895841,3.6293620082,-5.911172461
 H,0,2.6362608132,4.5690442306,-5.8134352276
 C,0,3.8627746645,3.3596923978,-7.0560387411
 H,0,3.8982559619,2.2756400185,-7.1951091188
 H,0,3.4342044486,3.8216399896,-7.9454027938
 C,0,5.2891388693,3.9155025858,-6.8924481336
 O,0,5.7584796555,4.7315787697,-7.6694372902
 N,0,5.9701182615,3.4412458842,-5.8014509305
 H,0,5.5572814488,2.6663957007,-5.2894611663
 C,0,7.3709048478,3.7708382598,-5.6114908366
 H,0,7.8798415803,3.8097979703,-6.5806434411
 H,0,7.849509916,2.9908318363,-5.0147832275
 C,0,7.6533308734,5.1134112249,-4.9373434137
 O,0,8.8098638465,5.4451305421,-4.6607447417
 N,0,6.5873120627,5.9076380455,-4.6906477296
 H,0,5.6462698642,5.5329441107,-4.729816053
 C,0,6.7561548108,7.2562779631,-4.185403344
 H,0,7.6305771604,7.6992119023,-4.6714600719
 H,0,5.8693635655,7.8395631465,-4.4332279274
 C,0,6.931678345,7.2810830401,-2.667581014
 O,0,6.0372278467,7.712039487,-1.9151849516
 N,0,8.0888314631,6.7730446886,-2.2147697047
 H,0,8.6923098509,6.3318023543,-2.9165255795
 C,0,8.387033354,6.6188372177,-0.7954144505
 H,0,8.1822303624,5.5992685169,-0.4541735212
 H,0,7.7354228644,7.2955624918,-0.2334664947
 C,0,9.8368396184,6.9306347123,-0.4254181322
 O,0,10.3220483781,6.4709055173,0.5943887553
 N,0,10.5157766547,7.7351972886,-1.2981772407
 H,0,9.9741190804,8.2404712212,-1.9859393129
 C,0,11.8021942831,8.2756504532,-0.9190045863
 H,0,12.4066762796,8.474379865,-1.8089774395
 H,0,12.3250629775,7.5251407139,-0.322332208
 C,0,11.7561609418,9.5540744729,-0.0895622998
 O,0,12.7393603723,10.1011935732,0.3464235061
 O,0,10.4964653477,10.0183952133,0.0891578481
 H,0,10.5825104339,10.8152744915,0.6461984687
 Recover connectivity data from disk.
                           ----------------------------
                           !    Current Parameters    !
                           ! (Angstroms and Degrees)  !
 --------------------------                            --------------------------
 ! Name  Definition              Value                                          !
 --------------------------------------------------------------------------------
 ! R1    R(1,2)                  1.0517                                         !
 ! R2    R(1,3)                  1.0456                                         !
 ! R3    R(1,4)                  1.0235                                         !
 ! R4    R(1,5)                  1.5059                                         !
 ! R5    R(5,6)                  1.0887                                         !
 ! R6    R(5,7)                  1.0926                                         !
 ! R7    R(5,8)                  1.537                                          !
 ! R8    R(8,9)                  1.227                                          !
 ! R9    R(8,10)                 1.3548                                         !
 ! R10   R(10,11)                1.023                                          !
 ! R11   R(10,12)                1.4628                                         !
 ! R12   R(12,13)                1.0897                                         !
 ! R13   R(12,14)                1.0918                                         !
 ! R14   R(12,15)                1.5282                                         !
 ! R15   R(15,16)                1.2359                                         !
 ! R16   R(15,17)                1.3576                                         !
 ! R17   R(17,18)                1.0187                                         !
 ! R18   R(17,19)                1.4556                                         !
 ! R19   R(19,20)                1.0918                                         !
 ! R20   R(19,21)                1.0923                                         !
 ! R21   R(19,22)                1.5303                                         !
 ! R22   R(22,23)                1.2378                                         !
 ! R23   R(22,24)                1.3478                                         !
 ! R24   R(24,25)                1.0109                                         !
 ! R25   R(24,26)                1.451                                          !
 ! R26   R(26,27)                1.0907                                         !
 ! R27   R(26,28)                1.0925                                         !
 ! R28   R(26,29)                1.5347                                         !
 ! R29   R(29,30)                1.2331                                         !
 ! R30   R(29,31)                1.3476                                         !
 ! R31   R(31,32)                1.0191                                         !
 ! R32   R(31,33)                1.4557                                         !
 ! R33   R(33,34)                1.095                                          !
 ! R34   R(33,35)                1.094                                          !
 ! R35   R(33,36)                1.5276                                         !
 ! R36   R(36,37)                1.259                                          !
 ! R37   R(36,38)                1.3246                                         !
 ! R38   R(38,39)                1.0261                                         !
 ! R39   R(38,40)                1.4583                                         !
 ! R40   R(40,41)                1.0897                                         !
 ! R41   R(40,42)                1.0919                                         !
 ! R42   R(40,43)                1.5442                                         !
 ! R43   R(43,44)                1.2207                                         !
 ! R44   R(43,45)                1.3655                                         !
 ! R45   R(45,46)                1.0143                                         !
 ! R46   R(45,47)                1.4555                                         !
 ! R47   R(47,48)                1.0938                                         !
 ! R48   R(47,49)                1.0919                                         !
 ! R49   R(47,50)                1.5333                                         !
 ! R50   R(50,51)                1.2265                                         !
 ! R51   R(50,52)                1.3625                                         !
 ! R52   R(52,53)                1.0149                                         !
 ! R53   R(52,54)                1.4436                                         !
 ! R54   R(54,55)                1.0923                                         !
 ! R55   R(54,56)                1.0908                                         !
 ! R56   R(54,57)                1.5285                                         !
 ! R57   R(57,58)                1.2414                                         !
 ! R58   R(57,59)                1.3508                                         !
 ! R59   R(59,60)                1.0124                                         !
 ! R60   R(59,61)                1.4536                                         !
 ! R61   R(61,62)                1.0921                                         !
 ! R62   R(61,63)                1.0948                                         !
 ! R63   R(61,64)                1.5382                                         !
 ! R64   R(64,65)                1.2289                                         !
 ! R65   R(64,66)                1.355                                          !
 ! R66   R(66,67)                1.0112                                         !
 ! R67   R(66,68)                1.4605                                         !
 ! R68   R(68,69)                1.0935                                         !
 ! R69   R(68,70)                1.09                                           !
 ! R70   R(68,71)                1.5395                                         !
 ! R71   R(71,72)                1.2206                                         !
 ! R72   R(71,73)                1.3707                                         !
 ! R73   R(73,74)                1.0163                                         !
 ! R74   R(73,75)                1.4515                                         !
 ! R75   R(75,76)                1.0953                                         !
 ! R76   R(75,77)                1.0925                                         !
 ! R77   R(75,78)                1.5286                                         !
 ! R78   R(78,79)                1.2345                                         !
 ! R79   R(78,80)                1.3521                                         !
 ! R80   R(80,81)                1.0137                                         !
 ! R81   R(80,82)                1.45                                           !
 ! R82   R(82,83)                1.0941                                         !
 ! R83   R(82,84)                1.09                                           !
 ! R84   R(82,85)                1.5281                                         !
 ! R85   R(85,86)                1.2457                                         !
 ! R86   R(85,87)                1.3424                                         !
 ! R87   R(87,88)                1.0253                                         !
 ! R88   R(87,89)                1.4585                                         !
 ! R89   R(89,90)                1.0945                                         !
 ! R90   R(89,91)                1.0947                                         !
 ! R91   R(89,92)                1.5284                                         !
 ! R92   R(92,93)                1.2193                                         !
 ! R93   R(92,94)                1.3675                                         !
 ! R94   R(94,95)                1.0108                                         !
 ! R95   R(94,96)                1.4459                                         !
 ! R96   R(96,97)                1.094                                          !
 ! R97   R(96,98)                1.0921                                         !
 ! R98   R(96,99)                1.5246                                         !
 ! R99   R(99,100)               1.2067                                         !
 ! R100  R(99,101)               1.3544                                         !
 ! R101  R(101,102)              0.9761                                         !
 ! A1    A(2,1,3)              107.9474                                         !
 ! A2    A(2,1,4)              108.352                                          !
 ! A3    A(2,1,5)              109.3552                                         !
 ! A4    A(3,1,4)              109.3233                                         !
 ! A5    A(3,1,5)              110.4752                                         !
 ! A6    A(4,1,5)              111.3016                                         !
 ! A7    A(1,5,6)              108.7505                                         !
 ! A8    A(1,5,7)              107.4633                                         !
 ! A9    A(1,5,8)              111.0986                                         !
 ! A10   A(6,5,7)              110.3263                                         !
 ! A11   A(6,5,8)              107.2949                                         !
 ! A12   A(7,5,8)              111.8855                                         !
 ! A13   A(5,8,9)              119.9654                                         !
 ! A14   A(5,8,10)             115.8647                                         !
 ! A15   A(9,8,10)             124.1696                                         !
 ! A16   A(8,10,11)            119.5433                                         !
 ! A17   A(8,10,12)            120.1188                                         !
 ! A18   A(11,10,12)           118.3054                                         !
 ! A19   A(10,12,13)           109.2118                                         !
 ! A20   A(10,12,14)           109.0455                                         !
 ! A21   A(10,12,15)           106.7501                                         !
 ! A22   A(13,12,14)           109.868                                          !
 ! A23   A(13,12,15)           109.418                                          !
 ! A24   A(14,12,15)           112.4587                                         !
 ! A25   A(12,15,16)           121.9842                                         !
 ! A26   A(12,15,17)           115.0017                                         !
 ! A27   A(16,15,17)           122.5846                                         !
 ! A28   A(15,17,18)           116.1078                                         !
 ! A29   A(15,17,19)           118.0012                                         !
 ! A30   A(18,17,19)           117.1842                                         !
 ! A31   A(17,19,20)           108.6895                                         !
 ! A32   A(17,19,21)           110.0505                                         !
 ! A33   A(17,19,22)           107.7604                                         !
 ! A34   A(20,19,21)           108.8988                                         !
 ! A35   A(20,19,22)           109.2422                                         !
 ! A36   A(21,19,22)           112.1363                                         !
 ! A37   A(19,22,23)           119.9228                                         !
 ! A38   A(19,22,24)           117.9392                                         !
 ! A39   A(23,22,24)           122.0474                                         !
 ! A40   A(22,24,25)           118.8201                                         !
 ! A41   A(22,24,26)           120.1458                                         !
 ! A42   A(25,24,26)           119.924                                          !
 ! A43   A(24,26,27)           109.8307                                         !
 ! A44   A(24,26,28)           109.2033                                         !
 ! A45   A(24,26,29)           114.8496                                         !
 ! A46   A(27,26,28)           107.576                                          !
 ! A47   A(27,26,29)           107.403                                          !
 ! A48   A(28,26,29)           107.7206                                         !
 ! A49   A(26,29,30)           118.9015                                         !
 ! A50   A(26,29,31)           117.7665                                         !
 ! A51   A(30,29,31)           123.2871                                         !
 ! A52   A(29,31,32)           121.1864                                         !
 ! A53   A(29,31,33)           121.1469                                         !
 ! A54   A(32,31,33)           117.3744                                         !
 ! A55   A(31,33,34)           109.3684                                         !
 ! A56   A(31,33,35)           106.8983                                         !
 ! A57   A(31,33,36)           112.4237                                         !
 ! A58   A(34,33,35)           109.0371                                         !
 ! A59   A(34,33,36)           110.3153                                         !
 ! A60   A(35,33,36)           108.689                                          !
 ! A61   A(33,36,37)           121.1823                                         !
 ! A62   A(33,36,38)           116.0741                                         !
 ! A63   A(37,36,38)           122.7395                                         !
 ! A64   A(36,38,39)           120.7468                                         !
 ! A65   A(36,38,40)           124.4541                                         !
 ! A66   A(39,38,40)           113.7164                                         !
 ! A67   A(38,40,41)           109.5954                                         !
 ! A68   A(38,40,42)           108.6773                                         !
 ! A69   A(38,40,43)           111.0942                                         !
 ! A70   A(41,40,42)           109.5679                                         !
 ! A71   A(41,40,43)           106.9974                                         !
 ! A72   A(42,40,43)           110.8873                                         !
 ! A73   A(40,43,44)           121.2664                                         !
 ! A74   A(40,43,45)           114.0264                                         !
 ! A75   A(44,43,45)           124.7048                                         !
 ! A76   A(43,45,46)           118.4355                                         !
 ! A77   A(43,45,47)           122.4317                                         !
 ! A78   A(46,45,47)           113.7565                                         !
 ! A79   A(45,47,48)           107.7537                                         !
 ! A80   A(45,47,49)           111.2092                                         !
 ! A81   A(45,47,50)           110.4861                                         !
 ! A82   A(48,47,49)           109.1252                                         !
 ! A83   A(48,47,50)           110.8087                                         !
 ! A84   A(49,47,50)           107.4711                                         !
 ! A85   A(47,50,51)           123.2171                                         !
 ! A86   A(47,50,52)           114.11                                           !
 ! A87   A(51,50,52)           122.6729                                         !
 ! A88   A(50,52,53)           121.56                                           !
 ! A89   A(50,52,54)           119.777                                          !
 ! A90   A(53,52,54)           116.9473                                         !
 ! A91   A(52,54,55)           108.7114                                         !
 ! A92   A(52,54,56)           109.187                                          !
 ! A93   A(52,54,57)           112.543                                          !
 ! A94   A(55,54,56)           108.8428                                         !
 ! A95   A(55,54,57)           110.3533                                         !
 ! A96   A(56,54,57)           107.1314                                         !
 ! A97   A(54,57,58)           122.7525                                         !
 ! A98   A(54,57,59)           116.1602                                         !
 ! A99   A(58,57,59)           121.0554                                         !
 ! A100  A(57,59,60)           118.4314                                         !
 ! A101  A(57,59,61)           118.8727                                         !
 ! A102  A(60,59,61)           120.5807                                         !
 ! A103  A(59,61,62)           108.6376                                         !
 ! A104  A(59,61,63)           110.1029                                         !
 ! A105  A(59,61,64)           108.3262                                         !
 ! A106  A(62,61,63)           109.4278                                         !
 ! A107  A(62,61,64)           108.3833                                         !
 ! A108  A(63,61,64)           111.889                                          !
 ! A109  A(61,64,65)           120.0935                                         !
 ! A110  A(61,64,66)           116.2255                                         !
 ! A111  A(65,64,66)           123.6497                                         !
 ! A112  A(64,66,67)           117.3327                                         !
 ! A113  A(64,66,68)           121.0967                                         !
 ! A114  A(67,66,68)           117.3067                                         !
 ! A115  A(66,68,69)           107.5756                                         !
 ! A116  A(66,68,70)           109.1618                                         !
 ! A117  A(66,68,71)           113.5354                                         !
 ! A118  A(69,68,70)           109.2164                                         !
 ! A119  A(69,68,71)           109.9592                                         !
 ! A120  A(70,68,71)           107.3365                                         !
 ! A121  A(68,71,72)           122.0029                                         !
 ! A122  A(68,71,73)           114.8308                                         !
 ! A123  A(72,71,73)           123.1565                                         !
 ! A124  A(71,73,74)           117.5761                                         !
 ! A125  A(71,73,75)           120.3335                                         !
 ! A126  A(74,73,75)           119.9461                                         !
 ! A127  A(73,75,76)           109.9182                                         !
 ! A128  A(73,75,77)           109.3984                                         !
 ! A129  A(73,75,78)           115.8134                                         !
 ! A130  A(76,75,77)           107.7647                                         !
 ! A131  A(76,75,78)           105.8499                                         !
 ! A132  A(77,75,78)           107.7733                                         !
 ! A133  A(75,78,79)           120.5227                                         !
 ! A134  A(75,78,80)           116.7897                                         !
 ! A135  A(79,78,80)           122.6768                                         !
 ! A136  A(78,80,81)           120.5158                                         !
 ! A137  A(78,80,82)           121.2058                                         !
 ! A138  A(81,80,82)           117.7337                                         !
 ! A139  A(80,82,83)           108.3485                                         !
 ! A140  A(80,82,84)           108.8904                                         !
 ! A141  A(80,82,85)           111.9968                                         !
 ! A142  A(83,82,84)           109.4256                                         !
 ! A143  A(83,82,85)           110.0526                                         !
 ! A144  A(84,82,85)           108.0952                                         !
 ! A145  A(82,85,86)           121.5366                                         !
 ! A146  A(82,85,87)           115.3339                                         !
 ! A147  A(86,85,87)           123.1001                                         !
 ! A148  A(85,87,88)           116.061                                          !
 ! A149  A(85,87,89)           122.9903                                         !
 ! A150  A(88,87,89)           120.013                                          !
 ! A151  A(87,89,90)           111.3241                                         !
 ! A152  A(87,89,91)           108.2097                                         !
 ! A153  A(87,89,92)           114.0761                                         !
 ! A154  A(90,89,91)           107.7245                                         !
 ! A155  A(90,89,92)           106.9812                                         !
 ! A156  A(91,89,92)           108.3158                                         !
 ! A157  A(89,92,93)           120.1995                                         !
 ! A158  A(89,92,94)           115.8794                                         !
 ! A159  A(93,92,94)           123.9211                                         !
 ! A160  A(92,94,95)           117.5363                                         !
 ! A161  A(92,94,96)           119.6212                                         !
 ! A162  A(95,94,96)           117.9266                                         !
 ! A163  A(94,96,97)           110.2514                                         !
 ! A164  A(94,96,98)           108.2017                                         !
 ! A165  A(94,96,99)           115.418                                          !
 ! A166  A(97,96,98)           107.7425                                         !
 ! A167  A(97,96,99)           107.8738                                         !
 ! A168  A(98,96,99)           107.0657                                         !
 ! A169  A(96,99,100)          123.5147                                         !
 ! A170  A(96,99,101)          112.789                                          !
 ! A171  A(100,99,101)         123.6905                                         !
 ! A172  A(99,101,102)         105.8551                                         !
 ! D1    D(2,1,5,6)           -167.8907                                         !
 ! D2    D(2,1,5,7)            -48.4611                                         !
 ! D3    D(2,1,5,8)             74.2379                                         !
 ! D4    D(3,1,5,6)             73.4374                                         !
 ! D5    D(3,1,5,7)           -167.133                                          !
 ! D6    D(3,1,5,8)            -44.434                                          !
 ! D7    D(4,1,5,6)            -48.2109                                         !
 ! D8    D(4,1,5,7)             71.2187                                         !
 ! D9    D(4,1,5,8)           -166.0823                                         !
 ! D10   D(1,5,8,9)            117.7401                                         !
 ! D11   D(1,5,8,10)           -62.4472                                         !
 ! D12   D(6,5,8,9)             -1.0105                                         !
 ! D13   D(6,5,8,10)           178.8022                                         !
 ! D14   D(7,5,8,9)           -122.1517                                         !
 ! D15   D(7,5,8,10)            57.661                                          !
 ! D16   D(5,8,10,11)            8.7991                                         !
 ! D17   D(5,8,10,12)          172.3156                                         !
 ! D18   D(9,8,10,11)         -171.397                                          !
 ! D19   D(9,8,10,12)           -7.8806                                         !
 ! D20   D(8,10,12,13)         162.7525                                         !
 ! D21   D(8,10,12,14)          42.6839                                         !
 ! D22   D(8,10,12,15)         -79.048                                          !
 ! D23   D(11,10,12,13)        -33.5299                                         !
 ! D24   D(11,10,12,14)       -153.5985                                         !
 ! D25   D(11,10,12,15)         84.6695                                         !
 ! D26   D(10,12,15,16)        -91.5316                                         !
 ! D27   D(10,12,15,17)         81.1277                                         !
 ! D28   D(13,12,15,16)         26.5327                                         !
 ! D29   D(13,12,15,17)       -160.808                                          !
 ! D30   D(14,12,15,16)        148.9201                                         !
 ! D31   D(14,12,15,17)        -38.4205                                         !
 ! D32   D(12,15,17,18)         -8.2271                                         !
 ! D33   D(12,15,17,19)       -155.0308                                         !
 ! D34   D(16,15,17,18)        164.3832                                         !
 ! D35   D(16,15,17,19)         17.5795                                         !
 ! D36   D(15,17,19,20)        177.5736                                         !
 ! D37   D(15,17,19,21)        -63.2533                                         !
 ! D38   D(15,17,19,22)         59.3009                                         !
 ! D39   D(18,17,19,20)         31.1257                                         !
 ! D40   D(18,17,19,21)        150.2987                                         !
 ! D41   D(18,17,19,22)        -87.147                                          !
 ! D42   D(17,19,22,23)         53.8232                                         !
 ! D43   D(17,19,22,24)       -122.7877                                         !
 ! D44   D(20,19,22,23)        -64.0937                                         !
 ! D45   D(20,19,22,24)        119.2954                                         !
 ! D46   D(21,19,22,23)        175.0852                                         !
 ! D47   D(21,19,22,24)         -1.5257                                         !
 ! D48   D(19,22,24,25)          2.7135                                         !
 ! D49   D(19,22,24,26)        170.6617                                         !
 ! D50   D(23,22,24,25)       -173.8209                                         !
 ! D51   D(23,22,24,26)         -5.8727                                         !
 ! D52   D(22,24,26,27)         48.237                                          !
 ! D53   D(22,24,26,28)        165.9813                                         !
 ! D54   D(22,24,26,29)        -72.921                                          !
 ! D55   D(25,24,26,27)       -143.9482                                         !
 ! D56   D(25,24,26,28)        -26.2038                                         !
 ! D57   D(25,24,26,29)         94.8938                                         !
 ! D58   D(24,26,29,30)        157.9115                                         !
 ! D59   D(24,26,29,31)        -24.4469                                         !
 ! D60   D(27,26,29,30)         35.4353                                         !
 ! D61   D(27,26,29,31)       -146.923                                          !
 ! D62   D(28,26,29,30)        -80.183                                          !
 ! D63   D(28,26,29,31)         97.4586                                         !
 ! D64   D(26,29,31,32)         16.0452                                         !
 ! D65   D(26,29,31,33)       -170.3278                                         !
 ! D66   D(30,29,31,32)       -166.4248                                         !
 ! D67   D(30,29,31,33)          7.2023                                         !
 ! D68   D(29,31,33,34)         69.8007                                         !
 ! D69   D(29,31,33,35)       -172.2855                                         !
 ! D70   D(29,31,33,36)        -53.0996                                         !
 ! D71   D(32,31,33,34)       -116.3379                                         !
 ! D72   D(32,31,33,35)          1.5759                                         !
 ! D73   D(32,31,33,36)        120.7618                                         !
 ! D74   D(31,33,36,37)        -45.8088                                         !
 ! D75   D(31,33,36,38)        134.9104                                         !
 ! D76   D(34,33,36,37)       -168.1755                                         !
 ! D77   D(34,33,36,38)         12.5436                                         !
 ! D78   D(35,33,36,37)         72.3256                                         !
 ! D79   D(35,33,36,38)       -106.9553                                         !
 ! D80   D(33,36,38,39)         -4.1098                                         !
 ! D81   D(33,36,38,40)       -171.4502                                         !
 ! D82   D(37,36,38,39)        176.6216                                         !
 ! D83   D(37,36,38,40)          9.2813                                         !
 ! D84   D(36,38,40,41)       -138.5542                                         !
 ! D85   D(36,38,40,42)        -18.8438                                         !
 ! D86   D(36,38,40,43)        103.4174                                         !
 ! D87   D(39,38,40,41)         53.3179                                         !
 ! D88   D(39,38,40,42)        173.0283                                         !
 ! D89   D(39,38,40,43)        -64.7105                                         !
 ! D90   D(38,40,43,44)        137.509                                          !
 ! D91   D(38,40,43,45)        -43.0354                                         !
 ! D92   D(41,40,43,44)         17.9185                                         !
 ! D93   D(41,40,43,45)       -162.6259                                         !
 ! D94   D(42,40,43,44)       -101.5211                                         !
 ! D95   D(42,40,43,45)         77.9345                                         !
 ! D96   D(40,43,45,46)         12.7498                                         !
 ! D97   D(40,43,45,47)        165.2289                                         !
 ! D98   D(44,43,45,46)       -167.8162                                         !
 ! D99   D(44,43,45,47)        -15.3371                                         !
 ! D100  D(43,45,47,48)         15.2033                                         !
 ! D101  D(43,45,47,49)        134.7583                                         !
 ! D102  D(43,45,47,50)       -105.9826                                         !
 ! D103  D(46,45,47,48)        168.8476                                         !
 ! D104  D(46,45,47,49)        -71.5974                                         !
 ! D105  D(46,45,47,50)         47.6618                                         !
 ! D106  D(45,47,50,51)       -131.0542                                         !
 ! D107  D(45,47,50,52)         48.9013                                         !
 ! D108  D(48,47,50,51)        109.5913                                         !
 ! D109  D(48,47,50,52)        -70.4532                                         !
 ! D110  D(49,47,50,51)         -9.5563                                         !
 ! D111  D(49,47,50,52)        170.3992                                         !
 ! D112  D(47,50,52,53)         -9.6138                                         !
 ! D113  D(47,50,52,54)       -174.234                                          !
 ! D114  D(51,50,52,53)        170.3419                                         !
 ! D115  D(51,50,52,54)          5.7217                                         !
 ! D116  D(50,52,54,55)        -42.3607                                         !
 ! D117  D(50,52,54,56)       -160.9751                                         !
 ! D118  D(50,52,54,57)         80.1998                                         !
 ! D119  D(53,52,54,55)        152.3249                                         !
 ! D120  D(53,52,54,56)         33.7105                                         !
 ! D121  D(53,52,54,57)        -85.1146                                         !
 ! D122  D(52,54,57,58)         84.5191                                         !
 ! D123  D(52,54,57,59)        -97.5163                                         !
 ! D124  D(55,54,57,58)       -153.8491                                         !
 ! D125  D(55,54,57,59)         24.1155                                         !
 ! D126  D(56,54,57,58)        -35.5015                                         !
 ! D127  D(56,54,57,59)        142.4631                                         !
 ! D128  D(54,57,59,60)          3.0454                                         !
 ! D129  D(54,57,59,61)       -160.5294                                         !
 ! D130  D(58,57,59,60)       -178.9528                                         !
 ! D131  D(58,57,59,61)         17.4724                                         !
 ! D132  D(57,59,61,62)        178.5548                                         !
 ! D133  D(57,59,61,63)        -61.6275                                         !
 ! D134  D(57,59,61,64)         61.0178                                         !
 ! D135  D(60,59,61,62)         15.3428                                         !
 ! D136  D(60,59,61,63)        135.1605                                         !
 ! D137  D(60,59,61,64)       -102.1942                                         !
 ! D138  D(59,61,64,65)         58.4334                                         !
 ! D139  D(59,61,64,66)       -119.6078                                         !
 ! D140  D(62,61,64,65)        -59.2663                                         !
 ! D141  D(62,61,64,66)        122.6925                                         !
 ! D142  D(63,61,64,65)        179.9859                                         !
 ! D143  D(63,61,64,66)          1.9446                                         !
 ! D144  D(61,64,66,67)         16.9426                                         !
 ! D145  D(61,64,66,68)        173.1231                                         !
 ! D146  D(65,64,66,67)       -161.0215                                         !
 ! D147  D(65,64,66,68)         -4.841                                          !
 ! D148  D(64,66,68,69)         41.6137                                         !
 ! D149  D(64,66,68,70)        160.0103                                         !
 ! D150  D(64,66,68,71)        -80.2915                                         !
 ! D151  D(67,66,68,69)       -162.1999                                         !
 ! D152  D(67,66,68,70)        -43.8033                                         !
 ! D153  D(67,66,68,71)         75.8949                                         !
 ! D154  D(66,68,71,72)       -120.265                                          !
 ! D155  D(66,68,71,73)         58.6273                                         !
 ! D156  D(69,68,71,72)        119.1654                                         !
 ! D157  D(69,68,71,73)        -61.9423                                         !
 ! D158  D(70,68,71,72)          0.4668                                         !
 ! D159  D(70,68,71,73)        179.3591                                         !
 ! D160  D(68,71,73,74)          9.9111                                         !
 ! D161  D(68,71,73,75)        173.2621                                         !
 ! D162  D(72,71,73,74)       -171.211                                          !
 ! D163  D(72,71,73,75)         -7.8599                                         !
 ! D164  D(71,73,75,76)        -35.8488                                         !
 ! D165  D(71,73,75,77)       -153.9899                                         !
 ! D166  D(71,73,75,78)         84.0169                                         !
 ! D167  D(74,73,75,76)        127.1083                                         !
 ! D168  D(74,73,75,77)          8.9672                                         !
 ! D169  D(74,73,75,78)       -113.026                                          !
 ! D170  D(73,75,78,79)        175.6533                                         !
 ! D171  D(73,75,78,80)         -5.5083                                         !
 ! D172  D(76,75,78,79)        -62.2921                                         !
 ! D173  D(76,75,78,80)        116.5463                                         !
 ! D174  D(77,75,78,79)         52.7998                                         !
 ! D175  D(77,75,78,80)       -128.3618                                         !
 ! D176  D(75,78,80,81)         15.211                                          !
 ! D177  D(75,78,80,82)       -173.4451                                         !
 ! D178  D(79,78,80,81)       -165.9778                                         !
 ! D179  D(79,78,80,82)          5.3661                                         !
 ! D180  D(78,80,82,83)         38.3703                                         !
 ! D181  D(78,80,82,84)        157.3064                                         !
 ! D182  D(78,80,82,85)        -83.2029                                         !
 ! D183  D(81,80,82,83)       -150.053                                          !
 ! D184  D(81,80,82,84)        -31.1169                                         !
 ! D185  D(81,80,82,85)         88.3738                                         !
 ! D186  D(80,82,85,86)       -108.6478                                         !
 ! D187  D(80,82,85,87)         69.4368                                         !
 ! D188  D(83,82,85,86)        130.7635                                         !
 ! D189  D(83,82,85,87)        -51.1519                                         !
 ! D190  D(84,82,85,86)         11.3087                                         !
 ! D191  D(84,82,85,87)       -170.6066                                         !
 ! D192  D(82,85,87,88)         -6.2207                                         !
 ! D193  D(82,85,87,89)       -175.1292                                         !
 ! D194  D(86,85,87,88)        171.8306                                         !
 ! D195  D(86,85,87,89)          2.9221                                         !
 ! D196  D(85,87,89,90)         97.2354                                         !
 ! D197  D(85,87,89,91)        -20.9589                                         !
 ! D198  D(85,87,89,92)       -141.5784                                         !
 ! D199  D(88,87,89,90)        -71.2523                                         !
 ! D200  D(88,87,89,91)        170.5534                                         !
 ! D201  D(88,87,89,92)         49.9338                                         !
 ! D202  D(87,89,92,93)       -157.6709                                         !
 ! D203  D(87,89,92,94)         22.3293                                         !
 ! D204  D(90,89,92,93)        -34.105                                          !
 ! D205  D(90,89,92,94)        145.8952                                         !
 ! D206  D(91,89,92,93)         81.7688                                         !
 ! D207  D(91,89,92,94)        -98.231                                          !
 ! D208  D(89,92,94,95)         14.3684                                         !
 ! D209  D(89,92,94,96)        169.0589                                         !
 ! D210  D(93,92,94,95)       -165.6313                                         !
 ! D211  D(93,92,94,96)        -10.9408                                         !
 ! D212  D(92,94,96,97)        153.4057                                         !
 ! D213  D(92,94,96,98)         35.809                                          !
 ! D214  D(92,94,96,99)        -84.0783                                         !
 ! D215  D(95,94,96,97)        -52.0011                                         !
 ! D216  D(95,94,96,98)       -169.5978                                         !
 ! D217  D(95,94,96,99)         70.515                                          !
 ! D218  D(94,96,99,100)       177.1765                                         !
 ! D219  D(94,96,99,101)        -3.6721                                         !
 ! D220  D(97,96,99,100)       -59.0492                                         !
 ! D221  D(97,96,99,101)       120.1022                                         !
 ! D222  D(98,96,99,100)        56.6687                                         !
 ! D223  D(98,96,99,101)      -124.1798                                         !
 ! D224  D(96,99,101,102)      178.5373                                         !
 ! D225  D(100,99,101,102)      -2.313                                          !
 --------------------------------------------------------------------------------
 Symmetry turned off by external request.
 Stoichiometry    C28H45N14O15(1+)
 Framework group  C1[X(C28H45N14O15)]
 Deg. of freedom   300
 Full point group                 C1      NOp   1
                          Input orientation:                          
 ---------------------------------------------------------------------
 Center     Atomic      Atomic             Coordinates (Angstroms)
 Number     Number       Type             X           Y           Z
 ---------------------------------------------------------------------
      1          7           0       -0.378761    8.650097    0.701142
      2          1           0        0.466882    8.759132    0.085482
      3          1           0       -0.977510    7.894983    0.295390
      4          1           0       -0.064377    8.368723    1.633589
      5          6           0       -1.133202    9.952507    0.748079
      6          1           0       -1.873377    9.899661    1.544669
      7          1           0       -0.408789   10.743770    0.955005
      8          6           0       -1.892289   10.199847   -0.565323
      9          8           0       -3.116740   10.279190   -0.559923
     10          7           0       -1.126796   10.321005   -1.676603
     11          1           0       -0.126604   10.112628   -1.625301
     12          6           0       -1.754226   10.389585   -2.996229
     13          1           0       -1.036470   10.785146   -3.714418
     14          1           0       -2.625533   11.045369   -2.942816
     15          6           0       -2.123795    8.958077   -3.383127
     16          8           0       -1.354900    8.234255   -4.025193
     17          7           0       -3.279221    8.496919   -2.839610
     18          1           0       -3.711912    9.091840   -2.134936
     19          6           0       -3.433338    7.058189   -2.680939
     20          1           0       -4.390470    6.860417   -2.194216
     21          1           0       -3.426089    6.570737   -3.658369
     22          6           0       -2.298429    6.563541   -1.781470
     23          8           0       -2.115899    7.085703   -0.674149
     24          7           0       -1.481334    5.606578   -2.264341
     25          1           0       -1.618839    5.280665   -3.211326
     26          6           0       -0.275390    5.245757   -1.542582
     27          1           0       -0.508532    5.085755   -0.489151
     28          1           0        0.114045    4.305908   -1.940714
     29          6           0        0.852097    6.284684   -1.610507
     30          8           0        1.720054    6.280348   -0.734618
     31          7           0        0.865578    7.128726   -2.660903
     32          1           0        0.043429    7.250373   -3.250736
     33          6           0        2.004627    7.999582   -2.912471
     34          1           0        2.858879    7.395808   -3.236007
     35          1           0        1.716269    8.673773   -3.724330
     36          6           0        2.379166    8.836679   -1.690754
     37          8           0        1.500568    9.435999   -1.016958
     38          7           0        3.670413    8.900333   -1.402232
     39          1           0        4.355593    8.358496   -1.940649
     40          6           0        4.215909    9.492920   -0.186547
     41          1           0        5.104774   10.074267   -0.430372
     42          1           0        3.460248   10.147166    0.253080
     43          6           0        4.650876    8.402401    0.816526
     44          8           0        5.698353    8.493511    1.436737
     45          7           0        3.763136    7.371801    0.936975
     46          1           0        3.020971    7.290872    0.250316
     47          6           0        4.113033    6.110538    1.573601
     48          1           0        5.038907    6.265796    2.134845
     49          1           0        3.329191    5.783637    2.259919
     50          6           0        4.292011    5.009766    0.521306
     51          8           0        3.763392    3.906305    0.606652
     52          7           0        5.091932    5.363304   -0.523435
     53          1           0        5.403520    6.320386   -0.653748
     54          6           0        5.244234    4.467274   -1.645006
     55          1           0        5.354400    3.448424   -1.267085
     56          1           0        6.144174    4.736613   -2.199392
     57          6           0        4.072116    4.547789   -2.622742
     58          8           0        4.006777    5.398674   -3.524251
     59          7           0        3.114007    3.605870   -2.482766
     60          1           0        3.198740    2.941183   -1.723820
     61          6           0        2.217209    3.345895   -3.596848
     62          1           0        1.532384    2.543636   -3.313771
     63          1           0        1.643356    4.247033   -3.836183
     64          6           0        3.057738    2.866827   -4.792708
     65          8           0        3.761811    1.864977   -4.689070
     66          7           0        2.996890    3.629362   -5.911172
     67          1           0        2.636261    4.569044   -5.813435
     68          6           0        3.862775    3.359692   -7.056039
     69          1           0        3.898256    2.275640   -7.195109
     70          1           0        3.434204    3.821640   -7.945403
     71          6           0        5.289139    3.915503   -6.892448
     72          8           0        5.758480    4.731579   -7.669437
     73          7           0        5.970118    3.441246   -5.801451
     74          1           0        5.557281    2.666396   -5.289461
     75          6           0        7.370905    3.770838   -5.611491
     76          1           0        7.879842    3.809798   -6.580643
     77          1           0        7.849510    2.990832   -5.014783
     78          6           0        7.653331    5.113411   -4.937343
     79          8           0        8.809864    5.445131   -4.660745
     80          7           0        6.587312    5.907638   -4.690648
     81          1           0        5.646270    5.532944   -4.729816
     82          6           0        6.756155    7.256278   -4.185403
     83          1           0        7.630577    7.699212   -4.671460
     84          1           0        5.869364    7.839563   -4.433228
     85          6           0        6.931678    7.281083   -2.667581
     86          8           0        6.037228    7.712039   -1.915185
     87          7           0        8.088831    6.773045   -2.214770
     88          1           0        8.692310    6.331802   -2.916526
     89          6           0        8.387033    6.618837   -0.795414
     90          1           0        8.182230    5.599269   -0.454174
     91          1           0        7.735423    7.295562   -0.233466
     92          6           0        9.836840    6.930635   -0.425418
     93          8           0       10.322048    6.470906    0.594389
     94          7           0       10.515777    7.735197   -1.298177
     95          1           0        9.974119    8.240471   -1.985939
     96          6           0       11.802194    8.275650   -0.919005
     97          1           0       12.406676    8.474380   -1.808977
     98          1           0       12.325063    7.525141   -0.322332
     99          6           0       11.756161    9.554074   -0.089562
    100          8           0       12.739360   10.101194    0.346424
    101          8           0       10.496465   10.018395    0.089158
    102          1           0       10.582510   10.815274    0.646198
 ---------------------------------------------------------------------
 Rotational constants (GHZ):           0.0601869           0.0303515           0.0237225
 Standard basis: 6-31G(d) (6D, 7F)
   945 basis functions,  1776 primitive gaussians,   945 cartesian basis functions
   215 alpha electrons      215 beta electrons
       nuclear repulsion energy      9246.3368596902 Hartrees.
 NAtoms=  102 NActive=  102 NUniq=  102 SFac= 1.00D+00 NAtFMM=   60 NAOKFM=T Big=T
 Integral buffers will be    131072 words long.
 Raffenetti 2 integral format.
 Two-electron integral symmetry is turned off.
 Nuclear repulsion after empirical dispersion term =     9246.0877759142 Hartrees.
 One-electron integrals computed using PRISM.
 NBasis=   945 RedAO= T EigKep=  2.10D-03  NBF=   945
 NBsUse=   945 1.00D-06 EigRej= -1.00D+00 NBFU=   945
 Initial guess from the checkpoint file:  "conf-202.chk"
 B after Tr=     0.000000    0.000000    0.000000
         Rot=    1.000000    0.000000    0.000000    0.000000 Ang=   0.00 deg.
 Requested convergence on RMS density matrix=1.00D-08 within 128 cycles.
 Requested convergence on MAX density matrix=1.00D-06.
 Requested convergence on             energy=1.00D-06.
 No special actions if energy rises.
 SCF Done:  E(RB3LYP) =  -2989.24901727     A.U. after    3 cycles
            NFock=  3  Conv=0.57D-09     -V/T= 2.0091
 Hyperfine terms turned off by default for NAtoms > 100.

 **********************************************************************

            Population analysis using the SCF Density.

 **********************************************************************

 Alpha  occ. eigenvalues --  -19.26867 -19.26107 -19.25785 -19.25252 -19.25103
 Alpha  occ. eigenvalues --  -19.24787 -19.23542 -19.23530 -19.22173 -19.20622
 Alpha  occ. eigenvalues --  -19.20463 -19.20304 -19.19990 -19.19490 -19.18102
 Alpha  occ. eigenvalues --  -14.56658 -14.51269 -14.49066 -14.48866 -14.48771
 Alpha  occ. eigenvalues --  -14.48481 -14.47553 -14.47094 -14.46255 -14.45073
 Alpha  occ. eigenvalues --  -14.44795 -14.44599 -14.44275 -14.43201 -10.43630
 Alpha  occ. eigenvalues --  -10.42757 -10.42420 -10.42324 -10.41732 -10.40038
 Alpha  occ. eigenvalues --  -10.39779 -10.39505 -10.38310 -10.38108 -10.37937
 Alpha  occ. eigenvalues --  -10.37661 -10.37341 -10.37127 -10.36551 -10.36029
 Alpha  occ. eigenvalues --  -10.35837 -10.35534 -10.35078 -10.34678 -10.33138
 Alpha  occ. eigenvalues --  -10.32651 -10.32491 -10.31929 -10.31220 -10.31047
 Alpha  occ. eigenvalues --  -10.30860 -10.29702  -1.18944  -1.17729  -1.17150
 Alpha  occ. eigenvalues --   -1.16548  -1.16451  -1.16295  -1.15395  -1.14772
 Alpha  occ. eigenvalues --   -1.14029  -1.12735  -1.12508  -1.11990  -1.11793
 Alpha  occ. eigenvalues --   -1.11752  -1.10378  -1.07511  -1.07396  -1.05695
 Alpha  occ. eigenvalues --   -1.05396  -1.05056  -1.04611  -1.03681  -1.02978
 Alpha  occ. eigenvalues --   -1.02848  -1.02015  -1.01710  -1.00433  -1.00037
 Alpha  occ. eigenvalues --   -0.99271  -0.90329  -0.88940  -0.87561  -0.86999
 Alpha  occ. eigenvalues --   -0.85728  -0.85202  -0.84124  -0.83150  -0.82257
 Alpha  occ. eigenvalues --   -0.81667  -0.80813  -0.79319  -0.78381  -0.77651
 Alpha  occ. eigenvalues --   -0.74543  -0.73593  -0.72735  -0.71968  -0.71076
 Alpha  occ. eigenvalues --   -0.71025  -0.70510  -0.70100  -0.68920  -0.68727
 Alpha  occ. eigenvalues --   -0.68358  -0.68275  -0.67889  -0.67375  -0.67203
 Alpha  occ. eigenvalues --   -0.66875  -0.66154  -0.65748  -0.65616  -0.65156
 Alpha  occ. eigenvalues --   -0.64097  -0.63716  -0.63466  -0.63183  -0.62810
 Alpha  occ. eigenvalues --   -0.62366  -0.61854  -0.61598  -0.61393  -0.60588
 Alpha  occ. eigenvalues --   -0.60162  -0.59615  -0.59508  -0.59082  -0.58620
 Alpha  occ. eigenvalues --   -0.57974  -0.57763  -0.57623  -0.57097  -0.56944
 Alpha  occ. eigenvalues --   -0.56432  -0.55903  -0.55764  -0.55185  -0.54943
 Alpha  occ. eigenvalues --   -0.54757  -0.54634  -0.54369  -0.54197  -0.54011
 Alpha  occ. eigenvalues --   -0.53928  -0.53661  -0.53385  -0.53059  -0.52683
 Alpha  occ. eigenvalues --   -0.52586  -0.52160  -0.51967  -0.51773  -0.51655
 Alpha  occ. eigenvalues --   -0.51534  -0.51339  -0.51049  -0.50901  -0.50784
 Alpha  occ. eigenvalues --   -0.50648  -0.50446  -0.50299  -0.50024  -0.49714
 Alpha  occ. eigenvalues --   -0.49543  -0.49306  -0.49112  -0.48720  -0.48484
 Alpha  occ. eigenvalues --   -0.48428  -0.47924  -0.47490  -0.47237  -0.46731
 Alpha  occ. eigenvalues --   -0.46305  -0.46116  -0.45734  -0.45102  -0.44961
 Alpha  occ. eigenvalues --   -0.44289  -0.43490  -0.42668  -0.41669  -0.41268
 Alpha  occ. eigenvalues --   -0.40541  -0.40175  -0.39149  -0.38923  -0.38805
 Alpha  occ. eigenvalues --   -0.38549  -0.38330  -0.38231  -0.38070  -0.37590
 Alpha  occ. eigenvalues --   -0.37484  -0.36896  -0.36809  -0.36476  -0.36190
 Alpha  occ. eigenvalues --   -0.35387  -0.35237  -0.34334  -0.34053  -0.33736
 Alpha  occ. eigenvalues --   -0.33122  -0.33003  -0.32565  -0.31979  -0.31237
 Alpha virt. eigenvalues --   -0.13388  -0.12990  -0.12326  -0.11517  -0.10914
 Alpha virt. eigenvalues --   -0.10509  -0.09516  -0.09346  -0.07596  -0.06808
 Alpha virt. eigenvalues --   -0.06472  -0.06178  -0.05724  -0.05488  -0.04624
 Alpha virt. eigenvalues --   -0.04459  -0.02986  -0.01976  -0.01135  -0.00938
 Alpha virt. eigenvalues --   -0.00596  -0.00126   0.00193   0.00784   0.00985
 Alpha virt. eigenvalues --    0.01380   0.01758   0.01949   0.02200   0.02450
 Alpha virt. eigenvalues --    0.02860   0.03232   0.03671   0.03995   0.04400
 Alpha virt. eigenvalues --    0.04672   0.04810   0.05128   0.05335   0.05516
 Alpha virt. eigenvalues --    0.05818   0.05957   0.06261   0.06424   0.06624
 Alpha virt. eigenvalues --    0.06857   0.07170   0.07445   0.07693   0.07877
 Alpha virt. eigenvalues --    0.07912   0.08035   0.08451   0.08609   0.08749
 Alpha virt. eigenvalues --    0.09000   0.09161   0.09339   0.09642   0.09930
 Alpha virt. eigenvalues --    0.10278   0.10687   0.10803   0.11178   0.11350
 Alpha virt. eigenvalues --    0.11615   0.11953   0.12217   0.12370   0.12537
 Alpha virt. eigenvalues --    0.13005   0.13423   0.13621   0.13905   0.14392
 Alpha virt. eigenvalues --    0.14632   0.15060   0.15598   0.15932   0.16744
 Alpha virt. eigenvalues --    0.16863   0.17245   0.18013   0.18057   0.18577
 Alpha virt. eigenvalues --    0.19329   0.19540   0.19892   0.20489   0.21391
 Alpha virt. eigenvalues --    0.21692   0.22220   0.23199   0.24041   0.24570
 Alpha virt. eigenvalues --    0.24702   0.25586   0.25609   0.26407   0.26741
 Alpha virt. eigenvalues --    0.27499   0.27990   0.28300   0.28616   0.29105
 Alpha virt. eigenvalues --    0.29557   0.29662   0.30262   0.30726   0.31554
 Alpha virt. eigenvalues --    0.32047   0.32177   0.32516   0.33548   0.33567
 Alpha virt. eigenvalues --    0.35146   0.35372   0.37787   0.37890   0.38865
 Alpha virt. eigenvalues --    0.39247   0.39619   0.39706   0.40438   0.41011
 Alpha virt. eigenvalues --    0.41287   0.41369   0.41776   0.42521   0.43052
 Alpha virt. eigenvalues --    0.43204   0.43422   0.43544   0.43980   0.44158
 Alpha virt. eigenvalues --    0.44310   0.44481   0.44754   0.44894   0.45102
 Alpha virt. eigenvalues --    0.45462   0.46095   0.46239   0.46562   0.46645
 Alpha virt. eigenvalues --    0.46888   0.47535   0.47770   0.48205   0.48547
 Alpha virt. eigenvalues --    0.48830   0.49116   0.49260   0.49660   0.50204
 Alpha virt. eigenvalues --    0.50282   0.50489   0.50659   0.51307   0.51496
 Alpha virt. eigenvalues --    0.51726   0.52272   0.52674   0.52877   0.53142
 Alpha virt. eigenvalues --    0.53551   0.53861   0.54167   0.54499   0.54903
 Alpha virt. eigenvalues --    0.54999   0.55386   0.55584   0.55845   0.56742
 Alpha virt. eigenvalues --    0.56984   0.57130   0.57552   0.57653   0.58206
 Alpha virt. eigenvalues --    0.58346   0.58659   0.59003   0.59135   0.59549
 Alpha virt. eigenvalues --    0.59784   0.60205   0.60691   0.60988   0.61301
 Alpha virt. eigenvalues --    0.61600   0.61864   0.62191   0.62372   0.62937
 Alpha virt. eigenvalues --    0.63084   0.63603   0.63831   0.64366   0.64774
 Alpha virt. eigenvalues --    0.65099   0.65438   0.65753   0.66321   0.66841
 Alpha virt. eigenvalues --    0.68217   0.68660   0.69242   0.69422   0.69867
 Alpha virt. eigenvalues --    0.70075   0.70450   0.70579   0.70961   0.71092
 Alpha virt. eigenvalues --    0.71473   0.71830   0.72483   0.72621   0.72703
 Alpha virt. eigenvalues --    0.72948   0.73289   0.73358   0.73727   0.74254
 Alpha virt. eigenvalues --    0.74544   0.74809   0.75082   0.75209   0.75346
 Alpha virt. eigenvalues --    0.75607   0.76065   0.76231   0.76898   0.77132
 Alpha virt. eigenvalues --    0.77321   0.77575   0.78151   0.78444   0.78659
 Alpha virt. eigenvalues --    0.79100   0.79232   0.79439   0.79811   0.79945
 Alpha virt. eigenvalues --    0.80077   0.80145   0.80504   0.81027   0.81412
 Alpha virt. eigenvalues --    0.81580   0.82163   0.82426   0.82477   0.82614
 Alpha virt. eigenvalues --    0.82734   0.83508   0.84005   0.84283   0.84868
 Alpha virt. eigenvalues --    0.84967   0.85450   0.85711   0.86029   0.86359
 Alpha virt. eigenvalues --    0.86781   0.87494   0.87779   0.88194   0.88436
 Alpha virt. eigenvalues --    0.88712   0.88925   0.89253   0.89386   0.90271
 Alpha virt. eigenvalues --    0.90878   0.91098   0.91344   0.91798   0.92674
 Alpha virt. eigenvalues --    0.92801   0.93003   0.93985   0.94234   0.95133
 Alpha virt. eigenvalues --    0.95834   0.96424   0.96741   0.97102   0.97802
 Alpha virt. eigenvalues --    0.98133   0.98454   0.98736   0.99069   0.99351
 Alpha virt. eigenvalues --    0.99651   1.00093   1.00423   1.00753   1.01451
 Alpha virt. eigenvalues --    1.01921   1.02415   1.02881   1.03200   1.03591
 Alpha virt. eigenvalues --    1.03671   1.04183   1.04545   1.05014   1.05504
 Alpha virt. eigenvalues --    1.06070   1.06340   1.06851   1.07076   1.07368
 Alpha virt. eigenvalues --    1.07891   1.08353   1.08908   1.09171   1.09650
 Alpha virt. eigenvalues --    1.10326   1.10685   1.11770   1.12247   1.12780
 Alpha virt. eigenvalues --    1.13130   1.13498   1.13969   1.14269   1.14684
 Alpha virt. eigenvalues --    1.15210   1.15399   1.16035   1.16594   1.17025
 Alpha virt. eigenvalues --    1.17415   1.17901   1.18376   1.19341   1.19437
 Alpha virt. eigenvalues --    1.20326   1.20656   1.21660   1.21796   1.22927
 Alpha virt. eigenvalues --    1.23830   1.24314   1.25095   1.25315   1.25410
 Alpha virt. eigenvalues --    1.26203   1.26569   1.27966   1.28170   1.29237
 Alpha virt. eigenvalues --    1.29424   1.29740   1.29796   1.30961   1.31792
 Alpha virt. eigenvalues --    1.32380   1.32814   1.32930   1.33300   1.33699
 Alpha virt. eigenvalues --    1.33914   1.34092   1.34461   1.34592   1.35165
 Alpha virt. eigenvalues --    1.35791   1.36269   1.36694   1.37338   1.37838
 Alpha virt. eigenvalues --    1.38353   1.39105   1.39481   1.40256   1.40940
 Alpha virt. eigenvalues --    1.40954   1.41093   1.41772   1.42179   1.43656
 Alpha virt. eigenvalues --    1.44092   1.44432   1.44924   1.45356   1.45779
 Alpha virt. eigenvalues --    1.47792   1.47997   1.48548   1.48713   1.49413
 Alpha virt. eigenvalues --    1.49673   1.50060   1.50299   1.51883   1.52734
 Alpha virt. eigenvalues --    1.53350   1.53881   1.55704   1.56309   1.56741
 Alpha virt. eigenvalues --    1.57869   1.58168   1.58564   1.58867   1.59074
 Alpha virt. eigenvalues --    1.60304   1.60787   1.61150   1.62762   1.63257
 Alpha virt. eigenvalues --    1.63515   1.64170   1.64273   1.64467   1.64993
 Alpha virt. eigenvalues --    1.65316   1.65794   1.65836   1.66188   1.66650
 Alpha virt. eigenvalues --    1.67476   1.67658   1.67872   1.68287   1.68546
 Alpha virt. eigenvalues --    1.69158   1.69574   1.70054   1.70109   1.70234
 Alpha virt. eigenvalues --    1.70632   1.70801   1.71186   1.71318   1.71736
 Alpha virt. eigenvalues --    1.71884   1.72044   1.72528   1.72882   1.73036
 Alpha virt. eigenvalues --    1.73130   1.73419   1.73584   1.74006   1.74273
 Alpha virt. eigenvalues --    1.74409   1.74792   1.75424   1.75549   1.75877
 Alpha virt. eigenvalues --    1.76158   1.76428   1.76923   1.77487   1.77764
 Alpha virt. eigenvalues --    1.77995   1.78571   1.79078   1.79450   1.79777
 Alpha virt. eigenvalues --    1.79917   1.80266   1.80410   1.80650   1.80950
 Alpha virt. eigenvalues --    1.81220   1.81892   1.82449   1.82592   1.82848
 Alpha virt. eigenvalues --    1.82913   1.82996   1.83591   1.83993   1.84563
 Alpha virt. eigenvalues --    1.85144   1.85621   1.86056   1.86282   1.86519
 Alpha virt. eigenvalues --    1.87002   1.87100   1.87329   1.87614   1.88041
 Alpha virt. eigenvalues --    1.88429   1.88761   1.89235   1.89953   1.90185
 Alpha virt. eigenvalues --    1.90539   1.91330   1.91648   1.92554   1.93006
 Alpha virt. eigenvalues --    1.93546   1.93794   1.94027   1.94604   1.95070
 Alpha virt. eigenvalues --    1.95250   1.95762   1.96254   1.96954   1.97518
 Alpha virt. eigenvalues --    1.97996   1.98306   1.98525   1.99070   1.99583
 Alpha virt. eigenvalues --    2.00037   2.00418   2.01547   2.01794   2.02364
 Alpha virt. eigenvalues --    2.03113   2.03157   2.03202   2.04415   2.05186
 Alpha virt. eigenvalues --    2.05665   2.05868   2.06117   2.06918   2.07922
 Alpha virt. eigenvalues --    2.08662   2.08869   2.09932   2.10563   2.11706
 Alpha virt. eigenvalues --    2.12259   2.12731   2.12890   2.13898   2.14311
 Alpha virt. eigenvalues --    2.14974   2.15606   2.15892   2.17248   2.18912
 Alpha virt. eigenvalues --    2.20519   2.21152   2.21300   2.22345   2.22575
 Alpha virt. eigenvalues --    2.23433   2.23565   2.23896   2.24360   2.25047
 Alpha virt. eigenvalues --    2.25226   2.25883   2.26692   2.26784   2.27010
 Alpha virt. eigenvalues --    2.27706   2.27953   2.28440   2.29124   2.29713
 Alpha virt. eigenvalues --    2.29974   2.30358   2.30956   2.31284   2.32247
 Alpha virt. eigenvalues --    2.32448   2.32590   2.33439   2.33846   2.34220
 Alpha virt. eigenvalues --    2.34323   2.34588   2.35241   2.35403   2.35802
 Alpha virt. eigenvalues --    2.36818   2.37254   2.37662   2.38722   2.38982
 Alpha virt. eigenvalues --    2.39347   2.39733   2.39800   2.40182   2.40395
 Alpha virt. eigenvalues --    2.42344   2.43958   2.44770   2.46012   2.46775
 Alpha virt. eigenvalues --    2.47035   2.47284   2.47887   2.48659   2.49265
 Alpha virt. eigenvalues --    2.50279   2.50969   2.51777   2.52183   2.53231
 Alpha virt. eigenvalues --    2.53364   2.54117   2.54824   2.55429   2.55793
 Alpha virt. eigenvalues --    2.56774   2.56949   2.57084   2.58216   2.58343
 Alpha virt. eigenvalues --    2.59302   2.59926   2.60459   2.60790   2.61618
 Alpha virt. eigenvalues --    2.62275   2.62612   2.62937   2.63436   2.64332
 Alpha virt. eigenvalues --    2.65290   2.65811   2.65926   2.66617   2.68107
 Alpha virt. eigenvalues --    2.69566   2.70280   2.74580   2.75488   2.75970
 Alpha virt. eigenvalues --    2.76550   2.77133   2.78067   2.78958   2.79558
 Alpha virt. eigenvalues --    2.80782   2.82940   2.85454   2.86040   2.86494
 Alpha virt. eigenvalues --    2.87108   2.88677   2.89574   2.89924   2.90888
 Alpha virt. eigenvalues --    2.91035   2.91259   2.91721   2.92346   2.93215
 Alpha virt. eigenvalues --    2.93789   2.94316   2.96315   2.97847   2.99352
 Alpha virt. eigenvalues --    3.01121   3.01371   3.02277   3.02891   3.03539
 Alpha virt. eigenvalues --    3.03828   3.04483   3.05135   3.05443   3.06307
 Alpha virt. eigenvalues --    3.07446   3.08020   3.09783   3.72190   3.77947
 Alpha virt. eigenvalues --    3.82501   3.84231   3.86259   3.87247   3.89173
 Alpha virt. eigenvalues --    3.89865   3.91581   3.92996   3.93903   3.95833
 Alpha virt. eigenvalues --    3.96666   3.97431   3.97837   4.00206   4.00721
 Alpha virt. eigenvalues --    4.01485   4.03556   4.04631   4.06018   4.06735
 Alpha virt. eigenvalues --    4.09180   4.09631   4.10652   4.11139   4.12365
 Alpha virt. eigenvalues --    4.13609   4.13950   4.14827   4.17108   4.18485
 Alpha virt. eigenvalues --    4.19379   4.20883   4.21604   4.23124   4.25561
 Alpha virt. eigenvalues --    4.26172   4.27000   4.28262   4.29481   4.29545
 Alpha virt. eigenvalues --    4.35164   4.36106   4.42015   4.43084   4.44065
 Alpha virt. eigenvalues --    4.44433   4.45707   4.47742   4.48904   4.50053
 Alpha virt. eigenvalues --    4.52455   4.53510   4.53902   4.55117   4.56658
          Condensed to atoms (all electrons):
 Mulliken charges:
               1
     1  N   -0.810042
     2  H    0.450280
     3  H    0.448935
     4  H    0.403522
     5  C   -0.268406
     6  H    0.238216
     7  H    0.230276
     8  C    0.605070
     9  O   -0.502125
    10  N   -0.604199
    11  H    0.388250
    12  C   -0.238732
    13  H    0.198310
    14  H    0.215952
    15  C    0.596317
    16  O   -0.550514
    17  N   -0.552037
    18  H    0.388117
    19  C   -0.230840
    20  H    0.217136
    21  H    0.193341
    22  C    0.617811
    23  O   -0.558683
    24  N   -0.572117
    25  H    0.360615
    26  C   -0.244344
    27  H    0.217407
    28  H    0.210885
    29  C    0.609335
    30  O   -0.543060
    31  N   -0.618847
    32  H    0.405046
    33  C   -0.258810
    34  H    0.230071
    35  H    0.199797
    36  C    0.634158
    37  O   -0.621913
    38  N   -0.580710
    39  H    0.399311
    40  C   -0.243981
    41  H    0.212078
    42  H    0.197562
    43  C    0.582450
    44  O   -0.492319
    45  N   -0.634757
    46  H    0.390843
    47  C   -0.230678
    48  H    0.223835
    49  H    0.180181
    50  C    0.598643
    51  O   -0.528106
    52  N   -0.615184
    53  H    0.401836
    54  C   -0.238994
    55  H    0.196223
    56  H    0.178541
    57  C    0.623488
    58  O   -0.573297
    59  N   -0.554265
    60  H    0.373461
    61  C   -0.231661
    62  H    0.195222
    63  H    0.150378
    64  C    0.607057
    65  O   -0.520542
    66  N   -0.562739
    67  H    0.344213
    68  C   -0.248906
    69  H    0.212485
    70  H    0.196300
    71  C    0.574211
    72  O   -0.483215
    73  N   -0.630327
    74  H    0.375197
    75  C   -0.220129
    76  H    0.225386
    77  H    0.192820
    78  C    0.606478
    79  O   -0.537442
    80  N   -0.591677
    81  H    0.386759
    82  C   -0.218441
    83  H    0.205012
    84  H    0.173443
    85  C    0.598829
    86  O   -0.574543
    87  N   -0.607304
    88  H    0.394716
    89  C   -0.251271
    90  H    0.198991
    91  H    0.232052
    92  C    0.599325
    93  O   -0.493873
    94  N   -0.574593
    95  H    0.334243
    96  C   -0.240596
    97  H    0.200174
    98  H    0.236192
    99  C    0.587617
   100  O   -0.440784
   101  O   -0.568023
   102  H    0.418628
 Sum of Mulliken charges =   1.00000
 Mulliken charges with hydrogens summed into heavy atoms:
               1
     1  N    0.492695
     5  C    0.200085
     8  C    0.605070
     9  O   -0.502125
    10  N   -0.215949
    12  C    0.175530
    15  C    0.596317
    16  O   -0.550514
    17  N   -0.163920
    19  C    0.179638
    22  C    0.617811
    23  O   -0.558683
    24  N   -0.211502
    26  C    0.183947
    29  C    0.609335
    30  O   -0.543060
    31  N   -0.213801
    33  C    0.171059
    36  C    0.634158
    37  O   -0.621913
    38  N   -0.181398
    40  C    0.165658
    43  C    0.582450
    44  O   -0.492319
    45  N   -0.243915
    47  C    0.173338
    50  C    0.598643
    51  O   -0.528106
    52  N   -0.213348
    54  C    0.135770
    57  C    0.623488
    58  O   -0.573297
    59  N   -0.180804
    61  C    0.113939
    64  C    0.607057
    65  O   -0.520542
    66  N   -0.218526
    68  C    0.159880
    71  C    0.574211
    72  O   -0.483215
    73  N   -0.255130
    75  C    0.198078
    78  C    0.606478
    79  O   -0.537442
    80  N   -0.204918
    82  C    0.160013
    85  C    0.598829
    86  O   -0.574543
    87  N   -0.212588
    89  C    0.179772
    92  C    0.599325
    93  O   -0.493873
    94  N   -0.240350
    96  C    0.195770
    99  C    0.587617
   100  O   -0.440784
   101  O   -0.149395
 Electronic spatial extent (au):  <R**2>=         144052.6770
 Charge=              1.0000 electrons
 Dipole moment (field-independent basis, Debye):
    X=             -1.5832    Y=             36.0793    Z=            -11.7577  Tot=             37.9798
 Quadrupole moment (field-independent basis, Debye-Ang):
   XX=           -337.3683   YY=            -18.8292   ZZ=           -292.6308
   XY=             -6.1689   XZ=            -30.3583   YZ=            -65.1232
 Traceless Quadrupole moment (field-independent basis, Debye-Ang):
   XX=           -121.0922   YY=            197.4469   ZZ=            -76.3547
   XY=             -6.1689   XZ=            -30.3583   YZ=            -65.1232
 Octapole moment (field-independent basis, Debye-Ang**2):
  XXX=          -4287.0944  YYY=          -3765.9342  ZZZ=           2070.2243  XYY=          -1165.4667
  XXY=          -2338.4337  XXZ=            307.7768  XZZ=          -1318.7950  YZZ=          -2026.4235
  YYZ=            229.3460  XYZ=           -200.9236
 Hexadecapole moment (field-independent basis, Debye-Ang**3):
 XXXX=         -72459.8494 YYYY=         -72200.7185 ZZZZ=         -19944.4269 XXXY=         -28958.3685
 XXXZ=           4363.7843 YYYX=         -21930.2745 YYYZ=           7291.3287 ZZZX=           8637.7291
 ZZZY=          11730.0610 XXYY=         -28116.6233 XXZZ=         -14199.0564 YYZZ=         -18281.8354
 XXYZ=            894.0762 YYXZ=            824.1209 ZZXY=          -8639.8666
 N-N= 9.246087775914D+03 E-N=-2.543420936153D+04  KE= 2.962348285076D+03
 Unable to Open any file for archive entry.
 1\1\GINC-SKL-142\SP\RB3LYP\6-31G(d)\C28H45N14O15(1+)\KENGMITH\11-Aug-2
 022\0\\# B3LYP/6-31G* empiricaldispersion=gd3bj guess=read geom=check 
 nosymm integral(ultrafinegrid)\\Candidate Structure: Conf:202 Charge c
 alc in gas phase\\1,1\N,0,-0.3787609929,8.6500966862,0.7011421763\H,0,
 0.4668815803,8.7591319134,0.0854817183\H,0,-0.9775097815,7.8949830054,
 0.2953897673\H,0,-0.0643770836,8.3687234884,1.6335890454\C,0,-1.133201
 7315,9.9525066793,0.748079184\H,0,-1.8733766027,9.8996613891,1.5446688
 287\H,0,-0.4087885052,10.7437703218,0.9550052778\C,0,-1.8922891521,10.
 1998465643,-0.5653229347\O,0,-3.1167397496,10.2791901557,-0.5599226964
 \N,0,-1.1267958735,10.3210054509,-1.6766026877\H,0,-0.1266038751,10.11
 26276267,-1.6253008623\C,0,-1.7542262561,10.3895850469,-2.9962294879\H
 ,0,-1.0364703671,10.7851461454,-3.7144181882\H,0,-2.6255325828,11.0453
 693893,-2.9428159205\C,0,-2.123795009,8.9580770814,-3.3831269314\O,0,-
 1.3549000174,8.2342549472,-4.0251927107\N,0,-3.2792205011,8.4969192053
 ,-2.839609753\H,0,-3.7119115627,9.0918402704,-2.1349359694\C,0,-3.4333
 378161,7.0581891003,-2.6809393518\H,0,-4.3904703064,6.8604167653,-2.19
 42160658\H,0,-3.4260891027,6.5707367817,-3.6583686408\C,0,-2.298429147
 ,6.5635408074,-1.7814695523\O,0,-2.1158987012,7.0857034284,-0.67414898
 16\N,0,-1.4813336622,5.6065779665,-2.2643410084\H,0,-1.6188389737,5.28
 06647264,-3.2113262097\C,0,-0.2753902859,5.2457566051,-1.5425817914\H,
 0,-0.5085317541,5.085755215,-0.489150501\H,0,0.1140452611,4.3059076781
 ,-1.9407141254\C,0,0.8520974387,6.2846839837,-1.6105066427\O,0,1.72005
 44375,6.2803484079,-0.7346179897\N,0,0.8655779564,7.1287257929,-2.6609
 032936\H,0,0.0434287775,7.2503732621,-3.2507359106\C,0,2.0046271737,7.
 9995816203,-2.9124711\H,0,2.8588788067,7.3958075736,-3.2360065623\H,0,
 1.7162685288,8.6737730076,-3.7243303203\C,0,2.3791656947,8.8366793888,
 -1.6907535189\O,0,1.5005679531,9.4359994798,-1.0169578384\N,0,3.670413
 0597,8.900332751,-1.4022319748\H,0,4.3555934795,8.3584957982,-1.940648
 6564\C,0,4.2159089741,9.4929202766,-0.1865471613\H,0,5.1047741032,10.0
 742669394,-0.4303723406\H,0,3.4602481964,10.1471655607,0.2530797943\C,
 0,4.6508756181,8.40240113,0.8165264582\O,0,5.6983528764,8.4935111774,1
 .4367367416\N,0,3.7631355089,7.3718014201,0.9369754297\H,0,3.020970591
 8,7.2908716999,0.2503162487\C,0,4.1130331747,6.110537848,1.5736006042\
 H,0,5.0389067919,6.2657961068,2.1348454176\H,0,3.3291913877,5.78363684
 09,2.2599189238\C,0,4.2920106225,5.0097662739,0.5213057341\O,0,3.76339
 20031,3.9063052737,0.6066521998\N,0,5.0919320727,5.363303932,-0.523435
 4101\H,0,5.4035197893,6.3203856993,-0.6537484159\C,0,5.2442340537,4.46
 72737015,-1.6450064362\H,0,5.3544002744,3.4484241203,-1.2670848067\H,0
 ,6.1441740672,4.7366132788,-2.1993916875\C,0,4.0721155669,4.5477890894
 ,-2.6227415866\O,0,4.006777491,5.398674162,-3.5242512082\N,0,3.1140066
 53,3.6058702094,-2.4827659966\H,0,3.1987397531,2.9411833926,-1.7238197
 557\C,0,2.2172090363,3.3458949962,-3.5968475463\H,0,1.532384139,2.5436
 363045,-3.3137705633\H,0,1.6433562258,4.2470329592,-3.8361834128\C,0,3
 .0577383693,2.8668268944,-4.7927077591\O,0,3.7618114361,1.8649766904,-
 4.6890697479\N,0,2.9968895841,3.6293620082,-5.911172461\H,0,2.63626081
 32,4.5690442306,-5.8134352276\C,0,3.8627746645,3.3596923978,-7.0560387
 411\H,0,3.8982559619,2.2756400185,-7.1951091188\H,0,3.4342044486,3.821
 6399896,-7.9454027938\C,0,5.2891388693,3.9155025858,-6.8924481336\O,0,
 5.7584796555,4.7315787697,-7.6694372902\N,0,5.9701182615,3.4412458842,
 -5.8014509305\H,0,5.5572814488,2.6663957007,-5.2894611663\C,0,7.370904
 8478,3.7708382598,-5.6114908366\H,0,7.8798415803,3.8097979703,-6.58064
 34411\H,0,7.849509916,2.9908318363,-5.0147832275\C,0,7.6533308734,5.11
 34112249,-4.9373434137\O,0,8.8098638465,5.4451305421,-4.6607447417\N,0
 ,6.5873120627,5.9076380455,-4.6906477296\H,0,5.6462698642,5.5329441107
 ,-4.729816053\C,0,6.7561548108,7.2562779631,-4.185403344\H,0,7.6305771
 604,7.6992119023,-4.6714600719\H,0,5.8693635655,7.8395631465,-4.433227
 9274\C,0,6.931678345,7.2810830401,-2.667581014\O,0,6.0372278467,7.7120
 39487,-1.9151849516\N,0,8.0888314631,6.7730446886,-2.2147697047\H,0,8.
 6923098509,6.3318023543,-2.9165255795\C,0,8.387033354,6.6188372177,-0.
 7954144505\H,0,8.1822303624,5.5992685169,-0.4541735212\H,0,7.735422864
 4,7.2955624918,-0.2334664947\C,0,9.8368396184,6.9306347123,-0.42541813
 22\O,0,10.3220483781,6.4709055173,0.5943887553\N,0,10.5157766547,7.735
 1972886,-1.2981772407\H,0,9.9741190804,8.2404712212,-1.9859393129\C,0,
 11.8021942831,8.2756504532,-0.9190045863\H,0,12.4066762796,8.474379865
 ,-1.8089774395\H,0,12.3250629775,7.5251407139,-0.322332208\C,0,11.7561
 609418,9.5540744729,-0.0895622998\O,0,12.7393603723,10.1011935732,0.34
 64235061\O,0,10.4964653477,10.0183952133,0.0891578481\H,0,10.582510433
 9,10.8152744915,0.6461984687\\Version=ES64L-G16RevC.01\HF=-2989.249017
 3\RMSD=5.671e-10\Dipole=-7.771052,1.3620798,-0.6602509\Quadrupole=-90.
 0290493,146.7969033,-56.767854,-4.5864628,-22.5706682,-48.4174848\PG=C
 01 [X(C28H45N14O15)]\\@
 The archive entry for this job was punched.


  DISAPPOINTMENT IS THE NURSE OF WISDOM.               
                              SIR BOYLE ROCHE                 
 Job cpu time:       0 days  0 hours  7 minutes 50.1 seconds.
 Elapsed time:       0 days  0 hours  1 minutes 58.4 seconds.
 File lengths (MBytes):  RWF=    704 Int=      0 D2E=      0 Chk=     96 Scr=     32
 Normal termination of Gaussian 16 at Thu Aug 11 11:45:17 2022.
