 Entering Gaussian System, Link 0=/opt/software/Gaussian/g16-AVX2-C.01/g16/g16
 Input=charge-conf-268.com
 Output=charge-conf-268.log
 Initial command:
 /opt/software/Gaussian/g16-AVX2-C.01/g16/l1.exe "/mnt/gs18/scratch/users/kengmith/Gau-25850.inp" -scrdir="/mnt/gs18/scratch/users/kengmith/"
 Entering Link 1 = /opt/software/Gaussian/g16-AVX2-C.01/g16/l1.exe PID=     25860.
  
 Copyright (c) 1988-2019, Gaussian, Inc.  All Rights Reserved.
  
 This is part of the Gaussian(R) 16 program.  It is based on
 the Gaussian(R) 09 system (copyright 2009, Gaussian, Inc.),
 the Gaussian(R) 03 system (copyright 2003, Gaussian, Inc.),
 the Gaussian(R) 98 system (copyright 1998, Gaussian, Inc.),
 the Gaussian(R) 94 system (copyright 1995, Gaussian, Inc.),
 the Gaussian 92(TM) system (copyright 1992, Gaussian, Inc.),
 the Gaussian 90(TM) system (copyright 1990, Gaussian, Inc.),
 the Gaussian 88(TM) system (copyright 1988, Gaussian, Inc.),
 the Gaussian 86(TM) system (copyright 1986, Carnegie Mellon
 University), and the Gaussian 82(TM) system (copyright 1983,
 Carnegie Mellon University). Gaussian is a federally registered
 trademark of Gaussian, Inc.
  
 This software contains proprietary and confidential information,
 including trade secrets, belonging to Gaussian, Inc.
  
 This software is provided under written license and may be
 used, copied, transmitted, or stored only in accord with that
 written license.
  
 The following legend is applicable only to US Government
 contracts under FAR:
  
                    RESTRICTED RIGHTS LEGEND
  
 Use, reproduction and disclosure by the US Government is
 subject to restrictions as set forth in subparagraphs (a)
 and (c) of the Commercial Computer Software - Restricted
 Rights clause in FAR 52.227-19.
  
 Gaussian, Inc.
 340 Quinnipiac St., Bldg. 40, Wallingford CT 06492
  
  
 ---------------------------------------------------------------
 Warning -- This program may not be used in any manner that
 competes with the business of Gaussian, Inc. or will provide
 assistance to any competitor of Gaussian, Inc.  The licensee
 of this program is prohibited from giving any competitor of
 Gaussian, Inc. access to this program.  By using this program,
 the user acknowledges that Gaussian, Inc. is engaged in the
 business of creating and licensing software in the field of
 computational chemistry and represents and warrants to the
 licensee that it is not a competitor of Gaussian, Inc. and that
 it will not use this program in any manner prohibited above.
 ---------------------------------------------------------------
  

 Cite this work as:
 Gaussian 16, Revision C.01,
 M. J. Frisch, G. W. Trucks, H. B. Schlegel, G. E. Scuseria, 
 M. A. Robb, J. R. Cheeseman, G. Scalmani, V. Barone, 
 G. A. Petersson, H. Nakatsuji, X. Li, M. Caricato, A. V. Marenich, 
 J. Bloino, B. G. Janesko, R. Gomperts, B. Mennucci, H. P. Hratchian, 
 J. V. Ortiz, A. F. Izmaylov, J. L. Sonnenberg, D. Williams-Young, 
 F. Ding, F. Lipparini, F. Egidi, J. Goings, B. Peng, A. Petrone, 
 T. Henderson, D. Ranasinghe, V. G. Zakrzewski, J. Gao, N. Rega, 
 G. Zheng, W. Liang, M. Hada, M. Ehara, K. Toyota, R. Fukuda, 
 J. Hasegawa, M. Ishida, T. Nakajima, Y. Honda, O. Kitao, H. Nakai, 
 T. Vreven, K. Throssell, J. A. Montgomery, Jr., J. E. Peralta, 
 F. Ogliaro, M. J. Bearpark, J. J. Heyd, E. N. Brothers, K. N. Kudin, 
 V. N. Staroverov, T. A. Keith, R. Kobayashi, J. Normand, 
 K. Raghavachari, A. P. Rendell, J. C. Burant, S. S. Iyengar, 
 J. Tomasi, M. Cossi, J. M. Millam, M. Klene, C. Adamo, R. Cammi, 
 J. W. Ochterski, R. L. Martin, K. Morokuma, O. Farkas, 
 J. B. Foresman, and D. J. Fox, Gaussian, Inc., Wallingford CT, 2019.
 
 ******************************************
 Gaussian 16:  ES64L-G16RevC.01  3-Jul-2019
                19-Jun-2022 
 ******************************************
 %mem=8gb
 %nproc=4
 Will use up to    4 processors via shared memory.
 %chk=conf-268.chk
 -------------------------------------------------------------------
 # B3LYP/6-31G* guess=read geom=check nosymm integral(ultrafinegrid)
 -------------------------------------------------------------------
 1/29=2,38=1,172=1/1;
 2/12=2,15=1,40=1/2;
 3/5=1,6=6,7=1,11=2,14=-4,25=1,30=1,74=-5,75=-5,116=-2/1,2,3;
 4/5=1/1;
 5/5=2,38=6/2;
 6/7=2,8=2,9=2,10=2,28=1/1;
 99/5=1,9=1/99;
 ------------------------------------------------------
 Candidate Structure: Conf:268 Charge calc in gas phase
 ------------------------------------------------------
 Structure from the checkpoint file:  "conf-268.chk"
 Charge =  1 Multiplicity = 1
 Redundant internal coordinates found in file.  (old form).
 N,0,-12.4303044944,-2.3361387217,-3.6310654413
 H,0,-13.1222816041,-2.7884533432,-4.234809849
 H,0,-11.9397735053,-3.0784479934,-3.0777651149
 H,0,-12.8917392186,-1.6247731469,-3.0374967402
 C,0,-11.3220342597,-1.6555569103,-4.388813514
 H,0,-11.7075010878,-1.3445676948,-5.363016978
 C,0,-10.197665852,-2.7076030897,-4.4664957438
 C,0,-10.8937334421,-0.4375748565,-3.5208898126
 H,0,-10.2684173978,0.2377700335,-4.1096458424
 H,0,-10.2921407461,-0.7860067026,-2.6782077554
 O,0,-10.2278293515,-3.6263550827,-3.6464904884
 O,0,-12.0587139018,0.1869902672,-2.9966042125
 H,0,-12.3108755359,0.9468637294,-3.5440987943
 N,0,-9.2545414046,-2.5258878261,-5.407524447
 H,0,-9.2760750557,-1.6405383003,-5.9022496298
 C,0,-7.9071732579,-3.0627562606,-5.191677752
 H,0,-8.0180754729,-4.1108711456,-4.9014081731
 C,0,-7.2760360661,-2.2718546749,-4.0070463178
 C,0,-7.0839980559,-2.9501974166,-6.4796731127
 H,0,-6.0736339272,-3.3404654287,-6.3313274544
 H,0,-6.9862068375,-1.9037719777,-6.7933526895
 H,0,-7.5555134265,-3.5170672819,-7.2876249195
 O,0,-7.8425510732,-1.2806303312,-3.5434594645
 N,0,-6.1083180587,-2.7731747822,-3.5609245687
 H,0,-5.5939890284,-3.4475368398,-4.1331678923
 C,0,-5.1830550019,-2.0369222208,-2.7022073805
 H,0,-5.4185632531,-0.9685310719,-2.759528018
 C,0,-3.7813641818,-2.3192070245,-3.3011539194
 C,0,-5.2613081791,-2.5019825947,-1.2222426334
 H,0,-4.4805431319,-1.9692707371,-0.6679208325
 O,0,-3.650003586,-3.1753646823,-4.1814285526
 C,0,-6.6159365311,-2.2137541395,-0.5757285812
 H,0,-6.8568233307,-1.1459819726,-0.6072673364
 H,0,-7.41950425,-2.7531166337,-1.0913050857
 H,0,-6.5942464003,-2.5413885954,0.4678568163
 O,0,-4.9046221343,-3.8723694857,-1.1145671242
 H,0,-5.5996214876,-4.3888771315,-1.5549337597
 N,0,-2.7861615012,-1.569683231,-2.8022864782
 H,0,-2.9404470765,-0.9756023104,-1.989536983
 C,0,-1.3632503901,-1.8348958071,-3.0138087306
 H,0,-1.2646947793,-2.858224571,-3.3905733541
 C,0,-0.7462995341,-1.6912691061,-1.6019381132
 C,0,-0.7202511779,-0.8453242371,-4.0320299047
 H,0,-0.7212011323,0.1451665269,-3.5548273987
 O,0,-1.2679956481,-0.9152684218,-0.7943599052
 C,0,0.7311621115,-1.2314395619,-4.359845799
 H,0,0.7745548217,-2.2223217359,-4.8312938865
 H,0,1.3835782345,-1.2494351833,-3.4830453711
 H,0,1.1565433792,-0.5147507959,-5.0706266936
 C,0,-1.5472706022,-0.7597913279,-5.323490524
 H,0,-1.6228576808,-1.7392490958,-5.8096259712
 H,0,-2.5624316048,-0.3993185429,-5.132134973
 H,0,-1.0716331933,-0.0665240508,-6.0263132197
 N,0,0.3302775911,-2.452883876,-1.3347692234
 H,0,0.7878904229,-2.9754972744,-2.0762099062
 C,0,1.1636330742,-2.3070392183,-0.139411731
 H,0,0.8535396504,-1.3882068048,0.3670162911
 C,0,2.6036064499,-2.1903254557,-0.6819548382
 C,0,1.0029578819,-3.5167451282,0.8277300107
 H,0,1.3160740605,-4.4079464668,0.2629002031
 O,0,2.9301512614,-2.8583937427,-1.669966146
 C,0,-0.4741613369,-3.6972345848,1.2345386575
 H,0,-1.0973458515,-3.6898196058,0.333487518
 H,0,-0.7893225055,-2.8299650264,1.8317873585
 C,0,1.9242370206,-3.369044535,2.0491459806
 H,0,1.6645143277,-2.4702026204,2.6255016101
 H,0,2.9789513164,-3.3004211703,1.7694754883
 H,0,1.8148854613,-4.2286896856,2.718020104
 C,0,-0.7605770299,-4.9899916015,2.0083195454
 H,0,-1.8355237994,-5.0971336354,2.1937199572
 H,0,-0.4332058999,-5.8708656695,1.4415704852
 H,0,-0.2566710585,-5.0145331625,2.9804182869
 N,0,3.4072065234,-1.3162351772,-0.053362052
 H,0,3.1267835008,-0.7918037259,0.7746556571
 C,0,4.8039717945,-1.1044198008,-0.3993296193
 H,0,4.9806138862,-1.6377487463,-1.3390321095
 C,0,5.6565313398,-1.7650633178,0.7146908502
 C,0,5.0625141895,0.4053843908,-0.5441239248
 H,0,6.0043250154,0.6047301775,-1.0680465433
 H,0,4.2686404721,0.8330763798,-1.1676217622
 O,0,5.2972017946,-2.788672798,1.2814298297
 C,0,5.0885874857,1.1230616448,0.839086045
 O,0,5.8770229845,2.078288599,0.961026852
 O,0,4.3528605344,0.5965495914,1.7467597156
 N,0,6.8276396146,-1.1294224164,1.0863486766
 H,0,7.008823126,-0.2189825614,0.6783986714
 C,0,7.186422847,-1.2333508153,2.500402436
 H,0,6.306272493,-1.6221480572,3.0193219004
 C,0,7.5484740306,0.15604539,3.0647592734
 C,0,8.3662238807,-2.1908736112,2.7629091403
 H,0,9.2841056278,-1.7183452972,2.3979013889
 H,0,8.1979322724,-3.1179565365,2.2092901106
 O,0,8.7249096743,0.5313074766,3.0808380449
 C,0,8.5059309721,-2.5304504747,4.2175108276
 C,0,8.6332077076,-3.7584887103,4.8120920994
 H,0,8.6725390466,-4.7455230626,4.3799010591
 N,0,8.4955494284,-1.6056199555,5.258570897
 H,0,8.3729531073,-0.5475504215,5.2492614053
 C,0,8.609308188,-2.2346606501,6.4218579687
 H,0,8.6180068244,-1.7577638702,7.3894364064
 N,0,8.7016502076,-3.5495502708,6.1790859954
 N,0,6.5277842769,0.8173268526,3.6561991242
 H,0,5.5951449347,0.6868725987,3.2274467301
 C,0,6.7874934006,2.1076358005,4.2791721706
 H,0,7.0375862532,2.8443878205,3.5063126703
 C,0,7.9808668542,1.9849207739,5.2440239109
 C,0,5.5561817034,2.5781993194,5.0885519664
 H,0,5.3043603378,1.7781499316,5.7981502311
 H,0,5.8671149008,3.4428559448,5.6911537199
 O,0,8.2478773202,0.9397818482,5.8819461335
 C,0,4.3025007314,2.9782284188,4.2807598958
 H,0,3.9932646005,2.1326848817,3.6535605758
 C,0,3.1613162877,3.2925998934,5.2611222115
 H,0,3.4120584241,4.1491346119,5.9017104272
 H,0,2.241603631,3.5423192839,4.7195330446
 H,0,2.9427045971,2.4395774833,5.9161196895
 C,0,4.57136851,4.1639339627,3.3423944554
 H,0,5.0053022844,5.0151775716,3.8862391663
 H,0,3.6336555773,4.5068045414,2.888437693
 H,0,5.2372433873,3.8745180761,2.5240556982
 N,0,8.6672336637,3.1139769351,5.430947588
 H,0,8.4294755246,3.9779958674,4.946835543
 C,0,9.8086589134,3.2669614552,6.3252316119
 H,0,9.6263336538,2.6994441704,7.2417896203
 C,0,9.9100509903,4.7843593033,6.644041236
 C,0,11.0768876011,2.7097008919,5.6084085857
 H,0,11.3134907362,3.3773197125,4.7691050289
 H,0,10.7662335546,1.7613133088,5.1599391577
 O,0,10.5059156817,5.0894683471,7.7401948888
 C,0,12.3425575406,2.4448253188,6.4620777042
 H,0,12.0708365061,2.2814706685,7.5135627746
 H,0,12.8055765244,1.5097416938,6.123873176
 C,0,13.4504246666,3.5112804144,6.3978232221
 H,0,14.3495425903,3.1330293146,6.9026151494
 H,0,13.7127093137,3.7102479774,5.3507870738
 N,0,13.0008210234,4.7479773328,7.0388796698
 H,0,12.1026152316,4.670186912,7.5688980678
 N,0,14.1943711776,6.2617105262,5.7143960337
 H,0,14.3654975911,7.2185417002,5.4423123018
 H,0,14.9939327792,5.6464689715,5.6876556562
 N,0,12.3324269605,6.9373523389,6.9730932166
 H,0,12.3811475497,7.8621330236,6.5711649018
 H,0,11.4165353,6.5809678978,7.3295523502
 C,0,13.1795708514,5.9832557558,6.5709498509
 O,0,9.4693096756,5.5739442062,5.7958931475
 H,0,8.7919494133,-4.2666764396,6.8858350782
 Recover connectivity data from disk.
                           ----------------------------
                           !    Current Parameters    !
                           ! (Angstroms and Degrees)  !
 --------------------------                            --------------------------
 ! Name  Definition              Value                                          !
 --------------------------------------------------------------------------------
 ! R1    R(1,2)                  1.0237                                         !
 ! R2    R(1,3)                  1.0478                                         !
 ! R3    R(1,4)                  1.035                                          !
 ! R4    R(1,5)                  1.5052                                         !
 ! R5    R(5,6)                  1.0929                                         !
 ! R6    R(5,7)                  1.5418                                         !
 ! R7    R(5,8)                  1.5557                                         !
 ! R8    R(7,11)                 1.2318                                         !
 ! R9    R(7,14)                 1.3446                                         !
 ! R10   R(8,9)                  1.0926                                         !
 ! R11   R(8,10)                 1.0924                                         !
 ! R12   R(8,12)                 1.422                                          !
 ! R13   R(12,13)                0.9699                                         !
 ! R14   R(14,15)                1.0144                                         !
 ! R15   R(14,16)                1.4664                                         !
 ! R16   R(16,17)                1.0932                                         !
 ! R17   R(16,18)                1.558                                          !
 ! R18   R(16,19)                1.5327                                         !
 ! R19   R(18,23)                1.2322                                         !
 ! R20   R(18,24)                1.3468                                         !
 ! R21   R(19,20)                1.0932                                         !
 ! R22   R(19,21)                1.0968                                         !
 ! R23   R(19,22)                1.0938                                         !
 ! R24   R(24,25)                1.0231                                         !
 ! R25   R(24,26)                1.4614                                         !
 ! R26   R(26,27)                1.0955                                         !
 ! R27   R(26,28)                1.5502                                         !
 ! R28   R(26,29)                1.5533                                         !
 ! R29   R(28,31)                1.235                                          !
 ! R30   R(28,38)                1.342                                          !
 ! R31   R(29,30)                1.0957                                         !
 ! R32   R(29,32)                1.5284                                         !
 ! R33   R(29,36)                1.4201                                         !
 ! R34   R(32,33)                1.0951                                         !
 ! R35   R(32,34)                1.0966                                         !
 ! R36   R(32,35)                1.094                                          !
 ! R37   R(36,37)                0.9715                                         !
 ! R38   R(38,39)                1.0185                                         !
 ! R39   R(38,40)                1.4628                                         !
 ! R40   R(40,41)                1.0949                                         !
 ! R41   R(40,42)                1.5475                                         !
 ! R42   R(40,43)                1.5587                                         !
 ! R43   R(42,45)                1.2355                                         !
 ! R44   R(42,54)                1.3455                                         !
 ! R45   R(43,44)                1.0995                                         !
 ! R46   R(43,46)                1.5373                                         !
 ! R47   R(43,50)                1.536                                          !
 ! R48   R(46,47)                1.0982                                         !
 ! R49   R(46,48)                1.093                                          !
 ! R50   R(46,49)                1.0954                                         !
 ! R51   R(50,51)                1.0961                                         !
 ! R52   R(50,52)                1.0941                                         !
 ! R53   R(50,53)                1.0958                                         !
 ! R54   R(54,55)                1.016                                          !
 ! R55   R(54,56)                1.4645                                         !
 ! R56   R(56,57)                1.094                                          !
 ! R57   R(56,58)                1.5432                                         !
 ! R58   R(56,59)                1.5571                                         !
 ! R59   R(58,61)                1.2366                                         !
 ! R60   R(58,73)                1.3435                                         !
 ! R61   R(59,60)                1.1006                                         !
 ! R62   R(59,62)                1.5427                                         !
 ! R63   R(59,65)                1.537                                          !
 ! R64   R(62,63)                1.0956                                         !
 ! R65   R(62,64)                1.0992                                         !
 ! R66   R(62,69)                1.5336                                         !
 ! R67   R(65,66)                1.0989                                         !
 ! R68   R(65,67)                1.0933                                         !
 ! R69   R(65,68)                1.0947                                         !
 ! R70   R(69,70)                1.0961                                         !
 ! R71   R(69,71)                1.0974                                         !
 ! R72   R(69,72)                1.0952                                         !
 ! R73   R(73,74)                1.0195                                         !
 ! R74   R(73,75)                1.4545                                         !
 ! R75   R(75,76)                1.0948                                         !
 ! R76   R(75,77)                1.5506                                         !
 ! R77   R(75,78)                1.5386                                         !
 ! R78   R(77,81)                1.224                                          !
 ! R79   R(77,85)                1.3834                                         !
 ! R80   R(78,79)                1.096                                          !
 ! R81   R(78,80)                1.0963                                         !
 ! R82   R(78,82)                1.5585                                         !
 ! R83   R(82,83)                1.2446                                         !
 ! R84   R(82,84)                1.2816                                         !
 ! R85   R(85,86)                1.014                                          !
 ! R86   R(85,87)                1.4626                                         !
 ! R87   R(87,88)                1.0932                                         !
 ! R88   R(87,89)                1.5427                                         !
 ! R89   R(87,90)                1.542                                          !
 ! R90   R(89,93)                1.2349                                         !
 ! R91   R(89,102)               1.3524                                         !
 ! R92   R(90,91)                1.095                                          !
 ! R93   R(90,92)                1.0928                                         !
 ! R94   R(90,94)                1.5002                                         !
 ! R95   R(94,95)                1.3703                                         !
 ! R96   R(94,97)                1.3926                                         !
 ! R97   R(95,96)                1.0782                                         !
 ! R98   R(95,101)               1.3846                                         !
 ! R99   R(97,98)                1.0652                                         !
 ! R100  R(97,99)                1.3274                                         !
 ! R101  R(99,100)               1.0788                                         !
 ! R102  R(99,101)               1.3403                                         !
 ! R103  R(101,146)              1.0109                                         !
 ! R104  R(102,103)              1.0347                                         !
 ! R105  R(102,104)              1.4562                                         !
 ! R106  R(104,105)              1.0967                                         !
 ! R107  R(104,106)              1.5395                                         !
 ! R108  R(104,107)              1.5468                                         !
 ! R109  R(106,110)              1.2532                                         !
 ! R110  R(106,121)              1.3345                                         !
 ! R111  R(107,108)              1.0986                                         !
 ! R112  R(107,109)              1.0988                                         !
 ! R113  R(107,111)              1.5441                                         !
 ! R114  R(111,112)              1.0972                                         !
 ! R115  R(111,113)              1.537                                          !
 ! R116  R(111,117)              1.5358                                         !
 ! R117  R(113,114)              1.0986                                         !
 ! R118  R(113,115)              1.0962                                         !
 ! R119  R(113,116)              1.0975                                         !
 ! R120  R(117,118)              1.0994                                         !
 ! R121  R(117,119)              1.0968                                         !
 ! R122  R(117,120)              1.094                                          !
 ! R123  R(121,122)              1.0185                                         !
 ! R124  R(121,123)              1.4581                                         !
 ! R125  R(123,124)              1.0933                                         !
 ! R126  R(123,125)              1.5538                                         !
 ! R127  R(123,126)              1.5597                                         !
 ! R128  R(125,129)              1.2844                                         !
 ! R129  R(125,145)              1.2398                                         !
 ! R130  R(126,127)              1.0982                                         !
 ! R131  R(126,128)              1.0941                                         !
 ! R132  R(126,130)              1.5495                                         !
 ! R133  R(130,131)              1.0982                                         !
 ! R134  R(130,132)              1.0969                                         !
 ! R135  R(130,133)              1.5391                                         !
 ! R136  R(133,134)              1.0983                                         !
 ! R137  R(133,135)              1.0976                                         !
 ! R138  R(133,136)              1.4637                                         !
 ! R139  R(136,137)              1.0458                                         !
 ! R140  R(136,144)              1.333                                          !
 ! R141  R(138,139)              1.0094                                         !
 ! R142  R(138,140)              1.0092                                         !
 ! R143  R(138,144)              1.3568                                         !
 ! R144  R(141,142)              1.0095                                         !
 ! R145  R(141,143)              1.0454                                         !
 ! R146  R(141,144)              1.3378                                         !
 ! A1    A(2,1,3)              108.3536                                         !
 ! A2    A(2,1,4)              109.9101                                         !
 ! A3    A(2,1,5)              113.615                                          !
 ! A4    A(3,1,4)              113.1292                                         !
 ! A5    A(3,1,5)              103.9735                                         !
 ! A6    A(4,1,5)              107.83                                           !
 ! A7    A(1,5,6)              108.5253                                         !
 ! A8    A(1,5,7)              104.7019                                         !
 ! A9    A(1,5,8)              106.0126                                         !
 ! A10   A(6,5,7)              113.984                                          !
 ! A11   A(6,5,8)              111.8166                                         !
 ! A12   A(7,5,8)              111.1964                                         !
 ! A13   A(5,7,11)             117.2282                                         !
 ! A14   A(5,7,14)             117.0365                                         !
 ! A15   A(11,7,14)            125.7208                                         !
 ! A16   A(5,8,9)              109.9297                                         !
 ! A17   A(5,8,10)             109.4053                                         !
 ! A18   A(5,8,12)             108.9056                                         !
 ! A19   A(9,8,10)             107.3159                                         !
 ! A20   A(9,8,12)             113.3325                                         !
 ! A21   A(10,8,12)            107.8684                                         !
 ! A22   A(8,12,13)            110.4241                                         !
 ! A23   A(7,14,15)            116.3825                                         !
 ! A24   A(7,14,16)            119.4713                                         !
 ! A25   A(15,14,16)           114.2569                                         !
 ! A26   A(14,16,17)           107.271                                          !
 ! A27   A(14,16,18)           107.3553                                         !
 ! A28   A(14,16,19)           110.0539                                         !
 ! A29   A(17,16,18)           109.0211                                         !
 ! A30   A(17,16,19)           110.3662                                         !
 ! A31   A(18,16,19)           112.5892                                         !
 ! A32   A(16,18,23)           120.5432                                         !
 ! A33   A(16,18,24)           114.4654                                         !
 ! A34   A(23,18,24)           124.989                                          !
 ! A35   A(16,19,20)           110.8618                                         !
 ! A36   A(16,19,21)           110.9948                                         !
 ! A37   A(16,19,22)           110.557                                          !
 ! A38   A(20,19,21)           107.2773                                         !
 ! A39   A(20,19,22)           108.2775                                         !
 ! A40   A(21,19,22)           108.7614                                         !
 ! A41   A(18,24,25)           119.7315                                         !
 ! A42   A(18,24,26)           123.7842                                         !
 ! A43   A(25,24,26)           110.0261                                         !
 ! A44   A(24,26,27)           108.9337                                         !
 ! A45   A(24,26,28)           104.6975                                         !
 ! A46   A(24,26,29)           112.1564                                         !
 ! A47   A(27,26,28)           110.5938                                         !
 ! A48   A(27,26,29)           109.3299                                         !
 ! A49   A(28,26,29)           111.0485                                         !
 ! A50   A(26,28,31)           119.8554                                         !
 ! A51   A(26,28,38)           115.1628                                         !
 ! A52   A(31,28,38)           124.9783                                         !
 ! A53   A(26,29,30)           107.4906                                         !
 ! A54   A(26,29,32)           113.0302                                         !
 ! A55   A(26,29,36)           110.3959                                         !
 ! A56   A(30,29,32)           109.0174                                         !
 ! A57   A(30,29,36)           104.5848                                         !
 ! A58   A(32,29,36)           111.8702                                         !
 ! A59   A(29,32,33)           111.5098                                         !
 ! A60   A(29,32,34)           110.9678                                         !
 ! A61   A(29,32,35)           109.2352                                         !
 ! A62   A(33,32,34)           107.7502                                         !
 ! A63   A(33,32,35)           108.8958                                         !
 ! A64   A(34,32,35)           108.4046                                         !
 ! A65   A(29,36,37)           107.3977                                         !
 ! A66   A(28,38,39)           120.6685                                         !
 ! A67   A(28,38,40)           124.4947                                         !
 ! A68   A(39,38,40)           111.6235                                         !
 ! A69   A(38,40,41)           107.8644                                         !
 ! A70   A(38,40,42)           103.8309                                         !
 ! A71   A(38,40,43)           112.3732                                         !
 ! A72   A(41,40,42)           111.3958                                         !
 ! A73   A(41,40,43)           109.3565                                         !
 ! A74   A(42,40,43)           111.8776                                         !
 ! A75   A(40,42,45)           119.0983                                         !
 ! A76   A(40,42,54)           116.5911                                         !
 ! A77   A(45,42,54)           124.303                                          !
 ! A78   A(40,43,44)           106.7421                                         !
 ! A79   A(40,43,46)           111.6746                                         !
 ! A80   A(40,43,50)           111.2542                                         !
 ! A81   A(44,43,46)           108.6419                                         !
 ! A82   A(44,43,50)           108.3194                                         !
 ! A83   A(46,43,50)           110.0633                                         !
 ! A84   A(43,46,47)           110.8232                                         !
 ! A85   A(43,46,48)           113.3674                                         !
 ! A86   A(43,46,49)           109.9196                                         !
 ! A87   A(47,46,48)           107.8141                                         !
 ! A88   A(47,46,49)           107.2446                                         !
 ! A89   A(48,46,49)           107.4276                                         !
 ! A90   A(43,50,51)           111.1182                                         !
 ! A91   A(43,50,52)           111.7695                                         !
 ! A92   A(43,50,53)           109.9255                                         !
 ! A93   A(51,50,52)           107.9384                                         !
 ! A94   A(51,50,53)           108.108                                          !
 ! A95   A(52,50,53)           107.8461                                         !
 ! A96   A(42,54,55)           120.4395                                         !
 ! A97   A(42,54,56)           124.1257                                         !
 ! A98   A(55,54,56)           112.991                                          !
 ! A99   A(54,56,57)           107.4691                                         !
 ! A100  A(54,56,58)           104.5694                                         !
 ! A101  A(54,56,59)           111.7707                                         !
 ! A102  A(57,56,58)           111.3279                                         !
 ! A103  A(57,56,59)           109.6165                                         !
 ! A104  A(58,56,59)           111.9259                                         !
 ! A105  A(56,58,61)           119.1073                                         !
 ! A106  A(56,58,73)           116.2857                                         !
 ! A107  A(61,58,73)           124.5679                                         !
 ! A108  A(56,59,60)           106.3181                                         !
 ! A109  A(56,59,62)           110.7004                                         !
 ! A110  A(56,59,65)           110.9205                                         !
 ! A111  A(60,59,62)           108.2398                                         !
 ! A112  A(60,59,65)           108.3676                                         !
 ! A113  A(62,59,65)           112.0615                                         !
 ! A114  A(59,62,63)           109.0846                                         !
 ! A115  A(59,62,64)           108.9962                                         !
 ! A116  A(59,62,69)           114.2353                                         !
 ! A117  A(63,62,64)           106.1675                                         !
 ! A118  A(63,62,69)           108.3265                                         !
 ! A119  A(64,62,69)           109.7186                                         !
 ! A120  A(59,65,66)           110.7155                                         !
 ! A121  A(59,65,67)           112.3947                                         !
 ! A122  A(59,65,68)           110.5006                                         !
 ! A123  A(66,65,67)           108.1092                                         !
 ! A124  A(66,65,68)           107.3524                                         !
 ! A125  A(67,65,68)           107.575                                          !
 ! A126  A(62,69,70)           110.5425                                         !
 ! A127  A(62,69,71)           111.1209                                         !
 ! A128  A(62,69,72)           112.3826                                         !
 ! A129  A(70,69,71)           107.5451                                         !
 ! A130  A(70,69,72)           107.3919                                         !
 ! A131  A(71,69,72)           107.6467                                         !
 ! A132  A(58,73,74)           123.3797                                         !
 ! A133  A(58,73,75)           123.9086                                         !
 ! A134  A(74,73,75)           112.4849                                         !
 ! A135  A(73,75,76)           106.7476                                         !
 ! A136  A(73,75,77)           107.1618                                         !
 ! A137  A(73,75,78)           109.066                                          !
 ! A138  A(76,75,77)           108.6864                                         !
 ! A139  A(76,75,78)           111.7233                                         !
 ! A140  A(77,75,78)           113.1601                                         !
 ! A141  A(75,77,81)           121.841                                          !
 ! A142  A(75,77,85)           117.5627                                         !
 ! A143  A(81,77,85)           120.5581                                         !
 ! A144  A(75,78,79)           111.5836                                         !
 ! A145  A(75,78,80)           108.34                                           !
 ! A146  A(75,78,82)           111.7867                                         !
 ! A147  A(79,78,80)           106.2262                                         !
 ! A148  A(79,78,82)           109.0337                                         !
 ! A149  A(80,78,82)           109.7074                                         !
 ! A150  A(78,82,83)           116.8068                                         !
 ! A151  A(78,82,84)           115.4548                                         !
 ! A152  A(83,82,84)           127.5618                                         !
 ! A153  A(77,85,86)           117.1134                                         !
 ! A154  A(77,85,87)           115.7712                                         !
 ! A155  A(86,85,87)           114.1391                                         !
 ! A156  A(85,87,88)           106.6607                                         !
 ! A157  A(85,87,89)           110.3198                                         !
 ! A158  A(85,87,90)           113.3542                                         !
 ! A159  A(88,87,89)           109.6091                                         !
 ! A160  A(88,87,90)           108.3216                                         !
 ! A161  A(89,87,90)           108.5067                                         !
 ! A162  A(87,89,93)           120.1322                                         !
 ! A163  A(87,89,102)          115.0394                                         !
 ! A164  A(93,89,102)          124.3818                                         !
 ! A165  A(87,90,91)           108.4602                                         !
 ! A166  A(87,90,92)           108.8274                                         !
 ! A167  A(87,90,94)           112.1399                                         !
 ! A168  A(91,90,92)           109.0444                                         !
 ! A169  A(91,90,94)           110.0487                                         !
 ! A170  A(92,90,94)           108.2704                                         !
 ! A171  A(90,94,95)           129.2122                                         !
 ! A172  A(90,94,97)           125.0178                                         !
 ! A173  A(95,94,97)           105.7523                                         !
 ! A174  A(94,95,96)           130.5292                                         !
 ! A175  A(94,95,101)          107.3223                                         !
 ! A176  A(96,95,101)          122.1467                                         !
 ! A177  A(94,97,98)           130.8444                                         !
 ! A178  A(94,97,99)           109.8654                                         !
 ! A179  A(98,97,99)           119.2264                                         !
 ! A180  A(97,99,100)          125.258                                          !
 ! A181  A(97,99,101)          108.1848                                         !
 ! A182  A(100,99,101)         126.5561                                         !
 ! A183  A(95,101,99)          108.8731                                         !
 ! A184  A(95,101,146)         125.9884                                         !
 ! A185  A(99,101,146)         125.1322                                         !
 ! A186  A(89,102,103)         115.9389                                         !
 ! A187  A(89,102,104)         119.0632                                         !
 ! A188  A(103,102,104)        116.727                                          !
 ! A189  A(102,104,105)        109.5401                                         !
 ! A190  A(102,104,106)        109.6175                                         !
 ! A191  A(102,104,107)        110.5758                                         !
 ! A192  A(105,104,106)        108.5692                                         !
 ! A193  A(105,104,107)        110.2378                                         !
 ! A194  A(106,104,107)        108.2619                                         !
 ! A195  A(104,106,110)        123.4115                                         !
 ! A196  A(104,106,121)        114.7739                                         !
 ! A197  A(110,106,121)        121.6486                                         !
 ! A198  A(104,107,108)        107.3908                                         !
 ! A199  A(104,107,109)        107.5228                                         !
 ! A200  A(104,107,111)        116.8322                                         !
 ! A201  A(108,107,109)        106.4797                                         !
 ! A202  A(108,107,111)        109.9042                                         !
 ! A203  A(109,107,111)        108.2268                                         !
 ! A204  A(107,111,112)        109.1606                                         !
 ! A205  A(107,111,113)        108.7923                                         !
 ! A206  A(107,111,117)        112.1795                                         !
 ! A207  A(112,111,113)        108.2384                                         !
 ! A208  A(112,111,117)        107.1591                                         !
 ! A209  A(113,111,117)        111.2106                                         !
 ! A210  A(111,113,114)        111.2198                                         !
 ! A211  A(111,113,115)        110.7582                                         !
 ! A212  A(111,113,116)        111.6914                                         !
 ! A213  A(114,113,115)        107.5768                                         !
 ! A214  A(114,113,116)        107.6657                                         !
 ! A215  A(115,113,116)        107.7471                                         !
 ! A216  A(111,117,118)        111.3849                                         !
 ! A217  A(111,117,119)        110.155                                          !
 ! A218  A(111,117,120)        111.0603                                         !
 ! A219  A(118,117,119)        107.4665                                         !
 ! A220  A(118,117,120)        109.5497                                         !
 ! A221  A(119,117,120)        107.0664                                         !
 ! A222  A(106,121,122)        122.0782                                         !
 ! A223  A(106,121,123)        125.2622                                         !
 ! A224  A(122,121,123)        112.6591                                         !
 ! A225  A(121,123,124)        109.2174                                         !
 ! A226  A(121,123,125)        106.2234                                         !
 ! A227  A(121,123,126)        108.4913                                         !
 ! A228  A(124,123,125)        110.2291                                         !
 ! A229  A(124,123,126)        109.5975                                         !
 ! A230  A(125,123,126)        112.963                                          !
 ! A231  A(123,125,129)        115.9351                                         !
 ! A232  A(123,125,145)        117.2825                                         !
 ! A233  A(129,125,145)        126.6895                                         !
 ! A234  A(123,126,127)        108.0115                                         !
 ! A235  A(123,126,128)        105.4981                                         !
 ! A236  A(123,126,130)        118.1676                                         !
 ! A237  A(127,126,128)        105.9533                                         !
 ! A238  A(127,126,130)        110.4253                                         !
 ! A239  A(128,126,130)        108.034                                          !
 ! A240  A(126,130,131)        110.5373                                         !
 ! A241  A(126,130,132)        108.7032                                         !
 ! A242  A(126,130,133)        116.521                                          !
 ! A243  A(131,130,132)        105.8335                                         !
 ! A244  A(131,130,133)        108.7311                                         !
 ! A245  A(132,130,133)        105.901                                          !
 ! A246  A(130,133,134)        109.3565                                         !
 ! A247  A(130,133,135)        109.7215                                         !
 ! A248  A(130,133,136)        110.2458                                         !
 ! A249  A(134,133,135)        107.773                                          !
 ! A250  A(134,133,136)        109.9462                                         !
 ! A251  A(135,133,136)        109.7572                                         !
 ! A252  A(133,136,137)        115.0189                                         !
 ! A253  A(133,136,144)        126.0178                                         !
 ! A254  A(137,136,144)        111.2235                                         !
 ! A255  A(139,138,140)        115.876                                          !
 ! A256  A(139,138,144)        119.4394                                         !
 ! A257  A(140,138,144)        118.957                                          !
 ! A258  A(142,141,143)        119.3611                                         !
 ! A259  A(142,141,144)        120.204                                          !
 ! A260  A(143,141,144)        114.4657                                         !
 ! A261  A(136,144,138)        120.8025                                         !
 ! A262  A(136,144,141)        118.0653                                         !
 ! A263  A(138,144,141)        121.132                                          !
 ! D1    D(2,1,5,6)             28.1945                                         !
 ! D2    D(2,1,5,7)            -93.8871                                         !
 ! D3    D(2,1,5,8)            148.4549                                         !
 ! D4    D(3,1,5,6)            145.7709                                         !
 ! D5    D(3,1,5,7)             23.6893                                         !
 ! D6    D(3,1,5,8)            -93.9687                                         !
 ! D7    D(4,1,5,6)            -93.8816                                         !
 ! D8    D(4,1,5,7)            144.0368                                         !
 ! D9    D(4,1,5,8)             26.3788                                         !
 ! D10   D(1,5,7,11)           -20.3312                                         !
 ! D11   D(1,5,7,14)           160.9743                                         !
 ! D12   D(6,5,7,11)          -138.7721                                         !
 ! D13   D(6,5,7,14)            42.5335                                         !
 ! D14   D(8,5,7,11)            93.7249                                         !
 ! D15   D(8,5,7,14)           -84.9695                                         !
 ! D16   D(1,5,8,9)           -166.3544                                         !
 ! D17   D(1,5,8,10)            76.0393                                         !
 ! D18   D(1,5,8,12)           -41.639                                          !
 ! D19   D(6,5,8,9)            -48.2597                                         !
 ! D20   D(6,5,8,10)          -165.866                                          !
 ! D21   D(6,5,8,12)            76.4557                                         !
 ! D22   D(7,5,8,9)             80.4116                                         !
 ! D23   D(7,5,8,10)           -37.1947                                         !
 ! D24   D(7,5,8,12)          -154.873                                          !
 ! D25   D(5,7,14,15)            8.855                                          !
 ! D26   D(5,7,14,16)          152.6649                                         !
 ! D27   D(11,7,14,15)        -169.7151                                         !
 ! D28   D(11,7,14,16)         -25.9052                                         !
 ! D29   D(5,8,12,13)          -97.3749                                         !
 ! D30   D(9,8,12,13)           25.317                                          !
 ! D31   D(10,8,12,13)         143.9785                                         !
 ! D32   D(7,14,16,17)          50.159                                          !
 ! D33   D(7,14,16,18)         -66.8899                                         !
 ! D34   D(7,14,16,19)         170.2562                                         !
 ! D35   D(15,14,16,17)       -165.3051                                         !
 ! D36   D(15,14,16,18)         77.646                                          !
 ! D37   D(15,14,16,19)        -45.2079                                         !
 ! D38   D(14,16,18,23)         -8.4236                                         !
 ! D39   D(14,16,18,24)        171.0373                                         !
 ! D40   D(17,16,18,23)       -124.3207                                         !
 ! D41   D(17,16,18,24)         55.1402                                         !
 ! D42   D(19,16,18,23)        112.8505                                         !
 ! D43   D(19,16,18,24)        -67.6887                                         !
 ! D44   D(14,16,19,20)        179.587                                          !
 ! D45   D(14,16,19,21)         60.4642                                         !
 ! D46   D(14,16,19,22)        -60.3226                                         !
 ! D47   D(17,16,19,20)        -62.2073                                         !
 ! D48   D(17,16,19,21)        178.6699                                         !
 ! D49   D(17,16,19,22)         57.8831                                         !
 ! D50   D(18,16,19,20)         59.8643                                         !
 ! D51   D(18,16,19,21)        -59.2585                                         !
 ! D52   D(18,16,19,22)        179.9548                                         !
 ! D53   D(16,18,24,25)         15.5018                                         !
 ! D54   D(16,18,24,26)        164.4373                                         !
 ! D55   D(23,18,24,25)       -165.0649                                         !
 ! D56   D(23,18,24,26)        -16.1295                                         !
 ! D57   D(18,24,26,27)        -18.1282                                         !
 ! D58   D(18,24,26,28)       -136.4496                                         !
 ! D59   D(18,24,26,29)        103.0382                                         !
 ! D60   D(25,24,26,27)        133.3879                                         !
 ! D61   D(25,24,26,28)         15.0665                                         !
 ! D62   D(25,24,26,29)       -105.4457                                         !
 ! D63   D(24,26,28,31)         -9.6323                                         !
 ! D64   D(24,26,28,38)        169.7247                                         !
 ! D65   D(27,26,28,31)       -126.8201                                         !
 ! D66   D(27,26,28,38)         52.5369                                         !
 ! D67   D(29,26,28,31)        111.6135                                         !
 ! D68   D(29,26,28,38)        -69.0295                                         !
 ! D69   D(24,26,29,30)        175.021                                          !
 ! D70   D(24,26,29,32)        -64.6347                                         !
 ! D71   D(24,26,29,36)         61.5149                                         !
 ! D72   D(27,26,29,30)        -64.0409                                         !
 ! D73   D(27,26,29,32)         56.3034                                         !
 ! D74   D(27,26,29,36)       -177.5469                                         !
 ! D75   D(28,26,29,30)         58.262                                          !
 ! D76   D(28,26,29,32)        178.6063                                         !
 ! D77   D(28,26,29,36)        -55.244                                          !
 ! D78   D(26,28,38,39)          9.2492                                         !
 ! D79   D(26,28,38,40)        167.2689                                         !
 ! D80   D(31,28,38,39)       -171.4314                                         !
 ! D81   D(31,28,38,40)        -13.4117                                         !
 ! D82   D(26,29,32,33)        -58.1556                                         !
 ! D83   D(26,29,32,34)         61.9739                                         !
 ! D84   D(26,29,32,35)       -178.5658                                         !
 ! D85   D(30,29,32,33)         61.3132                                         !
 ! D86   D(30,29,32,34)       -178.5573                                         !
 ! D87   D(30,29,32,35)        -59.097                                          !
 ! D88   D(36,29,32,33)        176.4862                                         !
 ! D89   D(36,29,32,34)        -63.3842                                         !
 ! D90   D(36,29,32,35)         56.0761                                         !
 ! D91   D(26,29,36,37)        -67.5972                                         !
 ! D92   D(30,29,36,37)        177.0574                                         !
 ! D93   D(32,29,36,37)         59.2009                                         !
 ! D94   D(28,38,40,41)        -15.2371                                         !
 ! D95   D(28,38,40,42)       -133.5368                                         !
 ! D96   D(28,38,40,43)        105.3768                                         !
 ! D97   D(39,38,40,41)        144.5012                                         !
 ! D98   D(39,38,40,42)         26.2015                                         !
 ! D99   D(39,38,40,43)        -94.8849                                         !
 ! D100  D(38,40,42,45)        -29.919                                          !
 ! D101  D(38,40,42,54)        149.1195                                         !
 ! D102  D(41,40,42,45)       -145.7534                                         !
 ! D103  D(41,40,42,54)         33.2851                                         !
 ! D104  D(43,40,42,45)         91.4994                                         !
 ! D105  D(43,40,42,54)        -89.4621                                         !
 ! D106  D(38,40,43,44)         67.6601                                         !
 ! D107  D(38,40,43,46)       -173.7358                                         !
 ! D108  D(38,40,43,50)        -50.3215                                         !
 ! D109  D(41,40,43,44)       -172.59                                           !
 ! D110  D(41,40,43,46)        -53.9859                                         !
 ! D111  D(41,40,43,50)         69.4284                                         !
 ! D112  D(42,40,43,44)        -48.6906                                         !
 ! D113  D(42,40,43,46)         69.9134                                         !
 ! D114  D(42,40,43,50)       -166.6722                                         !
 ! D115  D(40,42,54,55)          9.331                                          !
 ! D116  D(40,42,54,56)        170.328                                          !
 ! D117  D(45,42,54,55)       -171.6861                                         !
 ! D118  D(45,42,54,56)        -10.6891                                         !
 ! D119  D(40,43,46,47)         62.0286                                         !
 ! D120  D(40,43,46,48)        -59.3625                                         !
 ! D121  D(40,43,46,49)       -179.6006                                         !
 ! D122  D(44,43,46,47)        179.4945                                         !
 ! D123  D(44,43,46,48)         58.1033                                         !
 ! D124  D(44,43,46,49)        -62.1347                                         !
 ! D125  D(50,43,46,47)        -62.0578                                         !
 ! D126  D(50,43,46,48)        176.5511                                         !
 ! D127  D(50,43,46,49)         56.313                                          !
 ! D128  D(40,43,50,51)        -59.8509                                         !
 ! D129  D(40,43,50,52)         60.7975                                         !
 ! D130  D(40,43,50,53)       -179.4818                                         !
 ! D131  D(44,43,50,51)       -176.8754                                         !
 ! D132  D(44,43,50,52)        -56.2271                                         !
 ! D133  D(44,43,50,53)         63.4936                                         !
 ! D134  D(46,43,50,51)         64.4787                                         !
 ! D135  D(46,43,50,52)       -174.873                                          !
 ! D136  D(46,43,50,53)        -55.1522                                         !
 ! D137  D(42,54,56,57)         -9.5539                                         !
 ! D138  D(42,54,56,58)       -127.9624                                         !
 ! D139  D(42,54,56,59)        110.7558                                         !
 ! D140  D(55,54,56,57)        152.6903                                         !
 ! D141  D(55,54,56,58)         34.2818                                         !
 ! D142  D(55,54,56,59)        -86.9999                                         !
 ! D143  D(54,56,58,61)        -36.691                                          !
 ! D144  D(54,56,58,73)        141.1369                                         !
 ! D145  D(57,56,58,61)       -152.4413                                         !
 ! D146  D(57,56,58,73)         25.3866                                         !
 ! D147  D(59,56,58,61)         84.4882                                         !
 ! D148  D(59,56,58,73)        -97.6839                                         !
 ! D149  D(54,56,59,60)         60.2798                                         !
 ! D150  D(54,56,59,62)        -57.0602                                         !
 ! D151  D(54,56,59,65)        177.8883                                         !
 ! D152  D(57,56,59,60)        179.3255                                         !
 ! D153  D(57,56,59,62)         61.9855                                         !
 ! D154  D(57,56,59,65)        -63.066                                          !
 ! D155  D(58,56,59,60)        -56.6406                                         !
 ! D156  D(58,56,59,62)       -173.9806                                         !
 ! D157  D(58,56,59,65)         60.9679                                         !
 ! D158  D(56,58,73,74)          3.9004                                         !
 ! D159  D(56,58,73,75)        178.0135                                         !
 ! D160  D(61,58,73,74)       -178.4044                                         !
 ! D161  D(61,58,73,75)         -4.2912                                         !
 ! D162  D(56,59,62,63)         49.5989                                         !
 ! D163  D(56,59,62,64)        -65.9141                                         !
 ! D164  D(56,59,62,69)        170.9729                                         !
 ! D165  D(60,59,62,63)        -66.5549                                         !
 ! D166  D(60,59,62,64)        177.9321                                         !
 ! D167  D(60,59,62,69)         54.8191                                         !
 ! D168  D(65,59,62,63)        174.0023                                         !
 ! D169  D(65,59,62,64)         58.4893                                         !
 ! D170  D(65,59,62,69)        -64.6236                                         !
 ! D171  D(56,59,65,66)         61.8927                                         !
 ! D172  D(56,59,65,67)        -59.1217                                         !
 ! D173  D(56,59,65,68)       -179.3028                                         !
 ! D174  D(60,59,65,66)        178.2439                                         !
 ! D175  D(60,59,65,67)         57.2295                                         !
 ! D176  D(60,59,65,68)        -62.9516                                         !
 ! D177  D(62,59,65,66)        -62.3882                                         !
 ! D178  D(62,59,65,67)        176.5973                                         !
 ! D179  D(62,59,65,68)         56.4162                                         !
 ! D180  D(59,62,69,70)       -175.3186                                         !
 ! D181  D(59,62,69,71)        -55.9869                                         !
 ! D182  D(59,62,69,72)         64.7125                                         !
 ! D183  D(63,62,69,70)        -53.527                                          !
 ! D184  D(63,62,69,71)         65.8046                                         !
 ! D185  D(63,62,69,72)       -173.4959                                         !
 ! D186  D(64,62,69,70)         61.9605                                         !
 ! D187  D(64,62,69,71)       -178.7078                                         !
 ! D188  D(64,62,69,72)        -58.0084                                         !
 ! D189  D(58,73,75,76)          9.9526                                         !
 ! D190  D(58,73,75,77)       -106.3493                                         !
 ! D191  D(58,73,75,78)        130.8135                                         !
 ! D192  D(74,73,75,76)       -175.3659                                         !
 ! D193  D(74,73,75,77)         68.3323                                         !
 ! D194  D(74,73,75,78)        -54.5049                                         !
 ! D195  D(73,75,77,81)         34.4261                                         !
 ! D196  D(73,75,77,85)       -143.3368                                         !
 ! D197  D(76,75,77,81)        -80.5862                                         !
 ! D198  D(76,75,77,85)        101.6509                                         !
 ! D199  D(78,75,77,81)        154.6879                                         !
 ! D200  D(78,75,77,85)        -23.075                                          !
 ! D201  D(73,75,78,79)       -164.098                                          !
 ! D202  D(73,75,78,80)        -47.5006                                         !
 ! D203  D(73,75,78,82)         73.5028                                         !
 ! D204  D(76,75,78,79)        -46.3303                                         !
 ! D205  D(76,75,78,80)         70.2671                                         !
 ! D206  D(76,75,78,82)       -168.7295                                         !
 ! D207  D(77,75,78,79)         76.7316                                         !
 ! D208  D(77,75,78,80)       -166.671                                          !
 ! D209  D(77,75,78,82)        -45.6676                                         !
 ! D210  D(75,77,85,86)          6.3501                                         !
 ! D211  D(75,77,85,87)        145.5849                                         !
 ! D212  D(81,77,85,86)       -171.4429                                         !
 ! D213  D(81,77,85,87)        -32.2081                                         !
 ! D214  D(75,78,82,83)        145.4967                                         !
 ! D215  D(75,78,82,84)        -30.0427                                         !
 ! D216  D(79,78,82,83)         21.651                                          !
 ! D217  D(79,78,82,84)       -153.8884                                         !
 ! D218  D(80,78,82,83)        -94.297                                          !
 ! D219  D(80,78,82,84)         90.1636                                         !
 ! D220  D(77,85,87,88)        -12.5487                                         !
 ! D221  D(77,85,87,89)       -131.5201                                         !
 ! D222  D(77,85,87,90)        106.5704                                         !
 ! D223  D(86,85,87,88)        127.8903                                         !
 ! D224  D(86,85,87,89)          8.9189                                         !
 ! D225  D(86,85,87,90)       -112.9906                                         !
 ! D226  D(85,87,89,93)        -93.5601                                         !
 ! D227  D(85,87,89,102)        93.7767                                         !
 ! D228  D(88,87,89,93)        149.2799                                         !
 ! D229  D(88,87,89,102)       -23.3833                                         !
 ! D230  D(90,87,89,93)         31.1709                                         !
 ! D231  D(90,87,89,102)      -141.4924                                         !
 ! D232  D(85,87,90,91)         71.7411                                         !
 ! D233  D(85,87,90,92)        -46.766                                          !
 ! D234  D(85,87,90,94)       -166.5227                                         !
 ! D235  D(88,87,90,91)       -170.0982                                         !
 ! D236  D(88,87,90,92)         71.3947                                         !
 ! D237  D(88,87,90,94)        -48.362                                          !
 ! D238  D(89,87,90,91)        -51.1748                                         !
 ! D239  D(89,87,90,92)       -169.6819                                         !
 ! D240  D(89,87,90,94)         70.5614                                         !
 ! D241  D(87,89,102,103)      -35.6825                                         !
 ! D242  D(87,89,102,104)      176.9134                                         !
 ! D243  D(93,89,102,103)      152.0082                                         !
 ! D244  D(93,89,102,104)        4.6041                                         !
 ! D245  D(87,90,94,95)        130.1933                                         !
 ! D246  D(87,90,94,97)        -48.0508                                         !
 ! D247  D(91,90,94,95)       -108.984                                          !
 ! D248  D(91,90,94,97)         72.772                                          !
 ! D249  D(92,90,94,95)         10.1118                                         !
 ! D250  D(92,90,94,97)       -168.1322                                         !
 ! D251  D(90,94,95,96)          0.7479                                         !
 ! D252  D(90,94,95,101)      -178.7568                                         !
 ! D253  D(97,94,95,96)        179.2538                                         !
 ! D254  D(97,94,95,101)        -0.2509                                         !
 ! D255  D(90,94,97,98)          1.5473                                         !
 ! D256  D(90,94,97,99)        178.5529                                         !
 ! D257  D(95,94,97,98)       -177.0392                                         !
 ! D258  D(95,94,97,99)         -0.0335                                         !
 ! D259  D(94,95,101,99)         0.4511                                         !
 ! D260  D(94,95,101,146)      179.5754                                         !
 ! D261  D(96,95,101,99)      -179.1043                                         !
 ! D262  D(96,95,101,146)        0.0201                                         !
 ! D263  D(94,97,99,100)      -179.3196                                         !
 ! D264  D(94,97,99,101)         0.3151                                         !
 ! D265  D(98,97,99,100)        -1.9149                                         !
 ! D266  D(98,97,99,101)       177.7197                                         !
 ! D267  D(97,99,101,95)        -0.4731                                         !
 ! D268  D(97,99,101,146)     -179.6067                                         !
 ! D269  D(100,99,101,95)      179.1555                                         !
 ! D270  D(100,99,101,146)       0.0218                                         !
 ! D271  D(89,102,104,105)      67.5704                                         !
 ! D272  D(89,102,104,106)     -51.4574                                         !
 ! D273  D(89,102,104,107)    -170.7414                                         !
 ! D274  D(103,102,104,105)    -79.5831                                         !
 ! D275  D(103,102,104,106)    161.3892                                         !
 ! D276  D(103,102,104,107)     42.1051                                         !
 ! D277  D(102,104,106,110)    -31.825                                          !
 ! D278  D(102,104,106,121)    152.7975                                         !
 ! D279  D(105,104,106,110)   -151.4497                                         !
 ! D280  D(105,104,106,121)     33.1729                                         !
 ! D281  D(107,104,106,110)     88.8725                                         !
 ! D282  D(107,104,106,121)    -86.5049                                         !
 ! D283  D(102,104,107,108)     54.8095                                         !
 ! D284  D(102,104,107,109)    169.0532                                         !
 ! D285  D(102,104,107,111)    -69.1243                                         !
 ! D286  D(105,104,107,108)    176.0855                                         !
 ! D287  D(105,104,107,109)    -69.6707                                         !
 ! D288  D(105,104,107,111)     52.1517                                         !
 ! D289  D(106,104,107,108)    -65.2904                                         !
 ! D290  D(106,104,107,109)     48.9534                                         !
 ! D291  D(106,104,107,111)    170.7758                                         !
 ! D292  D(104,106,121,122)     -1.7494                                         !
 ! D293  D(104,106,121,123)    177.9915                                         !
 ! D294  D(110,106,121,122)   -177.2169                                         !
 ! D295  D(110,106,121,123)      2.5239                                         !
 ! D296  D(104,107,111,112)     57.1411                                         !
 ! D297  D(104,107,111,113)    175.0598                                         !
 ! D298  D(104,107,111,117)    -61.475                                          !
 ! D299  D(108,107,111,112)    -65.5007                                         !
 ! D300  D(108,107,111,113)     52.418                                          !
 ! D301  D(108,107,111,117)    175.8832                                         !
 ! D302  D(109,107,111,112)    178.595                                          !
 ! D303  D(109,107,111,113)    -63.4863                                         !
 ! D304  D(109,107,111,117)     59.9789                                         !
 ! D305  D(107,111,113,114)     62.6847                                         !
 ! D306  D(107,111,113,115)   -177.7375                                         !
 ! D307  D(107,111,113,116)    -57.6325                                         !
 ! D308  D(112,111,113,114)   -178.8146                                         !
 ! D309  D(112,111,113,115)    -59.2369                                         !
 ! D310  D(112,111,113,116)     60.8682                                         !
 ! D311  D(117,111,113,114)    -61.3573                                         !
 ! D312  D(117,111,113,115)     58.2204                                         !
 ! D313  D(117,111,113,116)    178.3255                                         !
 ! D314  D(107,111,117,118)    -53.2166                                         !
 ! D315  D(107,111,117,119)   -172.3665                                         !
 ! D316  D(107,111,117,120)     69.187                                          !
 ! D317  D(112,111,117,118)   -173.0074                                         !
 ! D318  D(112,111,117,119)     67.8428                                         !
 ! D319  D(112,111,117,120)    -50.6037                                         !
 ! D320  D(113,111,117,118)     68.8816                                         !
 ! D321  D(113,111,117,119)    -50.2683                                         !
 ! D322  D(113,111,117,120)   -168.7147                                         !
 ! D323  D(106,121,123,124)    -39.1949                                         !
 ! D324  D(106,121,123,125)   -158.0627                                         !
 ! D325  D(106,121,123,126)     80.219                                          !
 ! D326  D(122,121,123,124)    140.5672                                         !
 ! D327  D(122,121,123,125)     21.6994                                         !
 ! D328  D(122,121,123,126)   -100.0189                                         !
 ! D329  D(121,123,125,129)    156.0838                                         !
 ! D330  D(121,123,125,145)    -27.1818                                         !
 ! D331  D(124,123,125,129)     37.883                                          !
 ! D332  D(124,123,125,145)   -145.3826                                         !
 ! D333  D(126,123,125,129)    -85.0982                                         !
 ! D334  D(126,123,125,145)     91.6362                                         !
 ! D335  D(121,123,126,127)     68.2395                                         !
 ! D336  D(121,123,126,128)    -44.72                                           !
 ! D337  D(121,123,126,130)   -165.5772                                         !
 ! D338  D(124,123,126,127)   -172.5853                                         !
 ! D339  D(124,123,126,128)     74.4552                                         !
 ! D340  D(124,123,126,130)    -46.402                                          !
 ! D341  D(125,123,126,127)    -49.2539                                         !
 ! D342  D(125,123,126,128)   -162.2134                                         !
 ! D343  D(125,123,126,130)     76.9295                                         !
 ! D344  D(123,126,130,131)     24.0888                                         !
 ! D345  D(123,126,130,132)    139.838                                          !
 ! D346  D(123,126,130,133)   -100.6757                                         !
 ! D347  D(127,126,130,131)    149.0965                                         !
 ! D348  D(127,126,130,132)    -95.1543                                         !
 ! D349  D(127,126,130,133)     24.332                                          !
 ! D350  D(128,126,130,131)    -95.4555                                         !
 ! D351  D(128,126,130,132)     20.2936                                         !
 ! D352  D(128,126,130,133)    139.7799                                         !
 ! D353  D(126,130,133,134)   -170.5705                                         !
 ! D354  D(126,130,133,135)    -52.5604                                         !
 ! D355  D(126,130,133,136)     68.4347                                         !
 ! D356  D(131,130,133,134)     63.7521                                         !
 ! D357  D(131,130,133,135)   -178.2377                                         !
 ! D358  D(131,130,133,136)    -57.2426                                         !
 ! D359  D(132,130,133,134)    -49.5864                                         !
 ! D360  D(132,130,133,135)     68.4238                                         !
 ! D361  D(132,130,133,136)   -170.5812                                         !
 ! D362  D(130,133,136,137)     10.0011                                         !
 ! D363  D(130,133,136,144)   -136.4295                                         !
 ! D364  D(134,133,136,137)   -110.6406                                         !
 ! D365  D(134,133,136,144)    102.9287                                         !
 ! D366  D(135,133,136,137)    130.9749                                         !
 ! D367  D(135,133,136,144)    -15.4558                                         !
 ! D368  D(133,136,144,138)    -24.1494                                         !
 ! D369  D(133,136,144,141)    156.0101                                         !
 ! D370  D(137,136,144,138)   -171.6345                                         !
 ! D371  D(137,136,144,141)      8.525                                          !
 ! D372  D(139,138,144,136)   -174.154                                          !
 ! D373  D(139,138,144,141)      5.6816                                         !
 ! D374  D(140,138,144,136)    -21.9                                            !
 ! D375  D(140,138,144,141)    157.9356                                         !
 ! D376  D(142,141,144,136)   -174.0177                                         !
 ! D377  D(142,141,144,138)      6.1424                                         !
 ! D378  D(143,141,144,136)    -21.3745                                         !
 ! D379  D(143,141,144,138)    158.7856                                         !
 --------------------------------------------------------------------------------
 Symmetry turned off by external request.
 Stoichiometry    C43H75N14O14(1+)
 Framework group  C1[X(C43H75N14O14)]
 Deg. of freedom   432
 Full point group                 C1      NOp   1
                          Input orientation:                          
 ---------------------------------------------------------------------
 Center     Atomic      Atomic             Coordinates (Angstroms)
 Number     Number       Type             X           Y           Z
 ---------------------------------------------------------------------
      1          7           0      -12.430304   -2.336139   -3.631065
      2          1           0      -13.122282   -2.788453   -4.234810
      3          1           0      -11.939774   -3.078448   -3.077765
      4          1           0      -12.891739   -1.624773   -3.037497
      5          6           0      -11.322034   -1.655557   -4.388814
      6          1           0      -11.707501   -1.344568   -5.363017
      7          6           0      -10.197666   -2.707603   -4.466496
      8          6           0      -10.893733   -0.437575   -3.520890
      9          1           0      -10.268417    0.237770   -4.109646
     10          1           0      -10.292141   -0.786007   -2.678208
     11          8           0      -10.227829   -3.626355   -3.646490
     12          8           0      -12.058714    0.186990   -2.996604
     13          1           0      -12.310876    0.946864   -3.544099
     14          7           0       -9.254541   -2.525888   -5.407524
     15          1           0       -9.276075   -1.640538   -5.902250
     16          6           0       -7.907173   -3.062756   -5.191678
     17          1           0       -8.018075   -4.110871   -4.901408
     18          6           0       -7.276036   -2.271855   -4.007046
     19          6           0       -7.083998   -2.950197   -6.479673
     20          1           0       -6.073634   -3.340465   -6.331327
     21          1           0       -6.986207   -1.903772   -6.793353
     22          1           0       -7.555513   -3.517067   -7.287625
     23          8           0       -7.842551   -1.280630   -3.543459
     24          7           0       -6.108318   -2.773175   -3.560925
     25          1           0       -5.593989   -3.447537   -4.133168
     26          6           0       -5.183055   -2.036922   -2.702207
     27          1           0       -5.418563   -0.968531   -2.759528
     28          6           0       -3.781364   -2.319207   -3.301154
     29          6           0       -5.261308   -2.501983   -1.222243
     30          1           0       -4.480543   -1.969271   -0.667921
     31          8           0       -3.650004   -3.175365   -4.181429
     32          6           0       -6.615937   -2.213754   -0.575729
     33          1           0       -6.856823   -1.145982   -0.607267
     34          1           0       -7.419504   -2.753117   -1.091305
     35          1           0       -6.594246   -2.541389    0.467857
     36          8           0       -4.904622   -3.872369   -1.114567
     37          1           0       -5.599621   -4.388877   -1.554934
     38          7           0       -2.786162   -1.569683   -2.802286
     39          1           0       -2.940447   -0.975602   -1.989537
     40          6           0       -1.363250   -1.834896   -3.013809
     41          1           0       -1.264695   -2.858225   -3.390573
     42          6           0       -0.746300   -1.691269   -1.601938
     43          6           0       -0.720251   -0.845324   -4.032030
[...]
 Alpha virt. eigenvalues --    1.75024   1.75664   1.75839   1.75999   1.76299
 Alpha virt. eigenvalues --    1.77516   1.77542   1.77679   1.78033   1.78157
 Alpha virt. eigenvalues --    1.78353   1.78563   1.79427   1.79475   1.79715
 Alpha virt. eigenvalues --    1.80016   1.80711   1.81374   1.81549   1.81926
 Alpha virt. eigenvalues --    1.82449   1.82911   1.83289   1.83440   1.83615
 Alpha virt. eigenvalues --    1.83894   1.84277   1.84603   1.84916   1.85062
 Alpha virt. eigenvalues --    1.85539   1.85564   1.86021   1.86136   1.86504
 Alpha virt. eigenvalues --    1.86679   1.86843   1.87209   1.87529   1.87558
 Alpha virt. eigenvalues --    1.87889   1.88365   1.88670   1.88794   1.89073
 Alpha virt. eigenvalues --    1.89384   1.89519   1.89943   1.90562   1.90820
 Alpha virt. eigenvalues --    1.91099   1.91326   1.91582   1.91812   1.92033
 Alpha virt. eigenvalues --    1.92243   1.92402   1.92745   1.92967   1.93373
 Alpha virt. eigenvalues --    1.93709   1.93888   1.93983   1.94125   1.94536
 Alpha virt. eigenvalues --    1.94862   1.94948   1.95350   1.95658   1.95711
 Alpha virt. eigenvalues --    1.96025   1.96626   1.97054   1.98156   1.98362
 Alpha virt. eigenvalues --    1.98463   1.98547   1.98691   1.99540   1.99566
 Alpha virt. eigenvalues --    1.99896   2.00135   2.00614   2.00816   2.01187
 Alpha virt. eigenvalues --    2.01237   2.01831   2.02118   2.02268   2.02411
 Alpha virt. eigenvalues --    2.02732   2.02998   2.03487   2.04002   2.04418
 Alpha virt. eigenvalues --    2.05208   2.05506   2.05655   2.06186   2.06382
 Alpha virt. eigenvalues --    2.06552   2.06657   2.07084   2.07173   2.07861
 Alpha virt. eigenvalues --    2.08131   2.08748   2.08917   2.09401   2.09949
 Alpha virt. eigenvalues --    2.10258   2.10481   2.10894   2.11870   2.12295
 Alpha virt. eigenvalues --    2.12590   2.12682   2.12721   2.13529   2.13615
 Alpha virt. eigenvalues --    2.14087   2.14171   2.14262   2.14784   2.15100
 Alpha virt. eigenvalues --    2.15323   2.15734   2.16042   2.16212   2.16619
 Alpha virt. eigenvalues --    2.16825   2.17510   2.17781   2.18006   2.18831
 Alpha virt. eigenvalues --    2.18954   2.19260   2.19997   2.20456   2.21166
 Alpha virt. eigenvalues --    2.21626   2.21842   2.22297   2.22737   2.23561
 Alpha virt. eigenvalues --    2.23721   2.23952   2.24165   2.24380   2.26041
 Alpha virt. eigenvalues --    2.26369   2.26398   2.26575   2.26737   2.27571
 Alpha virt. eigenvalues --    2.28195   2.28450   2.28790   2.29151   2.29759
 Alpha virt. eigenvalues --    2.29869   2.30228   2.30480   2.31021   2.31386
 Alpha virt. eigenvalues --    2.31885   2.32439   2.32938   2.33459   2.33558
 Alpha virt. eigenvalues --    2.33839   2.34685   2.35027   2.35462   2.35707
 Alpha virt. eigenvalues --    2.36607   2.37548   2.37765   2.38134   2.38843
 Alpha virt. eigenvalues --    2.39311   2.40605   2.41196   2.41532   2.41895
 Alpha virt. eigenvalues --    2.42195   2.42835   2.43054   2.43170   2.44020
 Alpha virt. eigenvalues --    2.44566   2.44662   2.45211   2.45392   2.45667
 Alpha virt. eigenvalues --    2.46338   2.47026   2.47270   2.47507   2.48035
 Alpha virt. eigenvalues --    2.48414   2.48979   2.49839   2.50263   2.50710
 Alpha virt. eigenvalues --    2.50736   2.51482   2.51809   2.52000   2.52583
 Alpha virt. eigenvalues --    2.52654   2.52936   2.53180   2.53426   2.54077
 Alpha virt. eigenvalues --    2.54359   2.55385   2.56775   2.57028   2.57474
 Alpha virt. eigenvalues --    2.58499   2.58962   2.59076   2.59658   2.60025
 Alpha virt. eigenvalues --    2.60995   2.61620   2.61747   2.62513   2.64338
 Alpha virt. eigenvalues --    2.64535   2.65271   2.65545   2.65786   2.67029
 Alpha virt. eigenvalues --    2.67384   2.67757   2.68050   2.68432   2.68533
 Alpha virt. eigenvalues --    2.69215   2.69905   2.70270   2.70665   2.70979
 Alpha virt. eigenvalues --    2.71879   2.72084   2.72922   2.73321   2.73499
 Alpha virt. eigenvalues --    2.74137   2.75354   2.76065   2.77373   2.77656
 Alpha virt. eigenvalues --    2.78431   2.79201   2.79823   2.82566   2.82818
 Alpha virt. eigenvalues --    2.83516   2.83977   2.85937   2.86255   2.87795
 Alpha virt. eigenvalues --    2.88540   2.89515   2.90714   2.90890   2.92271
 Alpha virt. eigenvalues --    2.92305   2.92863   2.93361   2.94984   2.95092
 Alpha virt. eigenvalues --    2.95645   2.96661   2.97612   2.97884   2.98658
 Alpha virt. eigenvalues --    2.99344   3.00305   3.00724   3.01906   3.02128
 Alpha virt. eigenvalues --    3.03597   3.03853   3.04017   3.05067   3.05896
 Alpha virt. eigenvalues --    3.09787   3.11750   3.12585   3.15083   3.15163
 Alpha virt. eigenvalues --    3.17616   3.18060   3.20541   3.63103   3.66345
 Alpha virt. eigenvalues --    3.72611   3.73201   3.81439   3.84014   3.86880
 Alpha virt. eigenvalues --    3.93339   3.97078   3.97191   3.97877   3.99004
 Alpha virt. eigenvalues --    4.00215   4.01468   4.01965   4.02618   4.03740
 Alpha virt. eigenvalues --    4.05840   4.06015   4.07838   4.09470   4.11889
 Alpha virt. eigenvalues --    4.12592   4.13880   4.14504   4.14817   4.16552
 Alpha virt. eigenvalues --    4.16673   4.17595   4.18256   4.18542   4.19266
 Alpha virt. eigenvalues --    4.20997   4.21520   4.23570   4.24033   4.24566
 Alpha virt. eigenvalues --    4.25649   4.26874   4.27563   4.29562   4.30255
 Alpha virt. eigenvalues --    4.34148   4.34517   4.35245   4.35827   4.36603
 Alpha virt. eigenvalues --    4.37963   4.39218   4.41108   4.41594   4.41956
 Alpha virt. eigenvalues --    4.44007   4.44728   4.47205   4.48157   4.49827
 Alpha virt. eigenvalues --    4.50324   4.50885   4.50989   4.52065   4.52608
 Alpha virt. eigenvalues --    4.56364   4.60515   4.60596   4.65266   4.66049
 Alpha virt. eigenvalues --    4.67242   4.69983   4.71665   4.74343
          Condensed to atoms (all electrons):
 Mulliken charges:
               1
     1  N   -0.741039
     2  H    0.416783
     3  H    0.428573
     4  H    0.428744
     5  C   -0.157969
     6  H    0.206072
     7  C    0.663235
     8  C   -0.062374
     9  H    0.201938
    10  H    0.231199
    11  O   -0.519490
    12  O   -0.615486
    13  H    0.430677
    14  N   -0.564183
    15  H    0.343324
    16  C   -0.091604
    17  H    0.209541
    18  C    0.631500
    19  C   -0.479740
    20  H    0.205188
    21  H    0.165330
    22  H    0.184270
    23  O   -0.553204
    24  N   -0.619436
    25  H    0.367535
    26  C   -0.092237
    27  H    0.178557
    28  C    0.646098
    29  C    0.130592
    30  H    0.168416
    31  O   -0.554271
    32  C   -0.460327
    33  H    0.153100
    34  H    0.137935
    35  H    0.172196
    36  O   -0.610527
    37  H    0.390144
    38  N   -0.611077
    39  H    0.358424
    40  C   -0.056107
    41  H    0.173725
    42  C    0.622348
    43  C   -0.072657
    44  H    0.141638
    45  O   -0.554607
    46  C   -0.473778
    47  H    0.146234
    48  H    0.175316
    49  H    0.153567
    50  C   -0.443476
    51  H    0.156517
    52  H    0.136302
    53  H    0.147002
    54  N   -0.602550
    55  H    0.354481
    56  C   -0.068158
    57  H    0.175082
    58  C    0.629493
    59  C   -0.064967
    60  H    0.131524
    61  O   -0.565431
    62  C   -0.249248
    63  H    0.141377
    64  H    0.135395
    65  C   -0.500449
    66  H    0.137135
    67  H    0.209095
    68  H    0.141171
    69  C   -0.448644
    70  H    0.141015
    71  H    0.140355
    72  H    0.145507
    73  N   -0.583163
    74  H    0.363415
    75  C   -0.062209
    76  H    0.191355
    77  C    0.609625
    78  C   -0.389394
    79  H    0.151021
    80  H    0.163966
    81  O   -0.512181
    82  C    0.578130
    83  O   -0.571882
    84  O   -0.626787
    85  N   -0.619443
    86  H    0.357182
    87  C   -0.015510
    88  H    0.181145
    89  C    0.550741
    90  C   -0.341431
    91  H    0.201662
    92  H    0.182059
    93  O   -0.549018
    94  C    0.340254
    95  C   -0.021566
    96  H    0.207628
    97  N   -0.620064
    98  H    0.483861
    99  C    0.295459
   100  H    0.240560
   101  N   -0.551332
   102  N   -0.620729
   103  H    0.401703
   104  C   -0.028939
   105  H    0.188982
   106  C    0.682492
   107  C   -0.284311
   108  H    0.135770
   109  H    0.142118
   110  O   -0.646093
   111  C   -0.087357
   112  H    0.171314
   113  C   -0.442179
   114  H    0.133564
   115  H    0.140441
   116  H    0.129339
   117  C   -0.471023
   118  H    0.119990
   119  H    0.132631
   120  H    0.199340
   121  N   -0.596458
   122  H    0.361824
   123  C   -0.035829
   124  H    0.157488
   125  C    0.588198
   126  C   -0.274805
   127  H    0.148954
   128  H    0.177468
   129  O   -0.649046
   130  C   -0.303595
   131  H    0.162810
   132  H    0.150173
   133  C   -0.145555
   134  H    0.158184
   135  H    0.160574
   136  N   -0.607643
   137  H    0.405449
   138  N   -0.754818
   139  H    0.360947
   140  H    0.366450
   141  N   -0.761427
   142  H    0.345195
   143  H    0.414951
   144  C    0.762558
   145  O   -0.551680
   146  H    0.377891
 Sum of Mulliken charges =   1.00000
 Mulliken charges with hydrogens summed into heavy atoms:
               1
     1  N    0.533060
     5  C    0.048103
     7  C    0.663235
     8  C    0.370763
    11  O   -0.519490
    12  O   -0.184810
    14  N   -0.220859
    16  C    0.117937
    18  C    0.631500
    19  C    0.075047
    23  O   -0.553204
    24  N   -0.251901
    26  C    0.086320
    28  C    0.646098
    29  C    0.299008
    31  O   -0.554271
    32  C    0.002905
    36  O   -0.220384
    38  N   -0.252653
    40  C    0.117618
    42  C    0.622348
    43  C    0.068981
    45  O   -0.554607
    46  C    0.001339
    50  C   -0.003655
    54  N   -0.248069
    56  C    0.106924
    58  C    0.629493
    59  C    0.066556
    61  O   -0.565431
    62  C    0.027524
    65  C   -0.013048
    69  C   -0.021768
    73  N   -0.219748
    75  C    0.129146
    77  C    0.609625
    78  C   -0.074407
    81  O   -0.512181
    82  C    0.578130
    83  O   -0.571882
    84  O   -0.626787
    85  N   -0.262261
    87  C    0.165635
    89  C    0.550741
    90  C    0.042290
    93  O   -0.549018
    94  C    0.340254
    95  C    0.186061
    97  N   -0.136203
    99  C    0.536019
   101  N   -0.173441
   102  N   -0.219026
   104  C    0.160042
   106  C    0.682492
   107  C   -0.006423
   110  O   -0.646093
   111  C    0.083956
   113  C   -0.038835
   117  C   -0.019062
   121  N   -0.234634
   123  C    0.121659
   125  C    0.588198
   126  C    0.051616
   129  O   -0.649046
   130  C    0.009387
   133  C    0.173204
   136  N   -0.202194
   138  N   -0.027421
   141  N   -0.001281
   144  C    0.762558
   145  O   -0.551680
 Electronic spatial extent (au):  <R**2>=         164279.9027
 Charge=              1.0000 electrons
 Dipole moment (field-independent basis, Debye):
    X=            -21.5294    Y=             -8.2190    Z=             -5.2904  Tot=             23.6443
 Quadrupole moment (field-independent basis, Debye-Ang):
   XX=            550.7371   YY=           -341.2685   ZZ=           -233.6617
   XY=            111.6016   XZ=            405.6656   YZ=             -2.8470
 Traceless Quadrupole moment (field-independent basis, Debye-Ang):
   XX=            558.8015   YY=           -333.2042   ZZ=           -225.5973
   XY=            111.6016   XZ=            405.6656   YZ=             -2.8470
 Octapole moment (field-independent basis, Debye-Ang**2):
  XXX=          -3857.2797  YYY=            680.4382  ZZZ=          -1303.5722  XYY=            -88.9355
  XXY=            464.1417  XXZ=           -388.0293  XZZ=           -877.7256  YZZ=           -296.5222
  YYZ=            -70.1504  XYZ=           -238.7434
 Hexadecapole moment (field-independent basis, Debye-Ang**3):
 XXXX=          28271.2182 YYYY=         -18006.0406 ZZZZ=         -39376.8744 XXXY=          20914.2043
 XXXZ=          30012.4021 YYYX=          -9203.9309 YYYZ=          -7540.8585 ZZZX=         -24203.9528
 ZZZY=         -11223.1651 XXYY=          -8889.2001 XXZZ=          -5554.5546 YYZZ=          -8546.8076
 XXYZ=           6849.8210 YYXZ=          -4407.0285 ZZXY=          -4268.0613
 N-N= 1.131860161969D+04 E-N=-3.077988438627D+04  KE= 3.471002836566D+03
 Unable to Open any file for archive entry.
 1\1\GINC-LAC-304\SP\RB3LYP\6-31G(d)\C43H75N14O14(1+)\KENGMITH\19-Jun-2
 022\0\\# B3LYP/6-31G* guess=read geom=check nosymm integral(ultrafineg
 rid)\\Candidate Structure: Conf:268 Charge calc in gas phase\\1,1\N,0,
 -12.4303044944,-2.3361387217,-3.6310654413\H,0,-13.1222816041,-2.78845
 33432,-4.234809849\H,0,-11.9397735053,-3.0784479934,-3.0777651149\H,0,
 -12.8917392186,-1.6247731469,-3.0374967402\C,0,-11.3220342597,-1.65555
 69103,-4.388813514\H,0,-11.7075010878,-1.3445676948,-5.363016978\C,0,-
 10.197665852,-2.7076030897,-4.4664957438\C,0,-10.8937334421,-0.4375748
 565,-3.5208898126\H,0,-10.2684173978,0.2377700335,-4.1096458424\H,0,-1
 0.2921407461,-0.7860067026,-2.6782077554\O,0,-10.2278293515,-3.6263550
 827,-3.6464904884\O,0,-12.0587139018,0.1869902672,-2.9966042125\H,0,-1
 2.3108755359,0.9468637294,-3.5440987943\N,0,-9.2545414046,-2.525887826
 1,-5.407524447\H,0,-9.2760750557,-1.6405383003,-5.9022496298\C,0,-7.90
 71732579,-3.0627562606,-5.191677752\H,0,-8.0180754729,-4.1108711456,-4
 .9014081731\C,0,-7.2760360661,-2.2718546749,-4.0070463178\C,0,-7.08399
 80559,-2.9501974166,-6.4796731127\H,0,-6.0736339272,-3.3404654287,-6.3
 313274544\H,0,-6.9862068375,-1.9037719777,-6.7933526895\H,0,-7.5555134
 265,-3.5170672819,-7.2876249195\O,0,-7.8425510732,-1.2806303312,-3.543
 4594645\N,0,-6.1083180587,-2.7731747822,-3.5609245687\H,0,-5.593989028
 4,-3.4475368398,-4.1331678923\C,0,-5.1830550019,-2.0369222208,-2.70220
 73805\H,0,-5.4185632531,-0.9685310719,-2.759528018\C,0,-3.7813641818,-
 2.3192070245,-3.3011539194\C,0,-5.2613081791,-2.5019825947,-1.22224263
 34\H,0,-4.4805431319,-1.9692707371,-0.6679208325\O,0,-3.650003586,-3.1
 753646823,-4.1814285526\C,0,-6.6159365311,-2.2137541395,-0.5757285812\
 H,0,-6.8568233307,-1.1459819726,-0.6072673364\H,0,-7.41950425,-2.75311
 66337,-1.0913050857\H,0,-6.5942464003,-2.5413885954,0.4678568163\O,0,-
 4.9046221343,-3.8723694857,-1.1145671242\H,0,-5.5996214876,-4.38887713
 15,-1.5549337597\N,0,-2.7861615012,-1.569683231,-2.8022864782\H,0,-2.9
 404470765,-0.9756023104,-1.989536983\C,0,-1.3632503901,-1.8348958071,-
 3.0138087306\H,0,-1.2646947793,-2.858224571,-3.3905733541\C,0,-0.74629
 95341,-1.6912691061,-1.6019381132\C,0,-0.7202511779,-0.8453242371,-4.0
 320299047\H,0,-0.7212011323,0.1451665269,-3.5548273987\O,0,-1.26799564
 81,-0.9152684218,-0.7943599052\C,0,0.7311621115,-1.2314395619,-4.35984
 5799\H,0,0.7745548217,-2.2223217359,-4.8312938865\H,0,1.3835782345,-1.
 2494351833,-3.4830453711\H,0,1.1565433792,-0.5147507959,-5.0706266936\
 C,0,-1.5472706022,-0.7597913279,-5.323490524\H,0,-1.6228576808,-1.7392
 490958,-5.8096259712\H,0,-2.5624316048,-0.3993185429,-5.132134973\H,0,
 -1.0716331933,-0.0665240508,-6.0263132197\N,0,0.3302775911,-2.45288387
 6,-1.3347692234\H,0,0.7878904229,-2.9754972744,-2.0762099062\C,0,1.163
 6330742,-2.3070392183,-0.139411731\H,0,0.8535396504,-1.3882068048,0.36
 70162911\C,0,2.6036064499,-2.1903254557,-0.6819548382\C,0,1.0029578819
 ,-3.5167451282,0.8277300107\H,0,1.3160740605,-4.4079464668,0.262900203
 1\O,0,2.9301512614,-2.8583937427,-1.669966146\C,0,-0.4741613369,-3.697
 2345848,1.2345386575\H,0,-1.0973458515,-3.6898196058,0.333487518\H,0,-
 0.7893225055,-2.8299650264,1.8317873585\C,0,1.9242370206,-3.369044535,
 2.0491459806\H,0,1.6645143277,-2.4702026204,2.6255016101\H,0,2.9789513
 164,-3.3004211703,1.7694754883\H,0,1.8148854613,-4.2286896856,2.718020
 104\C,0,-0.7605770299,-4.9899916015,2.0083195454\H,0,-1.8355237994,-5.
 0971336354,2.1937199572\H,0,-0.4332058999,-5.8708656695,1.4415704852\H
 ,0,-0.2566710585,-5.0145331625,2.9804182869\N,0,3.4072065234,-1.316235
 1772,-0.053362052\H,0,3.1267835008,-0.7918037259,0.7746556571\C,0,4.80
 39717945,-1.1044198008,-0.3993296193\H,0,4.9806138862,-1.6377487463,-1
 .3390321095\C,0,5.6565313398,-1.7650633178,0.7146908502\C,0,5.06251418
 95,0.4053843908,-0.5441239248\H,0,6.0043250154,0.6047301775,-1.0680465
 433\H,0,4.2686404721,0.8330763798,-1.1676217622\O,0,5.2972017946,-2.78
 8672798,1.2814298297\C,0,5.0885874857,1.1230616448,0.839086045\O,0,5.8
 770229845,2.078288599,0.961026852\O,0,4.3528605344,0.5965495914,1.7467
 597156\N,0,6.8276396146,-1.1294224164,1.0863486766\H,0,7.008823126,-0.
 2189825614,0.6783986714\C,0,7.186422847,-1.2333508153,2.500402436\H,0,
 6.306272493,-1.6221480572,3.0193219004\C,0,7.5484740306,0.15604539,3.0
 647592734\C,0,8.3662238807,-2.1908736112,2.7629091403\H,0,9.2841056278
 ,-1.7183452972,2.3979013889\H,0,8.1979322724,-3.1179565365,2.209290110
 6\O,0,8.7249096743,0.5313074766,3.0808380449\C,0,8.5059309721,-2.53045
 04747,4.2175108276\C,0,8.6332077076,-3.7584887103,4.8120920994\H,0,8.6
 725390466,-4.7455230626,4.3799010591\N,0,8.4955494284,-1.6056199555,5.
 258570897\H,0,8.3729531073,-0.5475504215,5.2492614053\C,0,8.609308188,
 -2.2346606501,6.4218579687\H,0,8.6180068244,-1.7577638702,7.3894364064
 \N,0,8.7016502076,-3.5495502708,6.1790859954\N,0,6.5277842769,0.817326
 8526,3.6561991242\H,0,5.5951449347,0.6868725987,3.2274467301\C,0,6.787
 4934006,2.1076358005,4.2791721706\H,0,7.0375862532,2.8443878205,3.5063
 126703\C,0,7.9808668542,1.9849207739,5.2440239109\C,0,5.5561817034,2.5
 781993194,5.0885519664\H,0,5.3043603378,1.7781499316,5.7981502311\H,0,
 5.8671149008,3.4428559448,5.6911537199\O,0,8.2478773202,0.9397818482,5
 .8819461335\C,0,4.3025007314,2.9782284188,4.2807598958\H,0,3.993264600
 5,2.1326848817,3.6535605758\C,0,3.1613162877,3.2925998934,5.2611222115
 \H,0,3.4120584241,4.1491346119,5.9017104272\H,0,2.241603631,3.54231928
 39,4.7195330446\H,0,2.9427045971,2.4395774833,5.9161196895\C,0,4.57136
 851,4.1639339627,3.3423944554\H,0,5.0053022844,5.0151775716,3.88623916
 63\H,0,3.6336555773,4.5068045414,2.888437693\H,0,5.2372433873,3.874518
 0761,2.5240556982\N,0,8.6672336637,3.1139769351,5.430947588\H,0,8.4294
 755246,3.9779958674,4.946835543\C,0,9.8086589134,3.2669614552,6.325231
 6119\H,0,9.6263336538,2.6994441704,7.2417896203\C,0,9.9100509903,4.784
 3593033,6.644041236\C,0,11.0768876011,2.7097008919,5.6084085857\H,0,11
 .3134907362,3.3773197125,4.7691050289\H,0,10.7662335546,1.7613133088,5
 .1599391577\O,0,10.5059156817,5.0894683471,7.7401948888\C,0,12.3425575
 406,2.4448253188,6.4620777042\H,0,12.0708365061,2.2814706685,7.5135627
 746\H,0,12.8055765244,1.5097416938,6.123873176\C,0,13.4504246666,3.511
 2804144,6.3978232221\H,0,14.3495425903,3.1330293146,6.9026151494\H,0,1
 3.7127093137,3.7102479774,5.3507870738\N,0,13.0008210234,4.7479773328,
 7.0388796698\H,0,12.1026152316,4.670186912,7.5688980678\N,0,14.1943711
 776,6.2617105262,5.7143960337\H,0,14.3654975911,7.2185417002,5.4423123
 018\H,0,14.9939327792,5.6464689715,5.6876556562\N,0,12.3324269605,6.93
 73523389,6.9730932166\H,0,12.3811475497,7.8621330236,6.5711649018\H,0,
 11.4165353,6.5809678978,7.3295523502\C,0,13.1795708514,5.9832557558,6.
 5709498509\O,0,9.4693096756,5.5739442062,5.7958931475\H,0,8.7919494133
 ,-4.2666764396,6.8858350782\\Version=ES64L-G16RevC.01\HF=-3503.3469941
 \RMSD=3.624e-09\Dipole=-12.6542121,-2.6670505,-4.0006502\Quadrupole=41
 5.4552103,-247.7291214,-167.7260889,82.9730872,301.6023966,-2.1166544\
 PG=C01 [X(C43H75N14O14)]\\@
 The archive entry for this job was punched.


 TOWERING GENIUS DISDAINS A BEATEN PATH.  IT SEEKS 
 REGIONS HITHERTO UNEXPLORED.

                                -- ABRAHAM LINCOLN
 Job cpu time:       0 days  0 hours  5 minutes  8.1 seconds.
 Elapsed time:       0 days  0 hours  1 minutes 18.5 seconds.
 File lengths (MBytes):  RWF=    880 Int=      0 D2E=      0 Chk=    144 Scr=     16
 Normal termination of Gaussian 16 at Sun Jun 19 11:59:35 2022.
