 Entering Gaussian System, Link 0=/opt/software/Gaussian/g16-AVX2-C.01/g16/g16
 Input=charge-conf-981.com
 Output=charge-conf-981.log
 Initial command:
 /opt/software/Gaussian/g16-AVX2-C.01/g16/l1.exe "/mnt/gs18/scratch/users/kengmith/Gau-16065.inp" -scrdir="/mnt/gs18/scratch/users/kengmith/"
 Entering Link 1 = /opt/software/Gaussian/g16-AVX2-C.01/g16/l1.exe PID=     16076.
  
 Copyright (c) 1988-2019, Gaussian, Inc.  All Rights Reserved.
  
 This is part of the Gaussian(R) 16 program.  It is based on
 the Gaussian(R) 09 system (copyright 2009, Gaussian, Inc.),
 the Gaussian(R) 03 system (copyright 2003, Gaussian, Inc.),
 the Gaussian(R) 98 system (copyright 1998, Gaussian, Inc.),
 the Gaussian(R) 94 system (copyright 1995, Gaussian, Inc.),
 the Gaussian 92(TM) system (copyright 1992, Gaussian, Inc.),
 the Gaussian 90(TM) system (copyright 1990, Gaussian, Inc.),
 the Gaussian 88(TM) system (copyright 1988, Gaussian, Inc.),
 the Gaussian 86(TM) system (copyright 1986, Carnegie Mellon
 University), and the Gaussian 82(TM) system (copyright 1983,
 Carnegie Mellon University). Gaussian is a federally registered
 trademark of Gaussian, Inc.
  
 This software contains proprietary and confidential information,
 including trade secrets, belonging to Gaussian, Inc.
  
 This software is provided under written license and may be
 used, copied, transmitted, or stored only in accord with that
 written license.
  
 The following legend is applicable only to US Government
 contracts under FAR:
  
                    RESTRICTED RIGHTS LEGEND
  
 Use, reproduction and disclosure by the US Government is
 subject to restrictions as set forth in subparagraphs (a)
 and (c) of the Commercial Computer Software - Restricted
 Rights clause in FAR 52.227-19.
  
 Gaussian, Inc.
 340 Quinnipiac St., Bldg. 40, Wallingford CT 06492
  
  
 ---------------------------------------------------------------
 Warning -- This program may not be used in any manner that
 competes with the business of Gaussian, Inc. or will provide
 assistance to any competitor of Gaussian, Inc.  The licensee
 of this program is prohibited from giving any competitor of
 Gaussian, Inc. access to this program.  By using this program,
 the user acknowledges that Gaussian, Inc. is engaged in the
 business of creating and licensing software in the field of
 computational chemistry and represents and warrants to the
 licensee that it is not a competitor of Gaussian, Inc. and that
 it will not use this program in any manner prohibited above.
 ---------------------------------------------------------------
  

 Cite this work as:
 Gaussian 16, Revision C.01,
 M. J. Frisch, G. W. Trucks, H. B. Schlegel, G. E. Scuseria, 
 M. A. Robb, J. R. Cheeseman, G. Scalmani, V. Barone, 
 G. A. Petersson, H. Nakatsuji, X. Li, M. Caricato, A. V. Marenich, 
 J. Bloino, B. G. Janesko, R. Gomperts, B. Mennucci, H. P. Hratchian, 
 J. V. Ortiz, A. F. Izmaylov, J. L. Sonnenberg, D. Williams-Young, 
 F. Ding, F. Lipparini, F. Egidi, J. Goings, B. Peng, A. Petrone, 
 T. Henderson, D. Ranasinghe, V. G. Zakrzewski, J. Gao, N. Rega, 
 G. Zheng, W. Liang, M. Hada, M. Ehara, K. Toyota, R. Fukuda, 
 J. Hasegawa, M. Ishida, T. Nakajima, Y. Honda, O. Kitao, H. Nakai, 
 T. Vreven, K. Throssell, J. A. Montgomery, Jr., J. E. Peralta, 
 F. Ogliaro, M. J. Bearpark, J. J. Heyd, E. N. Brothers, K. N. Kudin, 
 V. N. Staroverov, T. A. Keith, R. Kobayashi, J. Normand, 
 K. Raghavachari, A. P. Rendell, J. C. Burant, S. S. Iyengar, 
 J. Tomasi, M. Cossi, J. M. Millam, M. Klene, C. Adamo, R. Cammi, 
 J. W. Ochterski, R. L. Martin, K. Morokuma, O. Farkas, 
 J. B. Foresman, and D. J. Fox, Gaussian, Inc., Wallingford CT, 2019.
 
 ******************************************
 Gaussian 16:  ES64L-G16RevC.01  3-Jul-2019
                19-Jun-2022 
 ******************************************
 %mem=8gb
 %nproc=4
 Will use up to    4 processors via shared memory.
 %chk=conf-981.chk
 -------------------------------------------------------------------
 # B3LYP/6-31G* guess=read geom=check nosymm integral(ultrafinegrid)
 -------------------------------------------------------------------
 1/29=2,38=1,172=1/1;
 2/12=2,15=1,40=1/2;
 3/5=1,6=6,7=1,11=2,14=-4,25=1,30=1,74=-5,75=-5,116=-2/1,2,3;
 4/5=1/1;
 5/5=2,38=6/2;
 6/7=2,8=2,9=2,10=2,28=1/1;
 99/5=1,9=1/99;
 ------------------------------------------------------
 Candidate Structure: Conf:981 Charge calc in gas phase
 ------------------------------------------------------
 Structure from the checkpoint file:  "conf-981.chk"
 Charge =  1 Multiplicity = 1
 Redundant internal coordinates found in file.  (old form).
 N,0,-8.793172514,0.028514982,-10.5492113615
 H,0,-7.9715523175,0.3385109754,-11.0846986717
 H,0,-8.899495642,-1.0031277528,-10.6281943182
 H,0,-9.6358775535,0.4587147599,-10.9623657405
 C,0,-8.6834466846,0.3184931397,-9.058762785
 H,0,-8.7874812223,1.3960038352,-8.8937679146
 C,0,-7.3049073884,-0.1586385866,-8.5574571672
 C,0,-9.8253218939,-0.4710464968,-8.3995853633
 H,0,-10.7930255167,-0.0788661256,-8.7345034368
 H,0,-9.7732453039,-0.3628283507,-7.3099246801
 O,0,-7.1703615406,-1.3243654984,-8.1592438423
 O,0,-9.7567787923,-1.8172148248,-8.8260094825
 H,0,-8.9052332946,-2.1655759658,-8.4742477498
 N,0,-6.2957014399,0.738204896,-8.6510660749
 H,0,-6.50084212,1.7142234573,-8.8441716939
 C,0,-4.8857251111,0.4238111785,-8.313544185
 H,0,-4.7107328348,-0.6017104854,-8.6540368348
 C,0,-4.664137799,0.4982541313,-6.7770998254
 C,0,-3.9666427562,1.403506369,-9.0386378151
 H,0,-2.9252906902,1.1989633542,-8.7823495465
 H,0,-4.1821699288,2.4332583918,-8.7362464912
 H,0,-4.0851903934,1.3093380988,-10.1237780085
 O,0,-4.154835134,1.4993628782,-6.2776034788
 N,0,-5.0672828756,-0.5815400988,-6.066535111
 H,0,-5.5546287061,-1.3472553009,-6.52250575
 C,0,-4.9780808779,-0.6401395015,-4.6017673315
 H,0,-5.1152526793,0.3776883347,-4.2183847584
 C,0,-3.5787843454,-1.1572756097,-4.1801375405
 C,0,-6.0719522307,-1.5758486698,-4.0496476608
 H,0,-5.885170889,-1.6868303923,-2.9724620218
 O,0,-3.4410478326,-2.2996769046,-3.7164546981
 C,0,-7.4876465688,-1.0523427711,-4.2665738624
 H,0,-7.626756508,-0.0784252015,-3.783675882
 H,0,-7.7001799973,-0.9475054192,-5.33694449
 H,0,-8.2084892611,-1.7607369336,-3.8476632333
 O,0,-5.9760576039,-2.8405609875,-4.6956897108
 H,0,-5.1107871173,-3.1984423483,-4.3995004464
 N,0,-2.5618302784,-0.2961952171,-4.4041153463
 H,0,-2.7682269353,0.6382190005,-4.7528700287
 C,0,-1.1827179802,-0.5456578499,-3.9924236433
 H,0,-1.1878141975,-1.4311994985,-3.3497565535
 C,0,-0.7119771158,0.689348998,-3.2102359502
 C,0,-0.2561308663,-0.8257161677,-5.2147674481
 H,0,-0.4013210039,0.0134815367,-5.9113488121
 O,0,-0.9616607746,1.8185912613,-3.6388709695
 C,0,1.2303546718,-0.875811168,-4.8238776571
 H,0,1.4184398156,-1.6354428505,-4.0552925083
 H,0,1.5938724144,0.0827236022,-4.4434800579
 H,0,1.8370865925,-1.1346816372,-5.6985105275
 C,0,-0.6698489486,-2.1344848899,-5.9063210381
 H,0,-0.4842047317,-2.991895682,-5.2482012351
 H,0,-1.7329509143,-2.1425661533,-6.169232063
 H,0,-0.0880206954,-2.2827663334,-6.8236974656
 N,0,-0.0099428666,0.4376933347,-2.0717051663
 H,0,0.3132772336,-0.5133186765,-1.9072537837
 C,0,0.8511781766,1.4403813198,-1.4441067699
 H,0,0.8153708645,2.3384693829,-2.067415982
 C,0,2.2700397684,0.8278756868,-1.4583791375
 C,0,0.3684532473,1.7995481443,-0.0064972057
 H,0,0.369625965,0.8555117635,0.5597068225
 O,0,2.4027221507,-0.396726099,-1.3287458229
 C,0,-1.0911590141,2.3200542418,-0.001545196
 H,0,-1.3991788164,2.4001642307,1.0512147469
 H,0,-1.7401128332,1.5600490029,-0.4536739814
 C,0,1.3096212564,2.7906346142,0.6989416746
 H,0,1.4873320572,3.6857652754,0.0905995447
 H,0,2.2861985003,2.3642640862,0.9368167571
 H,0,0.8584714573,3.1265851684,1.6407556387
 C,0,-1.335713518,3.6684957785,-0.6949770099
 H,0,-2.3965732201,3.9390892625,-0.6337674924
 H,0,-0.7646179628,4.4775058436,-0.224896622
 H,0,-1.069182404,3.6296355956,-1.7556317394
 N,0,3.3024051369,1.6906133355,-1.6667833745
 H,0,3.1022095913,2.6730103916,-1.5079422418
 C,0,4.7115842338,1.3171843886,-1.4300676675
 H,0,4.817117676,0.2605089192,-1.6714362402
 C,0,5.0095673149,1.5372851206,0.0598712893
 C,0,5.6497332723,2.1078316847,-2.3341858585
 H,0,5.32898871,1.9884028321,-3.3759073196
 H,0,5.6318511194,3.1777728727,-2.0952790908
 O,0,4.846794732,2.6345646681,0.5806817993
 C,0,7.1168325705,1.5732273741,-2.2075950963
 O,0,7.9497832489,2.1541009438,-2.9529911133
 O,0,7.3037501278,0.6244890646,-1.3830451281
 N,0,5.3611628195,0.4438333656,0.7922149468
 H,0,5.7823252567,-0.3257646138,0.2818479391
 C,0,5.6155092809,0.623834884,2.2112821627
 H,0,4.9793173999,1.4715328751,2.4792640772
 C,0,7.1095892599,0.9308913682,2.5164422367
 C,0,5.2272487635,-0.6106580776,3.0443896152
 H,0,6.0211586416,-1.3581991106,2.9438127407
 H,0,4.2874714521,-1.0456558657,2.6885574746
 O,0,7.8983210598,0.0110231979,2.7762787204
 C,0,4.9933771947,-0.1881004614,4.4623047295
 C,0,3.876669854,-0.3349313572,5.2440705989
 H,0,2.9725145383,-0.8967470557,5.0745501923
 N,0,5.8436252477,0.6333962417,5.1880006034
 H,0,6.7606683721,1.0656152188,4.9415786152
 C,0,5.2774070475,0.9971385498,6.3327442288
 H,0,5.7119644326,1.7015784103,7.0269883458
 N,0,4.0902697729,0.3886207912,6.4095090615
 N,0,7.4421840015,2.2405729489,2.5346269721
 H,0,6.7084450528,2.9078448097,2.3186195071
 C,0,8.7584520646,2.739555367,2.9293054835
 H,0,9.5070076181,2.0210151182,2.5859028471
 C,0,8.9069830593,2.6996263066,4.4720462225
 C,0,9.0265120235,4.1064027038,2.25938102
 H,0,8.3462106025,4.8517920935,2.6992000789
 H,0,10.0506596616,4.4258151606,2.4871610844
 O,0,8.0563829805,2.1370418167,5.2174909198
 C,0,8.8858794519,4.0667979816,0.7158902861
 H,0,7.8625020915,3.7594553175,0.464986777
 C,0,9.1129176952,5.4660857028,0.1260140855
 H,0,10.1187538982,5.8340869609,0.3695676657
 H,0,9.024853643,5.4286966579,-0.9656624896
 H,0,8.3864235358,6.1961240197,0.5083806144
 C,0,9.8717537427,3.0615289197,0.0949053326
 H,0,10.8995128476,3.4370639071,0.2179604888
 H,0,9.6767861789,2.9068352834,-0.9703642672
 H,0,9.8256829484,2.076639041,0.5689278492
 N,0,10.0528967695,3.2017929863,4.9375679418
 H,0,10.5622817191,3.9528950989,4.4324230704
 C,0,10.411981044,3.3282299337,6.3471077065
 H,0,9.5180091794,3.2744868436,6.9734779603
 C,0,11.126726433,4.7320223923,6.5344503806
 C,0,11.416842257,2.2486266572,6.7672516946
 H,0,11.8080927703,2.5596331552,7.7436064113
 H,0,12.2519752395,2.2678406809,6.0521755017
 O,0,11.3515560932,5.0350496541,7.7302638019
 C,0,10.8485030109,0.8241824545,6.83322836
 H,0,10.0524905693,0.7710590414,7.593091629
 H,0,10.3696442616,0.5525986704,5.8865771137
 C,0,11.9261114357,-0.2158375194,7.1425195691
 H,0,11.5227056196,-1.2389307933,7.1015666732
 H,0,12.7308470784,-0.1336086503,6.4024133592
 N,0,12.5049501526,0.0509287861,8.4793975802
 H,0,11.8332112362,0.3955569341,9.1604860256
 N,0,14.3206648632,-1.3822415115,8.224460811
 H,0,14.9511499529,-2.0354992892,8.6730791893
 H,0,13.9539772656,-1.6888828701,7.3317651712
 N,0,13.8653408819,-0.4355330533,10.3011710105
 H,0,14.8187531363,-0.649328412,10.5737169426
 H,0,13.5069465145,0.3975595445,10.7558937083
 C,0,13.5470075607,-0.5956241692,8.992463737
 O,0,11.4025278106,5.32078843,5.4498412253
 H,0,3.4348161002,0.4836162985,7.1707897344
 Recover connectivity data from disk.
                           ----------------------------
                           !    Current Parameters    !
                           ! (Angstroms and Degrees)  !
 --------------------------                            --------------------------
 ! Name  Definition              Value                                          !
 --------------------------------------------------------------------------------
 ! R1    R(1,2)                  1.0285                                         !
 ! R2    R(1,3)                  1.0401                                         !
 ! R3    R(1,4)                  1.0324                                         !
 ! R4    R(1,5)                  1.5224                                         !
 ! R5    R(5,6)                  1.095                                          !
 ! R6    R(5,7)                  1.5425                                         !
 ! R7    R(5,8)                  1.5368                                         !
 ! R8    R(7,11)                 1.2392                                         !
 ! R9    R(7,14)                 1.3534                                         !
 ! R10   R(8,9)                  1.0966                                         !
 ! R11   R(8,10)                 1.0963                                         !
 ! R12   R(8,12)                 1.4138                                         !
 ! R13   R(12,13)                0.985                                          !
 ! R14   R(14,15)                1.0159                                         !
 ! R15   R(14,16)                1.4835                                         !
 ! R16   R(16,17)                1.0946                                         !
 ! R17   R(16,18)                1.5541                                         !
 ! R18   R(16,19)                1.5265                                         !
 ! R19   R(18,23)                1.2293                                         !
 ! R20   R(18,24)                1.354                                          !
 ! R21   R(19,20)                1.0918                                         !
 ! R22   R(19,21)                1.0947                                         !
 ! R23   R(19,22)                1.0957                                         !
 ! R24   R(24,25)                1.0157                                         !
 ! R25   R(24,26)                1.4687                                         !
 ! R26   R(26,27)                1.0963                                         !
 ! R27   R(26,28)                1.5502                                         !
 ! R28   R(26,29)                1.5417                                         !
 ! R29   R(28,31)                1.2406                                         !
 ! R30   R(28,38)                1.3512                                         !
 ! R31   R(29,30)                1.0989                                         !
 ! R32   R(29,32)                1.5249                                         !
 ! R33   R(29,36)                1.4234                                         !
 ! R34   R(32,33)                1.0959                                         !
 ! R35   R(32,34)                1.0963                                         !
 ! R36   R(32,35)                1.094                                          !
 ! R37   R(36,37)                0.9821                                         !
 ! R38   R(38,39)                1.0185                                         !
 ! R39   R(38,40)                1.4607                                         !
 ! R40   R(40,41)                1.0942                                         !
 ! R41   R(40,42)                1.5358                                         !
 ! R42   R(40,43)                1.5592                                         !
 ! R43   R(42,45)                1.2334                                         !
 ! R44   R(42,54)                1.361                                          !
 ! R45   R(43,44)                1.1003                                         !
 ! R46   R(43,46)                1.5378                                         !
 ! R47   R(43,50)                1.537                                          !
 ! R48   R(46,47)                1.0969                                         !
 ! R49   R(46,48)                1.0935                                         !
 ! R50   R(46,49)                1.0955                                         !
 ! R51   R(50,51)                1.0967                                         !
 ! R52   R(50,52)                1.0952                                         !
 ! R53   R(50,53)                1.0964                                         !
 ! R54   R(54,55)                1.0178                                         !
 ! R55   R(54,56)                1.4631                                         !
 ! R56   R(56,57)                1.0938                                         !
 ! R57   R(56,58)                1.5455                                         !
 ! R58   R(56,59)                1.5584                                         !
 ! R59   R(58,61)                1.2386                                         !
 ! R60   R(58,73)                1.3614                                         !
 ! R61   R(59,60)                1.1008                                         !
 ! R62   R(59,62)                1.5497                                         !
 ! R63   R(59,65)                1.5381                                         !
 ! R64   R(62,63)                1.0998                                         !
 ! R65   R(62,64)                1.0969                                         !
 ! R66   R(62,69)                1.5359                                         !
 ! R67   R(65,66)                1.0968                                         !
 ! R68   R(65,67)                1.0918                                         !
 ! R69   R(65,68)                1.097                                          !
 ! R70   R(69,70)                1.0965                                         !
 ! R71   R(69,71)                1.0962                                         !
 ! R72   R(69,72)                1.0943                                         !
 ! R73   R(73,74)                1.0151                                         !
 ! R74   R(73,75)                1.4769                                         !
 ! R75   R(75,76)                1.089                                          !
 ! R76   R(75,77)                1.5353                                         !
 ! R77   R(75,78)                1.524                                          !
 ! R78   R(77,81)                1.2255                                         !
 ! R79   R(77,85)                1.3622                                         !
 ! R80   R(78,79)                1.0965                                         !
 ! R81   R(78,80)                1.0964                                         !
 ! R82   R(78,82)                1.5666                                         !
 ! R83   R(82,83)                1.2597                                         !
 ! R84   R(82,84)                1.2708                                         !
 ! R85   R(85,86)                1.015                                          !
 ! R86   R(85,87)                1.4529                                         !
 ! R87   R(87,88)                1.0932                                         !
 ! R88   R(87,89)                1.5555                                         !
 ! R89   R(87,90)                1.5391                                         !
 ! R90   R(89,93)                1.2393                                         !
 ! R91   R(89,102)               1.3514                                         !
 ! R92   R(90,91)                1.0951                                         !
 ! R93   R(90,92)                1.095                                          !
 ! R94   R(90,94)                1.4979                                         !
 ! R95   R(94,95)                1.371                                          !
 ! R96   R(94,97)                1.3872                                         !
 ! R97   R(95,96)                1.0779                                         !
 ! R98   R(95,101)               1.3883                                         !
 ! R99   R(97,98)                1.0433                                         !
 ! R100  R(97,99)                1.3279                                         !
 ! R101  R(99,100)               1.0803                                         !
 ! R102  R(99,101)               1.3362                                         !
 ! R103  R(101,146)              1.0091                                         !
 ! R104  R(102,103)              1.015                                          !
 ! R105  R(102,104)              1.462                                          !
 ! R106  R(104,105)              1.093                                          !
 ! R107  R(104,106)              1.5504                                         !
 ! R108  R(104,107)              1.5456                                         !
 ! R109  R(106,110)              1.2632                                         !
 ! R110  R(106,121)              1.3349                                         !
 ! R111  R(107,108)              1.1008                                         !
 ! R112  R(107,109)              1.0967                                         !
 ! R113  R(107,111)              1.5504                                         !
 ! R114  R(111,112)              1.0976                                         !
 ! R115  R(111,113)              1.5354                                         !
 ! R116  R(111,117)              1.5389                                         !
 ! R117  R(113,114)              1.0984                                         !
 ! R118  R(113,115)              1.0959                                         !
 ! R119  R(113,116)              1.0986                                         !
 ! R120  R(117,118)              1.1011                                         !
 ! R121  R(117,119)              1.094                                          !
 ! R122  R(117,120)              1.094                                          !
 ! R123  R(121,122)              1.0387                                         !
 ! R124  R(121,123)              1.46                                           !
 ! R125  R(123,124)              1.0929                                         !
 ! R126  R(123,125)              1.5864                                         !
 ! R127  R(123,126)              1.5336                                         !
 ! R128  R(125,129)              1.2539                                         !
 ! R129  R(125,145)              1.2646                                         !
 ! R130  R(126,127)              1.0968                                         !
 ! R131  R(126,128)              1.0996                                         !
 ! R132  R(126,130)              1.5351                                         !
 ! R133  R(130,131)              1.1017                                         !
 ! R134  R(130,132)              1.0951                                         !
 ! R135  R(130,133)              1.5292                                         !
 ! R136  R(133,134)              1.1005                                         !
 ! R137  R(133,135)              1.0964                                         !
 ! R138  R(133,136)              1.481                                          !
 ! R139  R(136,137)              1.0168                                         !
 ! R140  R(136,144)              1.3293                                         !
 ! R141  R(138,139)              1.0127                                         !
 ! R142  R(138,140)              1.0126                                         !
 ! R143  R(138,144)              1.3443                                         !
 ! R144  R(141,142)              1.0144                                         !
 ! R145  R(141,143)              1.0145                                         !
 ! R146  R(141,144)              1.3563                                         !
 ! A1    A(2,1,3)              109.9416                                         !
 ! A2    A(2,1,4)              108.5476                                         !
 ! A3    A(2,1,5)              113.2491                                         !
 ! A4    A(3,1,4)              107.4256                                         !
 ! A5    A(3,1,5)              105.7025                                         !
 ! A6    A(4,1,5)              111.7927                                         !
 ! A7    A(1,5,6)              109.1538                                         !
 ! A8    A(1,5,7)              108.8855                                         !
 ! A9    A(1,5,8)              105.5764                                         !
 ! A10   A(6,5,7)              109.896                                          !
 ! A11   A(6,5,8)              111.7351                                         !
 ! A12   A(7,5,8)              111.452                                          !
 ! A13   A(5,7,11)             119.502                                          !
 ! A14   A(5,7,14)             116.0385                                         !
 ! A15   A(11,7,14)            124.3783                                         !
 ! A16   A(5,8,9)              109.9355                                         !
 ! A17   A(5,8,10)             109.8972                                         !
 ! A18   A(5,8,12)             108.8925                                         !
 ! A19   A(9,8,10)             108.0717                                         !
 ! A20   A(9,8,12)             106.9305                                         !
 ! A21   A(10,8,12)            113.0481                                         !
 ! A22   A(8,12,13)            105.7212                                         !
 ! A23   A(7,14,15)            119.9502                                         !
 ! A24   A(7,14,16)            123.5432                                         !
 ! A25   A(15,14,16)           116.0266                                         !
 ! A26   A(14,16,17)           106.243                                          !
 ! A27   A(14,16,18)           110.505                                          !
 ! A28   A(14,16,19)           109.1567                                         !
 ! A29   A(17,16,18)           109.2443                                         !
 ! A30   A(17,16,19)           110.9318                                         !
 ! A31   A(18,16,19)           110.6714                                         !
 ! A32   A(16,18,23)           119.9865                                         !
 ! A33   A(16,18,24)           115.9865                                         !
 ! A34   A(23,18,24)           124.0263                                         !
 ! A35   A(16,19,20)           110.0313                                         !
 ! A36   A(16,19,21)           110.7304                                         !
 ! A37   A(16,19,22)           110.4957                                         !
 ! A38   A(20,19,21)           107.4092                                         !
 ! A39   A(20,19,22)           108.6385                                         !
 ! A40   A(21,19,22)           109.4595                                         !
 ! A41   A(18,24,25)           120.5605                                         !
 ! A42   A(18,24,26)           122.4883                                         !
 ! A43   A(25,24,26)           116.5372                                         !
 ! A44   A(24,26,27)           107.7071                                         !
 ! A45   A(24,26,28)           109.8399                                         !
 ! A46   A(24,26,29)           109.7728                                         !
 ! A47   A(27,26,28)           109.1201                                         !
 ! A48   A(27,26,29)           110.4556                                         !
 ! A49   A(28,26,29)           109.9114                                         !
 ! A50   A(26,28,31)           120.6008                                         !
 ! A51   A(26,28,38)           114.9403                                         !
 ! A52   A(31,28,38)           124.4174                                         !
 ! A53   A(26,29,30)           106.9624                                         !
 ! A54   A(26,29,32)           113.5403                                         !
 ! A55   A(26,29,36)           109.2032                                         !
 ! A56   A(30,29,32)           109.3855                                         !
 ! A57   A(30,29,36)           110.104                                          !
 ! A58   A(32,29,36)           107.6386                                         !
 ! A59   A(29,32,33)           111.1154                                         !
 ! A60   A(29,32,34)           110.5917                                         !
 ! A61   A(29,32,35)           109.5686                                         !
 ! A62   A(33,32,34)           108.7005                                         !
 ! A63   A(33,32,35)           108.8483                                         !
 ! A64   A(34,32,35)           107.9408                                         !
 ! A65   A(29,36,37)           104.256                                          !
 ! A66   A(28,38,39)           119.2674                                         !
 ! A67   A(28,38,40)           123.7122                                         !
 ! A68   A(39,38,40)           116.3923                                         !
 ! A69   A(38,40,41)           107.4192                                         !
 ! A70   A(38,40,42)           107.1936                                         !
 ! A71   A(38,40,43)           111.7647                                         !
 ! A72   A(41,40,42)           110.6771                                         !
 ! A73   A(41,40,43)           108.5333                                         !
 ! A74   A(42,40,43)           111.196                                          !
 ! A75   A(40,42,45)           119.8149                                         !
 ! A76   A(40,42,54)           115.8143                                         !
 ! A77   A(45,42,54)           124.3616                                         !
 ! A78   A(40,43,44)           106.3145                                         !
 ! A79   A(40,43,46)           112.3962                                         !
 ! A80   A(40,43,50)           110.2257                                         !
 ! A81   A(44,43,46)           108.2597                                         !
 ! A82   A(44,43,50)           109.214                                          !
 ! A83   A(46,43,50)           110.2928                                         !
 ! A84   A(43,46,47)           111.4945                                         !
 ! A85   A(43,46,48)           112.4092                                         !
 ! A86   A(43,46,49)           109.8835                                         !
 ! A87   A(47,46,48)           107.8375                                         !
 ! A88   A(47,46,49)           107.5065                                         !
 ! A89   A(48,46,49)           107.5039                                         !
 ! A90   A(43,50,51)           110.497                                          !
 ! A91   A(43,50,52)           112.0613                                         !
 ! A92   A(43,50,53)           110.4137                                         !
 ! A93   A(51,50,52)           107.6147                                         !
 ! A94   A(51,50,53)           107.851                                          !
 ! A95   A(52,50,53)           108.2566                                         !
 ! A96   A(42,54,55)           118.1463                                         !
 ! A97   A(42,54,56)           122.3897                                         !
 ! A98   A(55,54,56)           112.5889                                         !
 ! A99   A(54,56,57)           107.3965                                         !
 ! A100  A(54,56,58)           105.3529                                         !
 ! A101  A(54,56,59)           111.7969                                         !
 ! A102  A(57,56,58)           110.4998                                         !
 ! A103  A(57,56,59)           109.045                                          !
 ! A104  A(58,56,59)           112.5957                                         !
 ! A105  A(56,58,61)           119.29                                           !
 ! A106  A(56,58,73)           116.5147                                         !
 ! A107  A(61,58,73)           124.1482                                         !
 ! A108  A(56,59,60)           106.0513                                         !
 ! A109  A(56,59,62)           111.8457                                         !
 ! A110  A(56,59,65)           112.4609                                         !
 ! A111  A(60,59,62)           106.7029                                         !
 ! A112  A(60,59,65)           108.4234                                         !
 ! A113  A(62,59,65)           111.0055                                         !
 ! A114  A(59,62,63)           106.9368                                         !
 ! A115  A(59,62,64)           108.8573                                         !
 ! A116  A(59,62,69)           116.3227                                         !
 ! A117  A(63,62,64)           106.2202                                         !
 ! A118  A(63,62,69)           108.8823                                         !
 ! A119  A(64,62,69)           109.148                                          !
 ! A120  A(59,65,66)           111.7556                                         !
 ! A121  A(59,65,67)           113.3043                                         !
 ! A122  A(59,65,68)           109.8432                                         !
 ! A123  A(66,65,67)           107.1355                                         !
 ! A124  A(66,65,68)           107.0313                                         !
 ! A125  A(67,65,68)           107.4811                                         !
 ! A126  A(62,69,70)           110.2122                                         !
 ! A127  A(62,69,71)           111.8011                                         !
 ! A128  A(62,69,72)           111.5701                                         !
 ! A129  A(70,69,71)           107.3359                                         !
 ! A130  A(70,69,72)           107.3676                                         !
 ! A131  A(71,69,72)           108.3583                                         !
 ! A132  A(58,73,74)           116.0899                                         !
 ! A133  A(58,73,75)           122.5987                                         !
 ! A134  A(74,73,75)           114.0664                                         !
 ! A135  A(73,75,76)           107.5943                                         !
 ! A136  A(73,75,77)           107.7269                                         !
 ! A137  A(73,75,78)           111.1668                                         !
 ! A138  A(76,75,77)           109.5959                                         !
 ! A139  A(76,75,78)           108.1943                                         !
 ! A140  A(77,75,78)           112.4492                                         !
 ! A141  A(75,77,81)           120.9986                                         !
 ! A142  A(75,77,85)           117.1778                                         !
 ! A143  A(81,77,85)           121.6378                                         !
 ! A144  A(75,78,79)           109.0887                                         !
 ! A145  A(75,78,80)           111.5275                                         !
 ! A146  A(75,78,82)           110.5791                                         !
 ! A147  A(79,78,80)           107.9702                                         !
 ! A148  A(79,78,82)           108.2726                                         !
 ! A149  A(80,78,82)           109.3097                                         !
 ! A150  A(78,82,83)           114.4603                                         !
 ! A151  A(78,82,84)           116.4199                                         !
 ! A152  A(83,82,84)           129.1195                                         !
 ! A153  A(77,85,86)           116.4506                                         !
 ! A154  A(77,85,87)           118.0891                                         !
 ! A155  A(86,85,87)           120.8268                                         !
 ! A156  A(85,87,88)           103.5101                                         !
 ! A157  A(85,87,89)           112.5951                                         !
 ! A158  A(85,87,90)           112.6541                                         !
 ! A159  A(88,87,89)           110.965                                          !
 ! A160  A(88,87,90)           110.0267                                         !
 ! A161  A(89,87,90)           107.124                                          !
 ! A162  A(87,89,93)           120.3925                                         !
 ! A163  A(87,89,102)          115.4891                                         !
 ! A164  A(93,89,102)          124.0494                                         !
 ! A165  A(87,90,91)           108.3567                                         !
 ! A166  A(87,90,92)           111.0538                                         !
 ! A167  A(87,90,94)           108.9965                                         !
 ! A168  A(91,90,92)           108.7341                                         !
 ! A169  A(91,90,94)           113.1225                                         !
 ! A170  A(92,90,94)           106.5991                                         !
 ! A171  A(90,94,95)           129.5466                                         !
 ! A172  A(90,94,97)           124.5098                                         !
 ! A173  A(95,94,97)           105.3282                                         !
 ! A174  A(94,95,96)           130.4928                                         !
 ! A175  A(94,95,101)          107.3095                                         !
 ! A176  A(96,95,101)          122.1895                                         !
 ! A177  A(94,97,98)           131.3379                                         !
 ! A178  A(94,97,99)           110.5996                                         !
 ! A179  A(98,97,99)           117.7053                                         !
 ! A180  A(97,99,100)          124.1314                                         !
 ! A181  A(97,99,101)          107.6743                                         !
 ! A182  A(100,99,101)         128.1276                                         !
 ! A183  A(95,101,99)          109.0146                                         !
 ! A184  A(95,101,146)         125.6237                                         !
 ! A185  A(99,101,146)         125.2797                                         !
 ! A186  A(89,102,103)         117.1509                                         !
 ! A187  A(89,102,104)         123.7798                                         !
 ! A188  A(103,102,104)        118.9414                                         !
 ! A189  A(102,104,105)        107.9043                                         !
 ! A190  A(102,104,106)        110.2489                                         !
 ! A191  A(102,104,107)        109.9361                                         !
 ! A192  A(105,104,106)        103.3029                                         !
 ! A193  A(105,104,107)        109.0518                                         !
 ! A194  A(106,104,107)        115.9418                                         !
 ! A195  A(104,106,110)        122.2874                                         !
 ! A196  A(104,106,121)        114.8066                                         !
 ! A197  A(110,106,121)        122.6679                                         !
 ! A198  A(104,107,108)        108.5689                                         !
 ! A199  A(104,107,109)        109.2381                                         !
 ! A200  A(104,107,111)        113.1528                                         !
 ! A201  A(108,107,109)        107.272                                          !
 ! A202  A(108,107,111)        111.0383                                         !
 ! A203  A(109,107,111)        107.3924                                         !
 ! A204  A(107,111,112)        108.6208                                         !
 ! A205  A(107,111,113)        110.2292                                         !
 ! A206  A(107,111,117)        111.1193                                         !
 ! A207  A(112,111,113)        107.7724                                         !
 ! A208  A(112,111,117)        108.7938                                         !
 ! A209  A(113,111,117)        110.2168                                         !
 ! A210  A(111,113,114)        110.8275                                         !
 ! A211  A(111,113,115)        109.8608                                         !
 ! A212  A(111,113,116)        111.9687                                         !
 ! A213  A(114,113,115)        107.813                                          !
 ! A214  A(114,113,116)        107.8035                                         !
 ! A215  A(115,113,116)        108.4361                                         !
 ! A216  A(111,117,118)        109.2736                                         !
 ! A217  A(111,117,119)        111.7863                                         !
 ! A218  A(111,117,120)        112.7227                                         !
 ! A219  A(118,117,119)        108.8687                                         !
 ! A220  A(118,117,120)        107.3327                                         !
 ! A221  A(119,117,120)        106.6857                                         !
 ! A222  A(106,121,122)        121.5622                                         !
 ! A223  A(106,121,123)        125.4759                                         !
 ! A224  A(122,121,123)        106.6356                                         !
 ! A225  A(121,123,124)        110.3571                                         !
 ! A226  A(121,123,125)        107.5447                                         !
 ! A227  A(121,123,126)        111.3877                                         !
 ! A228  A(124,123,125)        110.1438                                         !
 ! A229  A(124,123,126)        110.1419                                         !
 ! A230  A(125,123,126)        107.1805                                         !
 ! A231  A(123,125,129)        114.0324                                         !
 ! A232  A(123,125,145)        114.1409                                         !
 ! A233  A(129,125,145)        131.7843                                         !
 ! A234  A(123,126,127)        106.1402                                         !
 ! A235  A(123,126,128)        107.8897                                         !
 ! A236  A(123,126,130)        114.9883                                         !
 ! A237  A(127,126,128)        107.6377                                         !
 ! A238  A(127,126,130)        110.9113                                         !
 ! A239  A(128,126,130)        108.987                                          !
 ! A240  A(126,130,131)        109.9917                                         !
 ! A241  A(126,130,132)        110.7858                                         !
 ! A242  A(126,130,133)        112.2645                                         !
 ! A243  A(131,130,132)        105.5638                                         !
 ! A244  A(131,130,133)        109.6846                                         !
 ! A245  A(132,130,133)        108.3194                                         !
 ! A246  A(130,133,134)        111.4948                                         !
 ! A247  A(130,133,135)        109.2493                                         !
 ! A248  A(130,133,136)        109.6016                                         !
 ! A249  A(134,133,135)        108.2792                                         !
 ! A250  A(134,133,136)        110.1394                                         !
 ! A251  A(135,133,136)        107.9961                                         !
 ! A252  A(133,136,137)        114.047                                          !
 ! A253  A(133,136,144)        124.5519                                         !
 ! A254  A(137,136,144)        115.0994                                         !
 ! A255  A(139,138,140)        114.8755                                         !
 ! A256  A(139,138,144)        118.8611                                         !
 ! A257  A(140,138,144)        118.1927                                         !
 ! A258  A(142,141,143)        112.6234                                         !
 ! A259  A(142,141,144)        117.0622                                         !
 ! A260  A(143,141,144)        116.5182                                         !
 ! A261  A(136,144,138)        121.0134                                         !
 ! A262  A(136,144,141)        119.9319                                         !
 ! A263  A(138,144,141)        119.0276                                         !
 ! D1    D(2,1,5,6)             71.7541                                         !
 ! D2    D(2,1,5,7)            -48.2177                                         !
 ! D3    D(2,1,5,8)           -167.9949                                         !
 ! D4    D(3,1,5,6)           -167.8232                                         !
 ! D5    D(3,1,5,7)             72.205                                          !
 ! D6    D(3,1,5,8)            -47.5723                                         !
 ! D7    D(4,1,5,6)            -51.2447                                         !
 ! D8    D(4,1,5,7)           -171.2165                                         !
 ! D9    D(4,1,5,8)             69.0062                                         !
 ! D10   D(1,5,7,11)           -88.8767                                         !
 ! D11   D(1,5,7,14)            87.9892                                         !
 ! D12   D(6,5,7,11)           151.6121                                         !
 ! D13   D(6,5,7,14)           -31.522                                          !
 ! D14   D(8,5,7,11)            27.1856                                         !
 ! D15   D(8,5,7,14)          -155.9485                                         !
 ! D16   D(1,5,8,9)            -64.765                                          !
 ! D17   D(1,5,8,10)           176.4057                                         !
 ! D18   D(1,5,8,12)            52.0775                                         !
 ! D19   D(6,5,8,9)             53.7778                                         !
 ! D20   D(6,5,8,10)           -65.0516                                         !
 ! D21   D(6,5,8,12)           170.6203                                         !
 ! D22   D(7,5,8,9)            177.164                                          !
 ! D23   D(7,5,8,10)            58.3346                                         !
 ! D24   D(7,5,8,12)           -65.9936                                         !
 ! D25   D(5,7,14,15)           12.9888                                         !
 ! D26   D(5,7,14,16)         -175.2821                                         !
 ! D27   D(11,7,14,15)        -170.3165                                         !
 ! D28   D(11,7,14,16)           1.4127                                         !
 ! D29   D(5,8,12,13)           64.2817                                         !
 ! D30   D(9,8,12,13)         -176.9753                                         !
 ! D31   D(10,8,12,13)         -58.1656                                         !
 ! D32   D(7,14,16,17)          37.5207                                         !
 ! D33   D(7,14,16,18)         -80.8698                                         !
 ! D34   D(7,14,16,19)         157.1991                                         !
 ! D35   D(15,14,16,17)       -150.4525                                         !
 ! D36   D(15,14,16,18)         91.157                                          !
 ! D37   D(15,14,16,19)        -30.774                                          !
 ! D38   D(14,16,18,23)        -99.8341                                         !
 ! D39   D(14,16,18,24)         79.8714                                         !
 ! D40   D(17,16,18,23)        143.6231                                         !
 ! D41   D(17,16,18,24)        -36.6714                                         !
 ! D42   D(19,16,18,23)         21.2009                                         !
 ! D43   D(19,16,18,24)       -159.0936                                         !
 ! D44   D(14,16,19,20)        178.7319                                         !
 ! D45   D(14,16,19,21)         60.1449                                         !
 ! D46   D(14,16,19,22)        -61.3046                                         !
 ! D47   D(17,16,19,20)        -64.5304                                         !
 ! D48   D(17,16,19,21)        176.8826                                         !
 ! D49   D(17,16,19,22)         55.4331                                         !
 ! D50   D(18,16,19,20)         56.9013                                         !
 ! D51   D(18,16,19,21)        -61.6857                                         !
 ! D52   D(18,16,19,22)        176.8648                                         !
 ! D53   D(16,18,24,25)         -4.9945                                         !
 ! D54   D(16,18,24,26)       -177.3515                                         !
 ! D55   D(23,18,24,25)        174.6978                                         !
 ! D56   D(23,18,24,26)          2.3408                                         !
 ! D57   D(18,24,26,27)         31.7888                                         !
 ! D58   D(18,24,26,28)        -86.9445                                         !
 ! D59   D(18,24,26,29)        152.0951                                         !
 ! D60   D(25,24,26,27)       -140.8565                                         !
 ! D61   D(25,24,26,28)        100.4103                                         !
 ! D62   D(25,24,26,29)        -20.5502                                         !
 ! D63   D(24,26,28,31)       -107.5018                                         !
 ! D64   D(24,26,28,38)         70.2551                                         !
 ! D65   D(27,26,28,31)        134.6388                                         !
 ! D66   D(27,26,28,38)        -47.6044                                         !
 ! D67   D(29,26,28,31)         13.3751                                         !
 ! D68   D(29,26,28,38)       -168.868                                          !
 ! D69   D(24,26,29,30)        172.9652                                         !
 ! D70   D(24,26,29,32)        -66.2777                                         !
 ! D71   D(24,26,29,36)         53.8367                                         !
 ! D72   D(27,26,29,30)        -68.4116                                         !
 ! D73   D(27,26,29,32)         52.3455                                         !
 ! D74   D(27,26,29,36)        172.4599                                         !
 ! D75   D(28,26,29,30)         52.0479                                         !
 ! D76   D(28,26,29,32)        172.805                                          !
 ! D77   D(28,26,29,36)        -67.0806                                         !
 ! D78   D(26,28,38,39)          4.7897                                         !
 ! D79   D(26,28,38,40)        175.366                                          !
 ! D80   D(31,28,38,39)       -177.5508                                         !
 ! D81   D(31,28,38,40)         -6.9745                                         !
 ! D82   D(26,29,32,33)        -59.3976                                         !
 ! D83   D(26,29,32,34)         61.4159                                         !
 ! D84   D(26,29,32,35)       -179.7169                                         !
 ! D85   D(30,29,32,33)         59.9855                                         !
 ! D86   D(30,29,32,34)       -179.2011                                         !
 ! D87   D(30,29,32,35)        -60.3338                                         !
 ! D88   D(36,29,32,33)        179.6052                                         !
 ! D89   D(36,29,32,34)        -59.5813                                         !
 ! D90   D(36,29,32,35)         59.2859                                         !
 ! D91   D(26,29,36,37)         65.6801                                         !
 ! D92   D(30,29,36,37)        -51.4792                                         !
 ! D93   D(32,29,36,37)       -170.6411                                         !
 ! D94   D(28,38,40,41)         -9.5188                                         !
 ! D95   D(28,38,40,42)       -128.4964                                         !
 ! D96   D(28,38,40,43)        109.4262                                         !
 ! D97   D(39,38,40,41)        161.3062                                         !
 ! D98   D(39,38,40,42)         42.3286                                         !
 ! D99   D(39,38,40,43)        -79.7488                                         !
 ! D100  D(38,40,42,45)        -44.3793                                         !
 ! D101  D(38,40,42,54)        136.6752                                         !
 ! D102  D(41,40,42,45)       -161.2335                                         !
 ! D103  D(41,40,42,54)         19.821                                          !
 ! D104  D(43,40,42,45)         78.0527                                         !
 ! D105  D(43,40,42,54)       -100.8928                                         !
 ! D106  D(38,40,43,44)         52.9164                                         !
 ! D107  D(38,40,43,46)        171.1926                                         !
 ! D108  D(38,40,43,50)        -65.331                                          !
 ! D109  D(41,40,43,44)        171.1988                                         !
 ! D110  D(41,40,43,46)        -70.525                                          !
 ! D111  D(41,40,43,50)         52.9514                                         !
 ! D112  D(42,40,43,44)        -66.8335                                         !
 ! D113  D(42,40,43,46)         51.4427                                         !
 ! D114  D(42,40,43,50)        174.9191                                         !
 ! D115  D(40,42,54,55)         11.7368                                         !
 ! D116  D(40,42,54,56)        160.5265                                         !
 ! D117  D(45,42,54,55)       -167.1549                                         !
 ! D118  D(45,42,54,56)        -18.3652                                         !
 ! D119  D(40,43,46,47)         57.4676                                         !
 ! D120  D(40,43,46,48)        -63.7636                                         !
 ! D121  D(40,43,46,49)        176.56                                           !
 ! D122  D(44,43,46,47)        174.5906                                         !
 ! D123  D(44,43,46,48)         53.3594                                         !
 ! D124  D(44,43,46,49)        -66.317                                          !
 ! D125  D(50,43,46,47)        -65.9713                                         !
 ! D126  D(50,43,46,48)        172.7974                                         !
 ! D127  D(50,43,46,49)         53.121                                          !
 ! D128  D(40,43,50,51)        -66.4995                                         !
 ! D129  D(40,43,50,52)         53.5065                                         !
 ! D130  D(40,43,50,53)        174.2704                                         !
 ! D131  D(44,43,50,51)        177.0494                                         !
 ! D132  D(44,43,50,52)        -62.9446                                         !
 ! D133  D(44,43,50,53)         57.8193                                         !
 ! D134  D(46,43,50,51)         58.1918                                         !
 ! D135  D(46,43,50,52)        178.1978                                         !
 ! D136  D(46,43,50,53)        -61.0383                                         !
 ! D137  D(42,54,56,57)         -1.3875                                         !
 ! D138  D(42,54,56,58)       -119.201                                          !
 ! D139  D(42,54,56,59)        118.1885                                         !
 ! D140  D(55,54,56,57)        148.9515                                         !
 ! D141  D(55,54,56,58)         31.138                                          !
 ! D142  D(55,54,56,59)        -91.4725                                         !
 ! D143  D(54,56,58,61)        -33.7666                                         !
 ! D144  D(54,56,58,73)        143.8426                                         !
 ! D145  D(57,56,58,61)       -149.4668                                         !
 ! D146  D(57,56,58,73)         28.1424                                         !
 ! D147  D(59,56,58,61)         88.3293                                         !
 ! D148  D(59,56,58,73)        -94.0615                                         !
 ! D149  D(54,56,59,60)         58.2825                                         !
 ! D150  D(54,56,59,62)        -57.6651                                         !
 ! D151  D(54,56,59,65)        176.6287                                         !
 ! D152  D(57,56,59,60)        176.8831                                         !
 ! D153  D(57,56,59,62)         60.9355                                         !
 ! D154  D(57,56,59,65)        -64.7707                                         !
 ! D155  D(58,56,59,60)        -60.0956                                         !
 ! D156  D(58,56,59,62)       -176.0433                                         !
 ! D157  D(58,56,59,65)         58.2506                                         !
 ! D158  D(56,58,73,74)         18.4379                                         !
 ! D159  D(56,58,73,75)        166.88                                           !
 ! D160  D(61,58,73,74)       -164.0817                                         !
 ! D161  D(61,58,73,75)        -15.6396                                         !
 ! D162  D(56,59,62,63)        171.4799                                         !
 ! D163  D(56,59,62,64)         57.114                                          !
 ! D164  D(56,59,62,69)        -66.6436                                         !
 ! D165  D(60,59,62,63)         55.9293                                         !
 ! D166  D(60,59,62,64)        -58.4367                                         !
 ! D167  D(60,59,62,69)        177.8057                                         !
 ! D168  D(65,59,62,63)        -62.0184                                         !
 ! D169  D(65,59,62,64)       -176.3844                                         !
 ! D170  D(65,59,62,69)         59.858                                          !
 ! D171  D(56,59,65,66)         53.0992                                         !
 ! D172  D(56,59,65,67)        -68.0528                                         !
 ! D173  D(56,59,65,68)        171.7373                                         !
 ! D174  D(60,59,65,66)        170.04                                           !
 ! D175  D(60,59,65,67)         48.888                                          !
 ! D176  D(60,59,65,68)        -71.3218                                         !
 ! D177  D(62,59,65,66)        -73.0619                                         !
 ! D178  D(62,59,65,67)        165.7861                                         !
 ! D179  D(62,59,65,68)         45.5763                                         !
 ! D180  D(59,62,69,70)        179.9191                                         !
 ! D181  D(59,62,69,71)        -60.7895                                         !
 ! D182  D(59,62,69,72)         60.7369                                         !
 ! D183  D(63,62,69,70)        -59.2361                                         !
 ! D184  D(63,62,69,71)         60.0553                                         !
 ! D185  D(63,62,69,72)       -178.4184                                         !
 ! D186  D(64,62,69,70)         56.3118                                         !
 ! D187  D(64,62,69,71)        175.6032                                         !
 ! D188  D(64,62,69,72)        -62.8705                                         !
 ! D189  D(58,73,75,76)         33.4149                                         !
 ! D190  D(58,73,75,77)        -84.6679                                         !
 ! D191  D(58,73,75,78)        151.7124                                         !
 ! D192  D(74,73,75,76)       -177.5678                                         !
 ! D193  D(74,73,75,77)         64.3494                                         !
 ! D194  D(74,73,75,78)        -59.2703                                         !
 ! D195  D(73,75,77,81)        -57.239                                          !
 ! D196  D(73,75,77,85)        117.8867                                         !
 ! D197  D(76,75,77,81)       -174.0244                                         !
 ! D198  D(76,75,77,85)          1.1012                                         !
 ! D199  D(78,75,77,81)         65.5974                                         !
 ! D200  D(78,75,77,85)       -119.2769                                         !
 ! D201  D(73,75,78,79)        -53.6838                                         !
 ! D202  D(73,75,78,80)         65.4904                                         !
 ! D203  D(73,75,78,82)       -172.6523                                         !
 ! D204  D(76,75,78,79)         64.2511                                         !
 ! D205  D(76,75,78,80)       -176.5748                                         !
 ! D206  D(76,75,78,82)        -54.7175                                         !
 ! D207  D(77,75,78,79)       -174.5653                                         !
 ! D208  D(77,75,78,80)        -55.3912                                         !
 ! D209  D(77,75,78,82)         66.4661                                         !
 ! D210  D(75,77,85,86)         25.3789                                         !
 ! D211  D(75,77,85,87)       -178.5149                                         !
 ! D212  D(81,77,85,86)       -159.5287                                         !
 ! D213  D(81,77,85,87)         -3.4225                                         !
 ! D214  D(75,78,82,83)        178.2165                                         !
 ! D215  D(75,78,82,84)         -1.5885                                         !
 ! D216  D(79,78,82,83)         58.7545                                         !
 ! D217  D(79,78,82,84)       -121.0504                                         !
 ! D218  D(80,78,82,83)        -58.6304                                         !
 ! D219  D(80,78,82,84)        121.5646                                         !
 ! D220  D(77,85,87,88)         28.9185                                         !
 ! D221  D(77,85,87,89)        -90.9864                                         !
 ! D222  D(77,85,87,90)        147.7299                                         !
 ! D223  D(86,85,87,88)       -176.0618                                         !
 ! D224  D(86,85,87,89)         64.0333                                         !
 ! D225  D(86,85,87,90)        -57.2503                                         !
 ! D226  D(85,87,89,93)        -92.1493                                         !
 ! D227  D(85,87,89,102)        90.7533                                         !
 ! D228  D(88,87,89,93)        152.3556                                         !
 ! D229  D(88,87,89,102)       -24.7418                                         !
 ! D230  D(90,87,89,93)         32.2364                                         !
 ! D231  D(90,87,89,102)      -144.8611                                         !
 ! D232  D(85,87,90,91)         78.8976                                         !
 ! D233  D(85,87,90,92)        -40.4649                                         !
 ! D234  D(85,87,90,94)       -157.6109                                         !
 ! D235  D(88,87,90,91)       -166.1687                                         !
 ! D236  D(88,87,90,92)         74.4688                                         !
 ! D237  D(88,87,90,94)        -42.6771                                         !
 ! D238  D(89,87,90,91)        -45.4521                                         !
 ! D239  D(89,87,90,92)       -164.8146                                         !
 ! D240  D(89,87,90,94)         78.0394                                         !
 ! D241  D(87,89,102,103)       -2.0689                                         !
 ! D242  D(87,89,102,104)      173.7665                                         !
 ! D243  D(93,89,102,103)     -179.047                                          !
 ! D244  D(93,89,102,104)       -3.2117                                         !
 ! D245  D(87,90,94,95)        122.5945                                         !
 ! D246  D(87,90,94,97)        -47.0529                                         !
 ! D247  D(91,90,94,95)       -116.7974                                         !
 ! D248  D(91,90,94,97)         73.5552                                         !
 ! D249  D(92,90,94,95)          2.6553                                         !
 ! D250  D(92,90,94,97)       -166.9921                                         !
 ! D251  D(90,94,95,96)          9.4942                                         !
 ! D252  D(90,94,95,101)      -171.5513                                         !
 ! D253  D(97,94,95,96)       -179.3381                                         !
 ! D254  D(97,94,95,101)        -0.3837                                         !
 ! D255  D(90,94,97,98)         -2.4212                                         !
 ! D256  D(90,94,97,99)        170.4001                                         !
 ! D257  D(95,94,97,98)       -174.1602                                         !
 ! D258  D(95,94,97,99)         -1.3389                                         !
 ! D259  D(94,95,101,99)         1.9606                                         !
 ! D260  D(94,95,101,146)      178.8014                                         !
 ! D261  D(96,95,101,99)      -178.9789                                         !
 ! D262  D(96,95,101,146)       -2.1381                                         !
 ! D263  D(94,97,99,100)      -174.6596                                         !
 ! D264  D(94,97,99,101)         2.578                                          !
 ! D265  D(98,97,99,100)        -0.7431                                         !
 ! D266  D(98,97,99,101)       176.4946                                         !
 ! D267  D(97,99,101,95)        -2.7827                                         !
 ! D268  D(97,99,101,146)     -179.637                                          !
 ! D269  D(100,99,101,95)      174.3104                                         !
 ! D270  D(100,99,101,146)      -2.5439                                         !
 ! D271  D(89,102,104,105)      35.5207                                         !
 ! D272  D(89,102,104,106)     -76.6224                                         !
 ! D273  D(89,102,104,107)     154.3423                                         !
 ! D274  D(103,102,104,105)   -148.7139                                         !
 ! D275  D(103,102,104,106)     99.143                                          !
 ! D276  D(103,102,104,107)    -29.8924                                         !
 ! D277  D(102,104,106,110)      8.7847                                         !
 ! D278  D(102,104,106,121)   -176.6834                                         !
 ! D279  D(105,104,106,110)   -106.2988                                         !
 ! D280  D(105,104,106,121)     68.2331                                         !
 ! D281  D(107,104,106,110)    134.4899                                         !
 ! D282  D(107,104,106,121)    -50.9781                                         !
 ! D283  D(102,104,107,108)     68.5406                                         !
 ! D284  D(102,104,107,109)   -174.7817                                         !
 ! D285  D(102,104,107,111)    -55.2069                                         !
 ! D286  D(105,104,107,108)   -173.345                                          !
 ! D287  D(105,104,107,109)    -56.6673                                         !
 ! D288  D(105,104,107,111)     62.9075                                         !
 ! D289  D(106,104,107,108)    -57.3234                                         !
 ! D290  D(106,104,107,109)     59.3543                                         !
 ! D291  D(106,104,107,111)    178.9291                                         !
 ! D292  D(104,106,121,122)     29.1953                                         !
 ! D293  D(104,106,121,123)    177.4458                                         !
 ! D294  D(110,106,121,122)   -156.296                                          !
 ! D295  D(110,106,121,123)     -8.0454                                         !
 ! D296  D(104,107,111,112)     59.9898                                         !
 ! D297  D(104,107,111,113)    177.8579                                         !
 ! D298  D(104,107,111,117)    -59.6524                                         !
 ! D299  D(108,107,111,112)    -62.3915                                         !
 ! D300  D(108,107,111,113)     55.4766                                         !
 ! D301  D(108,107,111,117)    177.9662                                         !
 ! D302  D(109,107,111,112)   -179.3815                                         !
 ! D303  D(109,107,111,113)    -61.5134                                         !
 ! D304  D(109,107,111,117)     60.9763                                         !
 ! D305  D(107,111,113,114)     60.2399                                         !
 ! D306  D(107,111,113,115)    179.2793                                         !
 ! D307  D(107,111,113,116)    -60.1709                                         !
 ! D308  D(112,111,113,114)    178.6297                                         !
 ! D309  D(112,111,113,115)    -62.3309                                         !
 ! D310  D(112,111,113,116)     58.2189                                         !
 ! D311  D(117,111,113,114)    -62.779                                          !
 ! D312  D(117,111,113,115)     56.2604                                         !
 ! D313  D(117,111,113,116)    176.8102                                         !
 ! D314  D(107,111,117,118)    -68.441                                          !
 ! D315  D(107,111,117,119)    170.9804                                         !
 ! D316  D(107,111,117,120)     50.8077                                         !
 ! D317  D(112,111,117,118)    172.0198                                         !
 ! D318  D(112,111,117,119)     51.4413                                         !
 ! D319  D(112,111,117,120)    -68.7314                                         !
 ! D320  D(113,111,117,118)     54.0558                                         !
 ! D321  D(113,111,117,119)    -66.5227                                         !
 ! D322  D(113,111,117,120)    173.3046                                         !
 ! D323  D(106,121,123,124)    -18.8157                                         !
 ! D324  D(106,121,123,125)   -138.9845                                         !
 ! D325  D(106,121,123,126)    103.8522                                         !
 ! D326  D(122,121,123,124)    133.2828                                         !
 ! D327  D(122,121,123,125)     13.1141                                         !
 ! D328  D(122,121,123,126)   -104.0492                                         !
 ! D329  D(121,123,125,129)    172.2725                                         !
 ! D330  D(121,123,125,145)     -9.8134                                         !
 ! D331  D(124,123,125,129)     51.9687                                         !
 ! D332  D(124,123,125,145)   -130.1172                                         !
 ! D333  D(126,123,125,129)    -67.8544                                         !
 ! D334  D(126,123,125,145)    110.0597                                         !
 ! D335  D(121,123,126,127)    166.65                                           !
 ! D336  D(121,123,126,128)     51.5076                                         !
 ! D337  D(121,123,126,130)    -70.3379                                         !
 ! D338  D(124,123,126,127)    -70.5585                                         !
 ! D339  D(124,123,126,128)    174.2991                                         !
 ! D340  D(124,123,126,130)     52.4536                                         !
 ! D341  D(125,123,126,127)     49.2658                                         !
 ! D342  D(125,123,126,128)    -65.8766                                         !
 ! D343  D(125,123,126,130)    172.2779                                         !
 ! D344  D(123,126,130,131)    -62.3759                                         !
 ! D345  D(123,126,130,132)     53.9507                                         !
 ! D346  D(123,126,130,133)    175.1946                                         !
 ! D347  D(127,126,130,131)     58.0483                                         !
 ! D348  D(127,126,130,132)    174.3749                                         !
 ! D349  D(127,126,130,133)    -64.3812                                         !
 ! D350  D(128,126,130,131)    176.3745                                         !
 ! D351  D(128,126,130,132)    -67.2989                                         !
 ! D352  D(128,126,130,133)     53.945                                          !
 ! D353  D(126,130,133,134)   -175.1106                                         !
 ! D354  D(126,130,133,135)    -55.469                                          !
 ! D355  D(126,130,133,136)     62.678                                          !
 ! D356  D(131,130,133,134)     62.2861                                         !
 ! D357  D(131,130,133,135)   -178.0723                                         !
 ! D358  D(131,130,133,136)    -59.9253                                         !
 ! D359  D(132,130,133,134)    -52.4618                                         !
 ! D360  D(132,130,133,135)     67.1798                                         !
 ! D361  D(132,130,133,136)   -174.6732                                         !
 ! D362  D(130,133,136,137)     35.8547                                         !
 ! D363  D(130,133,136,144)   -173.5409                                         !
 ! D364  D(134,133,136,137)    -87.1622                                         !
 ! D365  D(134,133,136,144)     63.4422                                         !
 ! D366  D(135,133,136,137)    154.7783                                         !
 ! D367  D(135,133,136,144)    -54.6173                                         !
 ! D368  D(133,136,144,138)     12.7812                                         !
 ! D369  D(133,136,144,141)   -169.1317                                         !
 ! D370  D(137,136,144,138)    163.113                                          !
 ! D371  D(137,136,144,141)    -18.7999                                         !
 ! D372  D(139,138,144,136)   -164.7228                                         !
 ! D373  D(139,138,144,141)     17.1732                                         !
 ! D374  D(140,138,144,136)    -17.5418                                         !
 ! D375  D(140,138,144,141)    164.3541                                         !
 ! D376  D(142,141,144,136)   -158.0843                                         !
 ! D377  D(142,141,144,138)     20.0407                                         !
 ! D378  D(143,141,144,136)    -20.55                                           !
 ! D379  D(143,141,144,138)    157.575                                          !
 --------------------------------------------------------------------------------
 Symmetry turned off by external request.
 Stoichiometry    C43H75N14O14(1+)
 Framework group  C1[X(C43H75N14O14)]
 Deg. of freedom   432
 Full point group                 C1      NOp   1
                          Input orientation:                          
 ---------------------------------------------------------------------
 Center     Atomic      Atomic             Coordinates (Angstroms)
 Number     Number       Type             X           Y           Z
 ---------------------------------------------------------------------
      1          7           0       -8.793173    0.028515  -10.549211
      2          1           0       -7.971552    0.338511  -11.084699
      3          1           0       -8.899496   -1.003128  -10.628194
      4          1           0       -9.635878    0.458715  -10.962366
      5          6           0       -8.683447    0.318493   -9.058763
      6          1           0       -8.787481    1.396004   -8.893768
      7          6           0       -7.304907   -0.158639   -8.557457
      8          6           0       -9.825322   -0.471046   -8.399585
      9          1           0      -10.793026   -0.078866   -8.734503
     10          1           0       -9.773245   -0.362828   -7.309925
     11          8           0       -7.170362   -1.324365   -8.159244
     12          8           0       -9.756779   -1.817215   -8.826009
     13          1           0       -8.905233   -2.165576   -8.474248
     14          7           0       -6.295701    0.738205   -8.651066
     15          1           0       -6.500842    1.714223   -8.844172
     16          6           0       -4.885725    0.423811   -8.313544
     17          1           0       -4.710733   -0.601710   -8.654037
     18          6           0       -4.664138    0.498254   -6.777100
     19          6           0       -3.966643    1.403506   -9.038638
     20          1           0       -2.925291    1.198963   -8.782350
     21          1           0       -4.182170    2.433258   -8.736246
     22          1           0       -4.085190    1.309338  -10.123778
     23          8           0       -4.154835    1.499363   -6.277603
     24          7           0       -5.067283   -0.581540   -6.066535
     25          1           0       -5.554629   -1.347255   -6.522506
     26          6           0       -4.978081   -0.640140   -4.601767
     27          1           0       -5.115253    0.377688   -4.218385
     28          6           0       -3.578784   -1.157276   -4.180138
     29          6           0       -6.071952   -1.575849   -4.049648
     30          1           0       -5.885171   -1.686830   -2.972462
     31          8           0       -3.441048   -2.299677   -3.716455
     32          6           0       -7.487647   -1.052343   -4.266574
     33          1           0       -7.626757   -0.078425   -3.783676
     34          1           0       -7.700180   -0.947505   -5.336944
     35          1           0       -8.208489   -1.760737   -3.847663
     36          8           0       -5.976058   -2.840561   -4.695690
     37          1           0       -5.110787   -3.198442   -4.399500
     38          7           0       -2.561830   -0.296195   -4.404115
     39          1           0       -2.768227    0.638219   -4.752870
     40          6           0       -1.182718   -0.545658   -3.992424
     41          1           0       -1.187814   -1.431199   -3.349757
     42          6           0       -0.711977    0.689349   -3.210236
     43          6           0       -0.256131   -0.825716   -5.214767
[...]
 Alpha virt. eigenvalues --    1.73135   1.73348   1.73719   1.74102   1.74383
 Alpha virt. eigenvalues --    1.74609   1.75215   1.75428   1.76107   1.76310
 Alpha virt. eigenvalues --    1.76700   1.76770   1.76866   1.77684   1.77792
 Alpha virt. eigenvalues --    1.78663   1.78894   1.79178   1.79488   1.79888
 Alpha virt. eigenvalues --    1.80098   1.80301   1.81049   1.81101   1.81302
 Alpha virt. eigenvalues --    1.81817   1.81990   1.82559   1.82713   1.83305
 Alpha virt. eigenvalues --    1.83860   1.83893   1.84101   1.84474   1.84731
 Alpha virt. eigenvalues --    1.85086   1.85355   1.85589   1.85887   1.86146
 Alpha virt. eigenvalues --    1.86504   1.86790   1.86968   1.87194   1.87594
 Alpha virt. eigenvalues --    1.88023   1.88271   1.88650   1.88803   1.88949
 Alpha virt. eigenvalues --    1.88969   1.89487   1.89618   1.89972   1.90191
 Alpha virt. eigenvalues --    1.90522   1.90756   1.91126   1.91722   1.91814
 Alpha virt. eigenvalues --    1.92137   1.92298   1.92625   1.92807   1.93068
 Alpha virt. eigenvalues --    1.93616   1.93692   1.93755   1.94040   1.94085
 Alpha virt. eigenvalues --    1.94761   1.95075   1.95573   1.95801   1.95900
 Alpha virt. eigenvalues --    1.95964   1.96381   1.96750   1.97109   1.97301
 Alpha virt. eigenvalues --    1.97556   1.97815   1.98486   1.98818   1.99072
 Alpha virt. eigenvalues --    1.99359   1.99486   1.99604   2.00086   2.00568
 Alpha virt. eigenvalues --    2.00833   2.01146   2.01558   2.01757   2.02184
 Alpha virt. eigenvalues --    2.02727   2.02905   2.03041   2.03459   2.03614
 Alpha virt. eigenvalues --    2.04574   2.04654   2.04797   2.05285   2.05831
 Alpha virt. eigenvalues --    2.05890   2.06069   2.06357   2.06633   2.06637
 Alpha virt. eigenvalues --    2.07011   2.07236   2.07431   2.07619   2.08768
 Alpha virt. eigenvalues --    2.08952   2.09228   2.09638   2.09982   2.10430
 Alpha virt. eigenvalues --    2.10909   2.11024   2.11468   2.11988   2.12085
 Alpha virt. eigenvalues --    2.12308   2.12638   2.12949   2.13137   2.13343
 Alpha virt. eigenvalues --    2.14074   2.14335   2.14905   2.15218   2.15597
 Alpha virt. eigenvalues --    2.16040   2.16111   2.16469   2.17143   2.17947
 Alpha virt. eigenvalues --    2.18035   2.18657   2.19048   2.19199   2.20412
 Alpha virt. eigenvalues --    2.20853   2.21111   2.21386   2.22011   2.22377
 Alpha virt. eigenvalues --    2.22581   2.22821   2.22955   2.23144   2.23479
 Alpha virt. eigenvalues --    2.23878   2.23981   2.24683   2.25012   2.25946
 Alpha virt. eigenvalues --    2.26480   2.26683   2.27286   2.27571   2.28308
 Alpha virt. eigenvalues --    2.29348   2.29517   2.30174   2.30641   2.31115
 Alpha virt. eigenvalues --    2.31528   2.32162   2.32407   2.32773   2.33311
 Alpha virt. eigenvalues --    2.33679   2.33880   2.34181   2.35185   2.35772
 Alpha virt. eigenvalues --    2.36061   2.36287   2.36671   2.37098   2.37212
 Alpha virt. eigenvalues --    2.37514   2.38249   2.38714   2.38994   2.39581
 Alpha virt. eigenvalues --    2.40346   2.41344   2.42028   2.42095   2.43179
 Alpha virt. eigenvalues --    2.43240   2.43531   2.43776   2.43958   2.44962
 Alpha virt. eigenvalues --    2.45503   2.45627   2.46138   2.46465   2.47511
 Alpha virt. eigenvalues --    2.47798   2.48130   2.48512   2.48959   2.49165
 Alpha virt. eigenvalues --    2.49543   2.49794   2.50310   2.51037   2.51491
 Alpha virt. eigenvalues --    2.51889   2.52119   2.52598   2.52972   2.53373
 Alpha virt. eigenvalues --    2.53715   2.53742   2.54671   2.55522   2.55781
 Alpha virt. eigenvalues --    2.56251   2.56923   2.57588   2.58060   2.58451
 Alpha virt. eigenvalues --    2.59573   2.59951   2.60444   2.61528   2.62018
 Alpha virt. eigenvalues --    2.63162   2.63528   2.64300   2.64753   2.65750
 Alpha virt. eigenvalues --    2.65943   2.66306   2.66798   2.68315   2.68755
 Alpha virt. eigenvalues --    2.70005   2.70025   2.70379   2.70614   2.71002
 Alpha virt. eigenvalues --    2.71946   2.72998   2.73269   2.74106   2.74548
 Alpha virt. eigenvalues --    2.74819   2.75876   2.77135   2.77625   2.79288
 Alpha virt. eigenvalues --    2.79540   2.79819   2.81005   2.81888   2.82410
 Alpha virt. eigenvalues --    2.82656   2.83391   2.85927   2.87219   2.87245
 Alpha virt. eigenvalues --    2.88631   2.89069   2.89737   2.90457   2.90781
 Alpha virt. eigenvalues --    2.92309   2.92864   2.93601   2.93804   2.94774
 Alpha virt. eigenvalues --    2.95681   2.96661   2.96917   2.97890   2.98472
 Alpha virt. eigenvalues --    2.99145   2.99422   3.00250   3.00471   3.00660
 Alpha virt. eigenvalues --    3.02292   3.02619   3.04908   3.05881   3.07579
 Alpha virt. eigenvalues --    3.08763   3.11384   3.11674   3.13582   3.14476
 Alpha virt. eigenvalues --    3.14575   3.20513   3.21544   3.58225   3.64801
 Alpha virt. eigenvalues --    3.67074   3.71579   3.76698   3.80050   3.86109
 Alpha virt. eigenvalues --    3.86705   3.92237   3.93898   3.95028   3.96470
 Alpha virt. eigenvalues --    4.00134   4.00507   4.01615   4.01782   4.03927
 Alpha virt. eigenvalues --    4.04590   4.05785   4.06477   4.06743   4.10531
 Alpha virt. eigenvalues --    4.10625   4.11183   4.13553   4.14045   4.14668
 Alpha virt. eigenvalues --    4.15202   4.15548   4.17135   4.19249   4.20085
 Alpha virt. eigenvalues --    4.20728   4.23014   4.23805   4.24104   4.24481
 Alpha virt. eigenvalues --    4.25612   4.26305   4.27110   4.29063   4.29494
 Alpha virt. eigenvalues --    4.31190   4.33080   4.34376   4.34597   4.35004
 Alpha virt. eigenvalues --    4.36207   4.37787   4.39233   4.40170   4.41637
 Alpha virt. eigenvalues --    4.43248   4.44038   4.46304   4.46590   4.47388
 Alpha virt. eigenvalues --    4.48013   4.48972   4.51286   4.51611   4.53254
 Alpha virt. eigenvalues --    4.54262   4.58828   4.59967   4.64136   4.66200
 Alpha virt. eigenvalues --    4.68313   4.69604   4.71531   4.74174
          Condensed to atoms (all electrons):
 Mulliken charges:
               1
     1  N   -0.711577
     2  H    0.414503
     3  H    0.426661
     4  H    0.413439
     5  C   -0.165373
     6  H    0.212229
     7  C    0.629262
     8  C   -0.045987
     9  H    0.181787
    10  H    0.210311
    11  O   -0.520745
    12  O   -0.620412
    13  H    0.445854
    14  N   -0.596000
    15  H    0.347932
    16  C   -0.070112
    17  H    0.193048
    18  C    0.629401
    19  C   -0.466626
    20  H    0.207560
    21  H    0.183132
    22  H    0.147513
    23  O   -0.514789
    24  N   -0.610957
    25  H    0.370815
    26  C   -0.074383
    27  H    0.179988
    28  C    0.636657
    29  C    0.115232
    30  H    0.153328
    31  O   -0.550782
    32  C   -0.457034
    33  H    0.147718
    34  H    0.122323
    35  H    0.174360
    36  O   -0.653172
    37  H    0.423069
    38  N   -0.615502
    39  H    0.376401
    40  C   -0.057559
    41  H    0.171792
    42  C    0.613599
    43  C   -0.068299
    44  H    0.135163
    45  O   -0.539875
    46  C   -0.468835
    47  H    0.157682
    48  H    0.170279
    49  H    0.154871
    50  C   -0.445916
    51  H    0.156103
    52  H    0.136528
    53  H    0.145107
    54  N   -0.597752
    55  H    0.350178
    56  C   -0.077133
    57  H    0.178405
    58  C    0.617821
    59  C   -0.061335
    60  H    0.122602
    61  O   -0.552404
    62  C   -0.252708
    63  H    0.123453
    64  H    0.138738
    65  C   -0.487583
    66  H    0.150608
    67  H    0.175253
    68  H    0.139182
    69  C   -0.466993
    70  H    0.136695
    71  H    0.141706
    72  H    0.181621
    73  N   -0.597826
    74  H    0.338703
    75  C   -0.039700
    76  H    0.179837
    77  C    0.654991
    78  C   -0.381979
    79  H    0.148861
    80  H    0.145384
    81  O   -0.572336
    82  C    0.598947
    83  O   -0.585177
    84  O   -0.629242
    85  N   -0.581252
    86  H    0.363942
    87  C   -0.057186
    88  H    0.167302
    89  C    0.622431
    90  C   -0.357932
    91  H    0.216219
    92  H    0.175206
    93  O   -0.548287
    94  C    0.333915
    95  C   -0.020352
    96  H    0.208250
    97  N   -0.610590
    98  H    0.462635
    99  C    0.294795
   100  H    0.251058
   101  N   -0.550718
   102  N   -0.592943
   103  H    0.355266
   104  C   -0.054708
   105  H    0.202358
   106  C    0.630201
   107  C   -0.304685
   108  H    0.138821
   109  H    0.167199
   110  O   -0.634205
   111  C   -0.076869
   112  H    0.148164
   113  C   -0.447390
   114  H    0.139396
   115  H    0.166679
   116  H    0.129151
   117  C   -0.469892
   118  H    0.117142
   119  H    0.211617
   120  H    0.150303
   121  N   -0.593027
   122  H    0.374185
   123  C   -0.067252
   124  H    0.132998
   125  C    0.581697
   126  C   -0.254632
   127  H    0.150975
   128  H    0.141780
   129  O   -0.605184
   130  C   -0.310577
   131  H    0.135144
   132  H    0.196993
   133  C   -0.176018
   134  H    0.175127
   135  H    0.191181
   136  N   -0.562594
   137  H    0.370972
   138  N   -0.733362
   139  H    0.381632
   140  H    0.393271
   141  N   -0.739859
   142  H    0.378171
   143  H    0.386486
   144  C    0.777941
   145  O   -0.601839
   146  H    0.380221
 Sum of Mulliken charges =   1.00000
 Mulliken charges with hydrogens summed into heavy atoms:
               1
     1  N    0.543025
     5  C    0.046856
     7  C    0.629262
     8  C    0.346111
    11  O   -0.520745
    12  O   -0.174559
    14  N   -0.248068
    16  C    0.122936
    18  C    0.629401
    19  C    0.071579
    23  O   -0.514789
    24  N   -0.240141
    26  C    0.105605
    28  C    0.636657
    29  C    0.268560
    31  O   -0.550782
    32  C   -0.012634
    36  O   -0.230102
    38  N   -0.239102
    40  C    0.114233
    42  C    0.613599
    43  C    0.066863
    45  O   -0.539875
    46  C    0.013997
    50  C   -0.008177
    54  N   -0.247574
    56  C    0.101273
    58  C    0.617821
    59  C    0.061267
    61  O   -0.552404
    62  C    0.009483
    65  C   -0.022540
    69  C   -0.006971
    73  N   -0.259123
    75  C    0.140137
    77  C    0.654991
    78  C   -0.087734
    81  O   -0.572336
    82  C    0.598947
    83  O   -0.585177
    84  O   -0.629242
    85  N   -0.217310
    87  C    0.110115
    89  C    0.622431
    90  C    0.033492
    93  O   -0.548287
    94  C    0.333915
    95  C    0.187898
    97  N   -0.147954
    99  C    0.545853
   101  N   -0.170497
   102  N   -0.237677
   104  C    0.147651
   106  C    0.630201
   107  C    0.001335
   110  O   -0.634205
   111  C    0.071295
   113  C   -0.012164
   117  C    0.009170
   121  N   -0.218842
   123  C    0.065745
   125  C    0.581697
   126  C    0.038122
   129  O   -0.605184
   130  C    0.021560
   133  C    0.190290
   136  N   -0.191622
   138  N    0.041541
   141  N    0.024798
   144  C    0.777941
   145  O   -0.601839
 Electronic spatial extent (au):  <R**2>=         170087.3975
 Charge=              1.0000 electrons
 Dipole moment (field-independent basis, Debye):
    X=            -21.1498    Y=            -15.4277    Z=             -3.3057  Tot=             26.3866
 Quadrupole moment (field-independent basis, Debye-Ang):
   XX=            132.0967   YY=           -510.2393   ZZ=            303.4891
   XY=           -263.9992   XZ=            726.4674   YZ=           -135.7431
 Traceless Quadrupole moment (field-independent basis, Debye-Ang):
   XX=            156.9812   YY=           -485.3548   ZZ=            328.3736
   XY=           -263.9992   XZ=            726.4674   YZ=           -135.7431
 Octapole moment (field-independent basis, Debye-Ang**2):
  XXX=          -1074.7565  YYY=          -1690.2198  ZZZ=          -1276.9241  XYY=          -2034.0114
  XXY=          -2902.5090  XXZ=           2126.7961  XZZ=          -1587.0697  YZZ=          -1000.9903
  YYZ=           -271.7904  XYZ=          -1113.6095
 Hexadecapole moment (field-independent basis, Debye-Ang**3):
 XXXX=         -22398.2874 YYYY=         -14551.1271 ZZZZ=           5323.5488 XXXY=         -48475.2262
 XXXZ=          59070.6353 YYYX=         -17058.6806 YYYZ=          -7272.9205 ZZZX=          36153.6967
 ZZZY=         -12447.5017 XXYY=         -34710.3203 XXZZ=          43643.7228 YYZZ=         -17931.9558
 XXYZ=         -22177.3773 YYXZ=         -18732.5212 ZZXY=         -17503.9890
 N-N= 1.125419755851D+04 E-N=-3.064904083067D+04  KE= 3.470574680511D+03
 Unable to Open any file for archive entry.
 1\1\GINC-LAC-317\SP\RB3LYP\6-31G(d)\C43H75N14O14(1+)\KENGMITH\19-Jun-2
 022\0\\# B3LYP/6-31G* guess=read geom=check nosymm integral(ultrafineg
 rid)\\Candidate Structure: Conf:981 Charge calc in gas phase\\1,1\N,0,
 -8.793172514,0.028514982,-10.5492113615\H,0,-7.9715523175,0.3385109754
 ,-11.0846986717\H,0,-8.899495642,-1.0031277528,-10.6281943182\H,0,-9.6
 358775535,0.4587147599,-10.9623657405\C,0,-8.6834466846,0.3184931397,-
 9.058762785\H,0,-8.7874812223,1.3960038352,-8.8937679146\C,0,-7.304907
 3884,-0.1586385866,-8.5574571672\C,0,-9.8253218939,-0.4710464968,-8.39
 95853633\H,0,-10.7930255167,-0.0788661256,-8.7345034368\H,0,-9.7732453
 039,-0.3628283507,-7.3099246801\O,0,-7.1703615406,-1.3243654984,-8.159
 2438423\O,0,-9.7567787923,-1.8172148248,-8.8260094825\H,0,-8.905233294
 6,-2.1655759658,-8.4742477498\N,0,-6.2957014399,0.738204896,-8.6510660
 749\H,0,-6.50084212,1.7142234573,-8.8441716939\C,0,-4.8857251111,0.423
 8111785,-8.313544185\H,0,-4.7107328348,-0.6017104854,-8.6540368348\C,0
 ,-4.664137799,0.4982541313,-6.7770998254\C,0,-3.9666427562,1.403506369
 ,-9.0386378151\H,0,-2.9252906902,1.1989633542,-8.7823495465\H,0,-4.182
 1699288,2.4332583918,-8.7362464912\H,0,-4.0851903934,1.3093380988,-10.
 1237780085\O,0,-4.154835134,1.4993628782,-6.2776034788\N,0,-5.06728287
 56,-0.5815400988,-6.066535111\H,0,-5.5546287061,-1.3472553009,-6.52250
 575\C,0,-4.9780808779,-0.6401395015,-4.6017673315\H,0,-5.1152526793,0.
 3776883347,-4.2183847584\C,0,-3.5787843454,-1.1572756097,-4.1801375405
 \C,0,-6.0719522307,-1.5758486698,-4.0496476608\H,0,-5.885170889,-1.686
 8303923,-2.9724620218\O,0,-3.4410478326,-2.2996769046,-3.7164546981\C,
 0,-7.4876465688,-1.0523427711,-4.2665738624\H,0,-7.626756508,-0.078425
 2015,-3.783675882\H,0,-7.7001799973,-0.9475054192,-5.33694449\H,0,-8.2
 084892611,-1.7607369336,-3.8476632333\O,0,-5.9760576039,-2.8405609875,
 -4.6956897108\H,0,-5.1107871173,-3.1984423483,-4.3995004464\N,0,-2.561
 8302784,-0.2961952171,-4.4041153463\H,0,-2.7682269353,0.6382190005,-4.
 7528700287\C,0,-1.1827179802,-0.5456578499,-3.9924236433\H,0,-1.187814
 1975,-1.4311994985,-3.3497565535\C,0,-0.7119771158,0.689348998,-3.2102
 359502\C,0,-0.2561308663,-0.8257161677,-5.2147674481\H,0,-0.4013210039
 ,0.0134815367,-5.9113488121\O,0,-0.9616607746,1.8185912613,-3.63887096
 95\C,0,1.2303546718,-0.875811168,-4.8238776571\H,0,1.4184398156,-1.635
 4428505,-4.0552925083\H,0,1.5938724144,0.0827236022,-4.4434800579\H,0,
 1.8370865925,-1.1346816372,-5.6985105275\C,0,-0.6698489486,-2.13448488
 99,-5.9063210381\H,0,-0.4842047317,-2.991895682,-5.2482012351\H,0,-1.7
 329509143,-2.1425661533,-6.169232063\H,0,-0.0880206954,-2.2827663334,-
 6.8236974656\N,0,-0.0099428666,0.4376933347,-2.0717051663\H,0,0.313277
 2336,-0.5133186765,-1.9072537837\C,0,0.8511781766,1.4403813198,-1.4441
 067699\H,0,0.8153708645,2.3384693829,-2.067415982\C,0,2.2700397684,0.8
 278756868,-1.4583791375\C,0,0.3684532473,1.7995481443,-0.0064972057\H,
 0,0.369625965,0.8555117635,0.5597068225\O,0,2.4027221507,-0.396726099,
 -1.3287458229\C,0,-1.0911590141,2.3200542418,-0.001545196\H,0,-1.39917
 88164,2.4001642307,1.0512147469\H,0,-1.7401128332,1.5600490029,-0.4536
 739814\C,0,1.3096212564,2.7906346142,0.6989416746\H,0,1.4873320572,3.6
 857652754,0.0905995447\H,0,2.2861985003,2.3642640862,0.9368167571\H,0,
 0.8584714573,3.1265851684,1.6407556387\C,0,-1.335713518,3.6684957785,-
 0.6949770099\H,0,-2.3965732201,3.9390892625,-0.6337674924\H,0,-0.76461
 79628,4.4775058436,-0.224896622\H,0,-1.069182404,3.6296355956,-1.75563
 17394\N,0,3.3024051369,1.6906133355,-1.6667833745\H,0,3.1022095913,2.6
 730103916,-1.5079422418\C,0,4.7115842338,1.3171843886,-1.4300676675\H,
 0,4.817117676,0.2605089192,-1.6714362402\C,0,5.0095673149,1.5372851206
 ,0.0598712893\C,0,5.6497332723,2.1078316847,-2.3341858585\H,0,5.328988
 71,1.9884028321,-3.3759073196\H,0,5.6318511194,3.1777728727,-2.0952790
 908\O,0,4.846794732,2.6345646681,0.5806817993\C,0,7.1168325705,1.57322
 73741,-2.2075950963\O,0,7.9497832489,2.1541009438,-2.9529911133\O,0,7.
 3037501278,0.6244890646,-1.3830451281\N,0,5.3611628195,0.4438333656,0.
 7922149468\H,0,5.7823252567,-0.3257646138,0.2818479391\C,0,5.615509280
 9,0.623834884,2.2112821627\H,0,4.9793173999,1.4715328751,2.4792640772\
 C,0,7.1095892599,0.9308913682,2.5164422367\C,0,5.2272487635,-0.6106580
 776,3.0443896152\H,0,6.0211586416,-1.3581991106,2.9438127407\H,0,4.287
 4714521,-1.0456558657,2.6885574746\O,0,7.8983210598,0.0110231979,2.776
 2787204\C,0,4.9933771947,-0.1881004614,4.4623047295\C,0,3.876669854,-0
 .3349313572,5.2440705989\H,0,2.9725145383,-0.8967470557,5.0745501923\N
 ,0,5.8436252477,0.6333962417,5.1880006034\H,0,6.7606683721,1.065615218
 8,4.9415786152\C,0,5.2774070475,0.9971385498,6.3327442288\H,0,5.711964
 4326,1.7015784103,7.0269883458\N,0,4.0902697729,0.3886207912,6.4095090
 615\N,0,7.4421840015,2.2405729489,2.5346269721\H,0,6.7084450528,2.9078
 448097,2.3186195071\C,0,8.7584520646,2.739555367,2.9293054835\H,0,9.50
 70076181,2.0210151182,2.5859028471\C,0,8.9069830593,2.6996263066,4.472
 0462225\C,0,9.0265120235,4.1064027038,2.25938102\H,0,8.3462106025,4.85
 17920935,2.6992000789\H,0,10.0506596616,4.4258151606,2.4871610844\O,0,
 8.0563829805,2.1370418167,5.2174909198\C,0,8.8858794519,4.0667979816,0
 .7158902861\H,0,7.8625020915,3.7594553175,0.464986777\C,0,9.1129176952
 ,5.4660857028,0.1260140855\H,0,10.1187538982,5.8340869609,0.3695676657
 \H,0,9.024853643,5.4286966579,-0.9656624896\H,0,8.3864235358,6.1961240
 197,0.5083806144\C,0,9.8717537427,3.0615289197,0.0949053326\H,0,10.899
 5128476,3.4370639071,0.2179604888\H,0,9.6767861789,2.9068352834,-0.970
 3642672\H,0,9.8256829484,2.076639041,0.5689278492\N,0,10.0528967695,3.
 2017929863,4.9375679418\H,0,10.5622817191,3.9528950989,4.4324230704\C,
 0,10.411981044,3.3282299337,6.3471077065\H,0,9.5180091794,3.2744868436
 ,6.9734779603\C,0,11.126726433,4.7320223923,6.5344503806\C,0,11.416842
 257,2.2486266572,6.7672516946\H,0,11.8080927703,2.5596331552,7.7436064
 113\H,0,12.2519752395,2.2678406809,6.0521755017\O,0,11.3515560932,5.03
 50496541,7.7302638019\C,0,10.8485030109,0.8241824545,6.83322836\H,0,10
 .0524905693,0.7710590414,7.593091629\H,0,10.3696442616,0.5525986704,5.
 8865771137\C,0,11.9261114357,-0.2158375194,7.1425195691\H,0,11.5227056
 196,-1.2389307933,7.1015666732\H,0,12.7308470784,-0.1336086503,6.40241
 33592\N,0,12.5049501526,0.0509287861,8.4793975802\H,0,11.8332112362,0.
 3955569341,9.1604860256\N,0,14.3206648632,-1.3822415115,8.224460811\H,
 0,14.9511499529,-2.0354992892,8.6730791893\H,0,13.9539772656,-1.688882
 8701,7.3317651712\N,0,13.8653408819,-0.4355330533,10.3011710105\H,0,14
 .8187531363,-0.649328412,10.5737169426\H,0,13.5069465145,0.3975595445,
 10.7558937083\C,0,13.5470075607,-0.5956241692,8.992463737\O,0,11.40252
 78106,5.32078843,5.4498412253\H,0,3.4348161002,0.4836162985,7.17078973
 44\\Version=ES64L-G16RevC.01\HF=-3503.2249608\RMSD=1.675e-09\Dipole=-1
 3.5574437,-7.8374912,-0.426023\Quadrupole=116.7116765,-360.8493829,244
 .1377064,-196.27692,540.1107068,-100.9216573\PG=C01 [X(C43H75N14O14)]\
 \@
 The archive entry for this job was punched.


 FLOATING POINT NUMBERS ARE LIKE SANDPILES:
 EVERY TIME THAT YOU MOVE ONE, YOU LOSE A LITTLE SAND 
 AND YOU PICK UP A LITTLE DIRT.
 Job cpu time:       0 days  0 hours 11 minutes 17.3 seconds.
 Elapsed time:       0 days  0 hours  2 minutes 51.1 seconds.
 File lengths (MBytes):  RWF=    880 Int=      0 D2E=      0 Chk=    144 Scr=     16
 Normal termination of Gaussian 16 at Sun Jun 19 12:01:08 2022.
