 Entering Gaussian System, Link 0=/opt/software/Gaussian/g16-AVX2-C.01/g16/g16
 Input=charge-conf-472.com
 Output=charge-conf-472.log
 Initial command:
 /opt/software/Gaussian/g16-AVX2-C.01/g16/l1.exe "/mnt/gs18/scratch/users/kengmith/Gau-22960.inp" -scrdir="/mnt/gs18/scratch/users/kengmith/"
 Entering Link 1 = /opt/software/Gaussian/g16-AVX2-C.01/g16/l1.exe PID=     22970.
  
 Copyright (c) 1988-2019, Gaussian, Inc.  All Rights Reserved.
  
 This is part of the Gaussian(R) 16 program.  It is based on
 the Gaussian(R) 09 system (copyright 2009, Gaussian, Inc.),
 the Gaussian(R) 03 system (copyright 2003, Gaussian, Inc.),
 the Gaussian(R) 98 system (copyright 1998, Gaussian, Inc.),
 the Gaussian(R) 94 system (copyright 1995, Gaussian, Inc.),
 the Gaussian 92(TM) system (copyright 1992, Gaussian, Inc.),
 the Gaussian 90(TM) system (copyright 1990, Gaussian, Inc.),
 the Gaussian 88(TM) system (copyright 1988, Gaussian, Inc.),
 the Gaussian 86(TM) system (copyright 1986, Carnegie Mellon
 University), and the Gaussian 82(TM) system (copyright 1983,
 Carnegie Mellon University). Gaussian is a federally registered
 trademark of Gaussian, Inc.
  
 This software contains proprietary and confidential information,
 including trade secrets, belonging to Gaussian, Inc.
  
 This software is provided under written license and may be
 used, copied, transmitted, or stored only in accord with that
 written license.
  
 The following legend is applicable only to US Government
 contracts under FAR:
  
                    RESTRICTED RIGHTS LEGEND
  
 Use, reproduction and disclosure by the US Government is
 subject to restrictions as set forth in subparagraphs (a)
 and (c) of the Commercial Computer Software - Restricted
 Rights clause in FAR 52.227-19.
  
 Gaussian, Inc.
 340 Quinnipiac St., Bldg. 40, Wallingford CT 06492
  
  
 ---------------------------------------------------------------
 Warning -- This program may not be used in any manner that
 competes with the business of Gaussian, Inc. or will provide
 assistance to any competitor of Gaussian, Inc.  The licensee
 of this program is prohibited from giving any competitor of
 Gaussian, Inc. access to this program.  By using this program,
 the user acknowledges that Gaussian, Inc. is engaged in the
 business of creating and licensing software in the field of
 computational chemistry and represents and warrants to the
 licensee that it is not a competitor of Gaussian, Inc. and that
 it will not use this program in any manner prohibited above.
 ---------------------------------------------------------------
  

 Cite this work as:
 Gaussian 16, Revision C.01,
 M. J. Frisch, G. W. Trucks, H. B. Schlegel, G. E. Scuseria, 
 M. A. Robb, J. R. Cheeseman, G. Scalmani, V. Barone, 
 G. A. Petersson, H. Nakatsuji, X. Li, M. Caricato, A. V. Marenich, 
 J. Bloino, B. G. Janesko, R. Gomperts, B. Mennucci, H. P. Hratchian, 
 J. V. Ortiz, A. F. Izmaylov, J. L. Sonnenberg, D. Williams-Young, 
 F. Ding, F. Lipparini, F. Egidi, J. Goings, B. Peng, A. Petrone, 
 T. Henderson, D. Ranasinghe, V. G. Zakrzewski, J. Gao, N. Rega, 
 G. Zheng, W. Liang, M. Hada, M. Ehara, K. Toyota, R. Fukuda, 
 J. Hasegawa, M. Ishida, T. Nakajima, Y. Honda, O. Kitao, H. Nakai, 
 T. Vreven, K. Throssell, J. A. Montgomery, Jr., J. E. Peralta, 
 F. Ogliaro, M. J. Bearpark, J. J. Heyd, E. N. Brothers, K. N. Kudin, 
 V. N. Staroverov, T. A. Keith, R. Kobayashi, J. Normand, 
 K. Raghavachari, A. P. Rendell, J. C. Burant, S. S. Iyengar, 
 J. Tomasi, M. Cossi, J. M. Millam, M. Klene, C. Adamo, R. Cammi, 
 J. W. Ochterski, R. L. Martin, K. Morokuma, O. Farkas, 
 J. B. Foresman, and D. J. Fox, Gaussian, Inc., Wallingford CT, 2019.
 
 ******************************************
 Gaussian 16:  ES64L-G16RevC.01  3-Jul-2019
                30-Jun-2022 
 ******************************************
 %mem=8gb
 %nproc=4
 Will use up to    4 processors via shared memory.
 %chk=conf-472.chk
 -------------------------------------------------------------------
 # B3LYP/6-31G* guess=read geom=check nosymm integral(ultrafinegrid)
 -------------------------------------------------------------------
 1/29=2,38=1,172=1/1;
 2/12=2,15=1,40=1/2;
 3/5=1,6=6,7=1,11=2,14=-4,25=1,30=1,74=-5,75=-5,116=-2/1,2,3;
 4/5=1/1;
 5/5=2,38=6/2;
 6/7=2,8=2,9=2,10=2,28=1/1;
 99/5=1,9=1/99;
 ------------------------------------------------------
 Candidate Structure: Conf:472 Charge calc in gas phase
 ------------------------------------------------------
 Structure from the checkpoint file:  "conf-472.chk"
 Charge =  1 Multiplicity = 1
 Redundant internal coordinates found in file.  (old form).
 N,0,-8.3016843888,1.0448323811,5.3536193121
 H,0,-8.2714505509,0.5617419255,6.2561211066
 H,0,-7.7259183629,1.9359462622,5.4279697481
 H,0,-9.2789422805,1.2389336427,5.1212729537
 C,0,-7.5654766319,0.2982189475,4.2536251311
 H,0,-7.4959535169,-0.7538352718,4.5434463202
 C,0,-6.1758286373,1.0018842096,4.2880609656
 C,0,-8.3257107664,0.4393572854,2.9080982883
 H,0,-8.3634008464,1.5122535352,2.6694891489
 O,0,-6.1310128503,2.131894475,4.8040598641
 C,0,-7.5806798784,-0.2838656506,1.7724595598
 H,0,-7.4819943959,-1.3564772385,1.9805832517
 H,0,-6.5843278468,0.1228783099,1.5875864447
 H,0,-8.1527583058,-0.1837919798,0.845683055
 C,0,-9.7633546521,-0.1042336083,3.0120735546
 H,0,-9.768731051,-1.1653351712,3.2878748013
 H,0,-10.4016760838,0.4347547089,3.7260331157
 H,0,-10.259266827,-0.0118361833,2.0416649341
 N,0,-5.1452559547,0.343460452,3.7794371679
 H,0,-5.2406596825,-0.5526467738,3.2917484491
 C,0,-3.7954303502,0.8922244688,3.62767404
 H,0,-3.8758336613,1.9189744491,3.2530560782
 C,0,-3.1474714934,-0.0095410421,2.5465681003
 C,0,-3.0191038244,0.8884664166,4.9536840486
 H,0,-2.0180159261,1.3083108187,4.817096309
 H,0,-3.543105428,1.4996286039,5.6934212079
 H,0,-2.9143004567,-0.1307514726,5.3386717599
 O,0,-3.7577830077,-1.0032424201,2.1347568223
 N,0,-1.9311123885,0.3619746962,2.1288080596
 H,0,-1.4286339119,1.1466424729,2.5416461624
 C,0,-1.1085345408,-0.4191616661,1.2183745599
 H,0,-1.240545376,-1.4857627075,1.4261358113
 C,0,0.3382688648,0.0218590571,1.469411158
 C,0,-1.4923717352,-0.1650984486,-0.2727767313
 H,0,-2.5292468507,-0.4896516173,-0.4036123313
 H,0,-1.4393956467,0.9155975206,-0.4664551165
 O,0,0.5839233739,1.0590719917,2.0863048708
 O,0,-0.685319323,-0.9035962025,-1.1609388645
 H,0,0.1093758867,-0.3622074098,-1.3706893084
 N,0,1.2787462904,-0.7898664122,0.9245734253
 H,0,0.9179738339,-1.4744702206,0.2657066717
 C,0,2.6222037091,-0.2924828902,0.647447804
 H,0,2.972050972,0.2184554273,1.5475796749
 C,0,2.5478044032,0.7211078806,-0.5185607543
 C,0,3.5342124715,-1.4953315188,0.3091757845
 H,0,3.1954134271,-1.9184601272,-0.6473873244
 H,0,3.3441689559,-2.2591289792,1.0752346384
 O,0,1.649273268,0.6609852761,-1.3728865009
 C,0,5.0529153247,-1.2327106925,0.2390841907
 H,0,5.2486122671,-0.4433664397,-0.497665153
 C,0,5.6321827116,-0.7771745487,1.5876112955
 H,0,5.4665526787,-1.5370319023,2.3624907437
 H,0,5.1918342615,0.161334332,1.9456697911
 H,0,6.7110202885,-0.6109602555,1.504191117
 C,0,5.7659127876,-2.5036423876,-0.2490619361
 H,0,5.614514388,-3.3355037203,0.4509983088
 H,0,5.3951885847,-2.8199941666,-1.2310970133
 H,0,6.8443140815,-2.3341194594,-0.3369901866
 N,0,3.5232010449,1.6457162036,-0.551256152
 H,0,4.3004034393,1.5886453542,0.1022023596
 C,0,3.8055873585,2.4992082157,-1.6993677118
 H,0,3.4277399128,1.9997402005,-2.595754851
 C,0,5.3367571856,2.6018106991,-1.814527954
 C,0,3.1768975745,3.910775467,-1.5798647599
 H,0,3.7453201849,4.6083954578,-2.2039163355
 H,0,3.2991642347,4.2467331618,-0.5436600556
 O,0,5.7863585289,3.1398203229,-2.9370387281
 C,0,1.6980251435,3.9718374805,-1.9824958665
 H,0,1.1240487729,3.2231651908,-1.4249787686
 H,0,1.2958023034,4.9555644282,-1.7031250792
 C,0,1.445334764,3.7377142771,-3.4806533054
 H,0,0.3628586295,3.7009413103,-3.6573411397
 H,0,1.8504640774,2.7759817197,-3.8020163825
 N,0,2.0031764819,4.7566332181,-4.3638845988
 H,0,1.5660712963,5.6675396495,-4.3641357023
 N,0,4.0044197801,3.6838788798,-4.9117260389
 H,0,4.6630619543,3.6241535397,-5.6879418802
 H,0,5.0375660209,3.3314009653,-3.5925344921
 N,0,3.2449124807,5.6094068789,-6.0971542342
 H,0,2.4007351559,5.8592676069,-6.5977635956
 H,0,4.0627444256,5.5547897473,-6.6891823928
 C,0,3.1309267467,4.6247416261,-5.1247531994
 O,0,6.0687946635,2.2325658776,-0.9149056611
 Recover connectivity data from disk.
                           ----------------------------
                           !    Current Parameters    !
                           ! (Angstroms and Degrees)  !
 --------------------------                            --------------------------
 ! Name  Definition              Value                                          !
 --------------------------------------------------------------------------------
 ! R1    R(1,2)                  1.0241                                         !
 ! R2    R(1,3)                  1.0635                                         !
 ! R3    R(1,4)                  1.0231                                         !
 ! R4    R(1,5)                  1.5197                                         !
 ! R5    R(5,6)                  1.0935                                         !
 ! R6    R(5,7)                  1.558                                          !
 ! R7    R(5,8)                  1.5519                                         !
 ! R8    R(7,10)                 1.2431                                         !
 ! R9    R(7,19)                 1.3245                                         !
 ! R10   R(8,9)                  1.0998                                         !
 ! R11   R(8,11)                 1.5388                                         !
 ! R12   R(8,15)                 1.5405                                         !
 ! R13   R(11,12)                1.0971                                         !
 ! R14   R(11,13)                1.0919                                         !
 ! R15   R(11,14)                1.0937                                         !
 ! R16   R(15,16)                1.0964                                         !
 ! R17   R(15,17)                1.099                                          !
 ! R18   R(15,18)                1.0937                                         !
 ! R19   R(19,20)                1.0247                                         !
 ! R20   R(19,21)                1.465                                          !
 ! R21   R(21,22)                1.0959                                         !
 ! R22   R(21,23)                1.5498                                         !
 ! R23   R(21,24)                1.5366                                         !
 ! R24   R(23,28)                1.2367                                         !
 ! R25   R(23,29)                1.3387                                         !
 ! R26   R(24,25)                1.0941                                         !
 ! R27   R(24,26)                1.0933                                         !
 ! R28   R(24,27)                1.0945                                         !
 ! R29   R(29,30)                1.0191                                         !
 ! R30   R(29,31)                1.4545                                         !
 ! R31   R(31,32)                1.0946                                         !
 ! R32   R(31,33)                1.5332                                         !
 ! R33   R(31,34)                1.5606                                         !
 ! R34   R(33,37)                1.2315                                         !
 ! R35   R(33,40)                1.3566                                         !
 ! R36   R(34,35)                1.0943                                         !
 ! R37   R(34,36)                1.0992                                         !
 ! R38   R(34,38)                1.4091                                         !
 ! R39   R(38,39)                0.9842                                         !
 ! R40   R(40,41)                1.0163                                         !
 ! R41   R(40,42)                1.4591                                         !
 ! R42   R(42,43)                1.0926                                         !
 ! R43   R(42,44)                1.5468                                         !
 ! R44   R(42,45)                1.5469                                         !
 ! R45   R(44,48)                1.2413                                         !
 ! R46   R(44,59)                1.3444                                         !
 ! R47   R(45,46)                1.0995                                         !
 ! R48   R(45,47)                1.0983                                         !
 ! R49   R(45,49)                1.5428                                         !
 ! R50   R(49,50)                1.0973                                         !
 ! R51   R(49,51)                1.5367                                         !
 ! R52   R(49,55)                1.5369                                         !
 ! R53   R(51,52)                1.0978                                         !
 ! R54   R(51,53)                1.0968                                         !
 ! R55   R(51,54)                1.0947                                         !
 ! R56   R(55,56)                1.0977                                         !
 ! R57   R(55,57)                1.0963                                         !
 ! R58   R(55,58)                1.0952                                         !
 ! R59   R(59,60)                1.017                                          !
 ! R60   R(59,61)                1.4582                                         !
 ! R61   R(61,62)                1.0935                                         !
 ! R62   R(61,63)                1.5389                                         !
 ! R63   R(61,64)                1.5499                                         !
 ! R64   R(63,67)                1.3235                                         !
 ! R65   R(63,83)                1.2172                                         !
 ! R66   R(64,65)                1.0951                                         !
 ! R67   R(64,66)                1.0961                                         !
 ! R68   R(64,68)                1.5339                                         !
 ! R69   R(68,69)                1.0958                                         !
 ! R70   R(68,70)                1.0989                                         !
 ! R71   R(68,71)                1.5373                                         !
 ! R72   R(71,72)                1.0974                                         !
 ! R73   R(71,73)                1.0919                                         !
 ! R74   R(71,74)                1.4593                                         !
 ! R75   R(74,75)                1.0104                                         !
 ! R76   R(74,82)                1.3668                                         !
 ! R77   R(76,77)                1.0197                                         !
 ! R78   R(76,78)                1.7123                                         !
 ! R79   R(76,82)                1.3014                                         !
 ! R80   R(79,80)                1.0128                                         !
 ! R81   R(79,81)                1.0111                                         !
 ! R82   R(79,82)                1.3886                                         !
 ! A1    A(2,1,3)              108.5209                                         !
 ! A2    A(2,1,4)              108.5319                                         !
 ! A3    A(2,1,5)              113.0682                                         !
 ! A4    A(3,1,4)              111.9646                                         !
 ! A5    A(3,1,5)              101.5359                                         !
 ! A6    A(4,1,5)              113.0526                                         !
 ! A7    A(1,5,6)              108.1583                                         !
 ! A8    A(1,5,7)              101.1984                                         !
 ! A9    A(1,5,8)              110.2174                                         !
 ! A10   A(6,5,7)              111.8371                                         !
 ! A11   A(6,5,8)              110.393                                          !
 ! A12   A(7,5,8)              114.521                                          !
 ! A13   A(5,7,10)             116.8655                                         !
 ! A14   A(5,7,19)             117.4512                                         !
 ! A15   A(10,7,19)            125.6799                                         !
 ! A16   A(5,8,9)              107.0755                                         !
 ! A17   A(5,8,11)             111.0974                                         !
 ! A18   A(5,8,15)             111.5037                                         !
 ! A19   A(9,8,11)             108.3603                                         !
 ! A20   A(9,8,15)             109.0814                                         !
 ! A21   A(11,8,15)            109.622                                          !
 ! A22   A(8,11,12)            111.2889                                         !
 ! A23   A(8,11,13)            113.0583                                         !
 ! A24   A(8,11,14)            109.2152                                         !
 ! A25   A(12,11,13)           108.3145                                         !
 ! A26   A(12,11,14)           107.2934                                         !
 ! A27   A(13,11,14)           107.441                                          !
 ! A28   A(8,15,16)            111.2889                                         !
 ! A29   A(8,15,17)            114.3839                                         !
 ! A30   A(8,15,18)            109.4789                                         !
 ! A31   A(16,15,17)           107.9628                                         !
 ! A32   A(16,15,18)           107.6224                                         !
 ! A33   A(17,15,18)           105.7615                                         !
 ! A34   A(7,19,20)            123.029                                          !
 ! A35   A(7,19,21)            124.7842                                         !
 ! A36   A(20,19,21)           111.3503                                         !
 ! A37   A(19,21,22)           108.5878                                         !
 ! A38   A(19,21,23)           103.8592                                         !
 ! A39   A(19,21,24)           112.037                                          !
 ! A40   A(22,21,23)           109.7163                                         !
 ! A41   A(22,21,24)           109.5332                                         !
 ! A42   A(23,21,24)           112.9133                                         !
 ! A43   A(21,23,28)           119.5697                                         !
 ! A44   A(21,23,29)           115.8556                                         !
 ! A45   A(28,23,29)           124.5737                                         !
 ! A46   A(21,24,25)           110.7081                                         !
 ! A47   A(21,24,26)           109.8999                                         !
 ! A48   A(21,24,27)           110.7441                                         !
 ! A49   A(25,24,26)           107.9683                                         !
 ! A50   A(25,24,27)           108.2777                                         !
 ! A51   A(26,24,27)           109.1744                                         !
 ! A52   A(23,29,30)           122.3612                                         !
 ! A53   A(23,29,31)           124.0654                                         !
 ! A54   A(30,29,31)           112.843                                          !
 ! A55   A(29,31,32)           109.6502                                         !
 ! A56   A(29,31,33)           106.0628                                         !
 ! A57   A(29,31,34)           111.8114                                         !
 ! A58   A(32,31,33)           111.2846                                         !
 ! A59   A(32,31,34)           108.0788                                         !
 ! A60   A(33,31,34)           109.9814                                         !
 ! A61   A(31,33,37)           120.8301                                         !
 ! A62   A(31,33,40)           114.6031                                         !
 ! A63   A(37,33,40)           124.5304                                         !
 ! A64   A(31,34,35)           107.3975                                         !
 ! A65   A(31,34,36)           108.4555                                         !
 ! A66   A(31,34,38)           112.0905                                         !
 ! A67   A(35,34,36)           108.4324                                         !
 ! A68   A(35,34,38)           108.1727                                         !
 ! A69   A(36,34,38)           112.1239                                         !
 ! A70   A(34,38,39)           107.969                                          !
 ! A71   A(33,40,41)           114.6664                                         !
 ! A72   A(33,40,42)           120.7059                                         !
 ! A73   A(41,40,42)           115.6785                                         !
 ! A74   A(40,42,43)           107.3232                                         !
 ! A75   A(40,42,44)           108.7997                                         !
 ! A76   A(40,42,45)           108.6203                                         !
 ! A77   A(43,42,44)           109.2698                                         !
 ! A78   A(43,42,45)           110.7939                                         !
 ! A79   A(44,42,45)           111.9039                                         !
 ! A80   A(42,44,48)           121.4601                                         !
 ! A81   A(42,44,59)           115.7293                                         !
 ! A82   A(48,44,59)           122.8033                                         !
 ! A83   A(42,45,46)           107.9281                                         !
 ! A84   A(42,45,47)           106.6307                                         !
 ! A85   A(42,45,49)           117.2524                                         !
 ! A86   A(46,45,47)           106.6108                                         !
 ! A87   A(46,45,49)           109.2269                                         !
 ! A88   A(47,45,49)           108.6859                                         !
 ! A89   A(45,49,50)           109.1773                                         !
 ! A90   A(45,49,51)           112.4353                                         !
 ! A91   A(45,49,55)           109.2894                                         !
 ! A92   A(50,49,51)           107.9816                                         !
 ! A93   A(50,49,55)           107.3897                                         !
 ! A94   A(51,49,55)           110.4253                                         !
 ! A95   A(49,51,52)           110.9366                                         !
 ! A96   A(49,51,53)           112.8794                                         !
 ! A97   A(49,51,54)           110.4631                                         !
 ! A98   A(52,51,53)           107.5335                                         !
 ! A99   A(52,51,54)           107.9114                                         !
 ! A100  A(53,51,54)           106.8948                                         !
 ! A101  A(49,55,56)           111.1084                                         !
 ! A102  A(49,55,57)           111.4855                                         !
 ! A103  A(49,55,58)           110.7518                                         !
 ! A104  A(56,55,57)           107.8153                                         !
 ! A105  A(56,55,58)           107.7166                                         !
 ! A106  A(57,55,58)           107.8016                                         !
 ! A107  A(44,59,60)           120.0156                                         !
 ! A108  A(44,59,61)           124.2079                                         !
 ! A109  A(60,59,61)           113.0011                                         !
 ! A110  A(59,61,62)           108.1292                                         !
 ! A111  A(59,61,63)           106.8951                                         !
 ! A112  A(59,61,64)           113.1922                                         !
 ! A113  A(62,61,63)           108.2346                                         !
 ! A114  A(62,61,64)           109.8187                                         !
 ! A115  A(63,61,64)           110.4047                                         !
 ! A116  A(61,63,67)           115.3768                                         !
 ! A117  A(61,63,83)           121.524                                          !
 ! A118  A(67,63,83)           123.0845                                         !
 ! A119  A(61,64,65)           109.0084                                         !
 ! A120  A(61,64,66)           107.8656                                         !
 ! A121  A(61,64,68)           114.023                                          !
 ! A122  A(65,64,66)           106.5921                                         !
 ! A123  A(65,64,68)           108.9958                                         !
 ! A124  A(66,64,68)           110.0885                                         !
 ! A125  A(64,68,69)           110.1363                                         !
 ! A126  A(64,68,70)           108.7716                                         !
 ! A127  A(64,68,71)           114.0935                                         !
 ! A128  A(69,68,70)           106.8909                                         !
 ! A129  A(69,68,71)           107.7992                                         !
 ! A130  A(70,68,71)           108.9013                                         !
 ! A131  A(68,71,72)           108.9142                                         !
 ! A132  A(68,71,73)           111.0985                                         !
 ! A133  A(68,71,74)           114.8777                                         !
 ! A134  A(72,71,73)           106.8023                                         !
 ! A135  A(72,71,74)           107.639                                          !
 ! A136  A(73,71,74)           107.1585                                         !
 ! A137  A(71,74,75)           117.6637                                         !
 ! A138  A(71,74,82)           125.8009                                         !
 ! A139  A(75,74,82)           116.348                                          !
 ! A140  A(77,76,78)           100.6419                                         !
 ! A141  A(77,76,82)           110.5647                                         !
 ! A142  A(78,76,82)           132.838                                          !
 ! A143  A(80,79,81)           113.4602                                         !
 ! A144  A(80,79,82)           116.9159                                         !
 ! A145  A(81,79,82)           115.9847                                         !
 ! A146  A(74,82,76)           122.1714                                         !
 ! A147  A(74,82,79)           112.9011                                         !
 ! A148  A(76,82,79)           124.9045                                         !
 ! D1    D(2,1,5,6)             21.8493                                         !
 ! D2    D(2,1,5,7)            -95.7959                                         !
 ! D3    D(2,1,5,8)            142.6187                                         !
 ! D4    D(3,1,5,6)            137.9086                                         !
 ! D5    D(3,1,5,7)             20.2634                                         !
 ! D6    D(3,1,5,8)           -101.322                                          !
 ! D7    D(4,1,5,6)           -101.9767                                         !
 ! D8    D(4,1,5,7)            140.3781                                         !
 ! D9    D(4,1,5,8)             18.7927                                         !
 ! D10   D(1,5,7,10)           -20.9234                                         !
 ! D11   D(1,5,7,19)           158.4406                                         !
 ! D12   D(6,5,7,10)          -135.8581                                         !
 ! D13   D(6,5,7,19)            43.5059                                         !
 ! D14   D(8,5,7,10)            97.6004                                         !
 ! D15   D(8,5,7,19)           -83.0356                                         !
 ! D16   D(1,5,8,9)             60.6018                                         !
 ! D17   D(1,5,8,11)           178.7467                                         !
 ! D18   D(1,5,8,15)           -58.6463                                         !
 ! D19   D(6,5,8,9)           -179.9774                                         !
 ! D20   D(6,5,8,11)           -61.8325                                         !
 ! D21   D(6,5,8,15)            60.7745                                         !
 ! D22   D(7,5,8,9)            -52.6934                                         !
 ! D23   D(7,5,8,11)            65.4515                                         !
 ! D24   D(7,5,8,15)          -171.9415                                         !
 ! D25   D(5,7,19,20)            6.0823                                         !
 ! D26   D(5,7,19,21)          174.6939                                         !
 ! D27   D(10,7,19,20)        -174.6161                                         !
 ! D28   D(10,7,19,21)          -6.0046                                         !
 ! D29   D(5,8,11,12)           60.493                                          !
 ! D30   D(5,8,11,13)          -61.6747                                         !
 ! D31   D(5,8,11,14)          178.7656                                         !
 ! D32   D(9,8,11,12)          177.8578                                         !
 ! D33   D(9,8,11,13)           55.6902                                         !
 ! D34   D(9,8,11,14)          -63.8696                                         !
 ! D35   D(15,8,11,12)         -63.195                                          !
 ! D36   D(15,8,11,13)         174.6374                                         !
 ! D37   D(15,8,11,14)          55.0776                                         !
 ! D38   D(5,8,15,16)          -59.743                                          !
 ! D39   D(5,8,15,17)           62.9425                                         !
 ! D40   D(5,8,15,18)         -178.5895                                         !
 ! D41   D(9,8,15,16)         -177.7924                                         !
 ! D42   D(9,8,15,17)          -55.107                                          !
 ! D43   D(9,8,15,18)           63.361                                          !
 ! D44   D(11,8,15,16)          63.7062                                         !
 ! D45   D(11,8,15,17)        -173.6083                                         !
 ! D46   D(11,8,15,18)         -55.1403                                         !
 ! D47   D(7,19,21,22)         -42.5586                                         !
 ! D48   D(7,19,21,23)        -159.275                                          !
 ! D49   D(7,19,21,24)          78.5514                                         !
 ! D50   D(20,19,21,22)        127.2028                                         !
 ! D51   D(20,19,21,23)         10.4865                                         !
 ! D52   D(20,19,21,24)       -111.6871                                         !
 ! D53   D(19,21,23,28)         -6.2733                                         !
 ! D54   D(19,21,23,29)        174.065                                          !
 ! D55   D(22,21,23,28)       -122.1974                                         !
 ! D56   D(22,21,23,29)         58.1409                                         !
 ! D57   D(24,21,23,28)        115.3174                                         !
 ! D58   D(24,21,23,29)        -64.3443                                         !
 ! D59   D(19,21,24,25)       -179.6199                                         !
 ! D60   D(19,21,24,26)        -60.4379                                         !
 ! D61   D(19,21,24,27)         60.2672                                         !
 ! D62   D(22,21,24,25)        -59.0569                                         !
 ! D63   D(22,21,24,26)         60.125                                          !
 ! D64   D(22,21,24,27)       -179.1698                                         !
 ! D65   D(23,21,24,25)         63.5306                                         !
 ! D66   D(23,21,24,26)       -177.2875                                         !
 ! D67   D(23,21,24,27)        -56.5823                                         !
 ! D68   D(21,23,29,30)          4.4206                                         !
 ! D69   D(21,23,29,31)        173.921                                          !
 ! D70   D(28,23,29,30)       -175.222                                          !
 ! D71   D(28,23,29,31)         -5.7216                                         !
 ! D72   D(23,29,31,32)        -36.4442                                         !
 ! D73   D(23,29,31,33)       -156.704                                          !
 ! D74   D(23,29,31,34)         83.4119                                         !
 ! D75   D(30,29,31,32)        133.9407                                         !
 ! D76   D(30,29,31,33)         13.681                                          !
 ! D77   D(30,29,31,34)       -106.2032                                         !
 ! D78   D(29,31,33,37)        -15.5873                                         !
 ! D79   D(29,31,33,40)        166.5094                                         !
 ! D80   D(32,31,33,37)       -134.7786                                         !
 ! D81   D(32,31,33,40)         47.318                                          !
 ! D82   D(34,31,33,37)        105.4842                                         !
 ! D83   D(34,31,33,40)        -72.4192                                         !
 ! D84   D(29,31,34,35)        -62.2271                                         !
 ! D85   D(29,31,34,36)         54.7657                                         !
 ! D86   D(29,31,34,38)        179.0941                                         !
 ! D87   D(32,31,34,35)         58.5473                                         !
 ! D88   D(32,31,34,36)        175.5401                                         !
 ! D89   D(32,31,34,38)        -60.1315                                         !
 ! D90   D(33,31,34,35)       -179.784                                          !
 ! D91   D(33,31,34,36)        -62.7913                                         !
 ! D92   D(33,31,34,38)         61.5372                                         !
 ! D93   D(31,33,40,41)         11.8594                                         !
 ! D94   D(31,33,40,42)        157.6842                                         !
 ! D95   D(37,33,40,41)       -165.9552                                         !
 ! D96   D(37,33,40,42)        -20.1304                                         !
 ! D97   D(31,34,38,39)        -88.6069                                         !
 ! D98   D(35,34,38,39)        153.1733                                         !
 ! D99   D(36,34,38,39)         33.6561                                         !
 ! D100  D(33,40,42,43)         48.7885                                         !
 ! D101  D(33,40,42,44)        -69.3342                                         !
 ! D102  D(33,40,42,45)        168.6238                                         !
 ! D103  D(41,40,42,43)       -165.7117                                         !
 ! D104  D(41,40,42,44)         76.1657                                         !
 ! D105  D(41,40,42,45)        -45.8764                                         !
 ! D106  D(40,42,44,48)        -26.8475                                         !
 ! D107  D(40,42,44,59)        154.1056                                         !
 ! D108  D(43,42,44,48)       -143.7339                                         !
 ! D109  D(43,42,44,59)         37.2193                                         !
 ! D110  D(45,42,44,48)         93.1795                                         !
 ! D111  D(45,42,44,59)        -85.8673                                         !
 ! D112  D(40,42,45,46)         67.2998                                         !
 ! D113  D(40,42,45,47)        -46.9184                                         !
 ! D114  D(40,42,45,49)       -168.9219                                         !
 ! D115  D(43,42,45,46)       -175.0516                                         !
 ! D116  D(43,42,45,47)         70.7302                                         !
 ! D117  D(43,42,45,49)        -51.2733                                         !
 ! D118  D(44,42,45,46)        -52.8322                                         !
 ! D119  D(44,42,45,47)       -167.0503                                         !
 ! D120  D(44,42,45,49)         70.9461                                         !
 ! D121  D(42,44,59,60)          6.4809                                         !
 ! D122  D(42,44,59,61)        166.2649                                         !
 ! D123  D(48,44,59,60)       -172.5518                                         !
 ! D124  D(48,44,59,61)        -12.7678                                         !
 ! D125  D(42,45,49,50)        -56.9615                                         !
 ! D126  D(42,45,49,51)         62.8543                                         !
 ! D127  D(42,45,49,55)       -174.1534                                         !
 ! D128  D(46,45,49,50)         66.1559                                         !
 ! D129  D(46,45,49,51)       -174.0283                                         !
 ! D130  D(46,45,49,55)        -51.036                                          !
 ! D131  D(47,45,49,50)       -177.896                                          !
 ! D132  D(47,45,49,51)        -58.0801                                         !
 ! D133  D(47,45,49,55)         64.9121                                         !
 ! D134  D(45,49,51,52)         59.7605                                         !
 ! D135  D(45,49,51,53)        -61.007                                          !
 ! D136  D(45,49,51,54)        179.3796                                         !
 ! D137  D(50,49,51,52)       -179.7319                                         !
 ! D138  D(50,49,51,53)         59.5005                                         !
 ! D139  D(50,49,51,54)        -60.1129                                         !
 ! D140  D(55,49,51,52)        -62.592                                          !
 ! D141  D(55,49,51,53)        176.6404                                         !
 ! D142  D(55,49,51,54)         57.027                                          !
 ! D143  D(45,49,55,56)        -62.0507                                         !
 ! D144  D(45,49,55,57)         58.2407                                         !
 ! D145  D(45,49,55,58)        178.2731                                         !
 ! D146  D(50,49,55,56)        179.6349                                         !
 ! D147  D(50,49,55,57)        -60.0737                                         !
 ! D148  D(50,49,55,58)         59.9587                                         !
 ! D149  D(51,49,55,56)         62.1297                                         !
 ! D150  D(51,49,55,57)       -177.5789                                         !
 ! D151  D(51,49,55,58)        -57.5465                                         !
 ! D152  D(44,59,61,62)        -23.6683                                         !
 ! D153  D(44,59,61,63)       -139.999                                          !
 ! D154  D(44,59,61,64)         98.229                                          !
 ! D155  D(60,59,61,62)        137.3625                                         !
 ! D156  D(60,59,61,63)         21.0317                                         !
 ! D157  D(60,59,61,64)       -100.7402                                         !
 ! D158  D(59,61,63,67)        168.4317                                         !
 ! D159  D(59,61,63,83)        -12.9223                                         !
 ! D160  D(62,61,63,67)         52.171                                          !
 ! D161  D(62,61,63,83)       -129.183                                          !
 ! D162  D(64,61,63,67)        -68.0557                                         !
 ! D163  D(64,61,63,83)        110.5903                                         !
 ! D164  D(59,61,64,65)        155.9781                                         !
 ! D165  D(59,61,64,66)         40.6141                                         !
 ! D166  D(59,61,64,68)        -81.9851                                         !
 ! D167  D(62,61,64,65)        -83.0755                                         !
 ! D168  D(62,61,64,66)        161.5605                                         !
 ! D169  D(62,61,64,68)         38.9613                                         !
 ! D170  D(63,61,64,65)         36.1954                                         !
 ! D171  D(63,61,64,66)        -79.1686                                         !
 ! D172  D(63,61,64,68)        158.2322                                         !
 ! D173  D(61,64,68,69)         53.4494                                         !
 ! D174  D(61,64,68,70)        170.2876                                         !
 ! D175  D(61,64,68,71)        -67.9246                                         !
 ! D176  D(65,64,68,69)        175.4931                                         !
 ! D177  D(65,64,68,70)        -67.6687                                         !
 ! D178  D(65,64,68,71)         54.1191                                         !
 ! D179  D(66,64,68,69)        -67.9259                                         !
 ! D180  D(66,64,68,70)         48.9123                                         !
 ! D181  D(66,64,68,71)        170.7001                                         !
 ! D182  D(64,68,71,72)        174.4818                                         !
 ! D183  D(64,68,71,73)         57.1119                                         !
 ! D184  D(64,68,71,74)        -64.7231                                         !
 ! D185  D(69,68,71,72)         51.823                                          !
 ! D186  D(69,68,71,73)        -65.5469                                         !
 ! D187  D(69,68,71,74)        172.6181                                         !
 ! D188  D(70,68,71,72)        -63.8018                                         !
 ! D189  D(70,68,71,73)        178.8283                                         !
 ! D190  D(70,68,71,74)         56.9933                                         !
 ! D191  D(68,71,74,75)        -71.0247                                         !
 ! D192  D(68,71,74,82)        103.7993                                         !
 ! D193  D(72,71,74,75)         50.4674                                         !
 ! D194  D(72,71,74,82)       -134.7086                                         !
 ! D195  D(73,71,74,75)        165.0267                                         !
 ! D196  D(73,71,74,82)        -20.1493                                         !
 ! D197  D(71,74,82,76)        -16.3484                                         !
 ! D198  D(71,74,82,79)        165.3189                                         !
 ! D199  D(75,74,82,76)        158.536                                          !
 ! D200  D(75,74,82,79)        -19.7967                                         !
 ! D201  D(77,76,82,74)        168.0268                                         !
 ! D202  D(77,76,82,79)        -13.846                                          !
 ! D203  D(78,76,82,74)        -63.8861                                         !
 ! D204  D(78,76,82,79)        114.2411                                         !
 ! D205  D(80,79,82,74)        -41.7759                                         !
 ! D206  D(80,79,82,76)        139.945                                          !
 ! D207  D(81,79,82,74)       -179.8604                                         !
 ! D208  D(81,79,82,76)          1.8604                                         !
 --------------------------------------------------------------------------------
 Symmetry turned off by external request.
 Stoichiometry    C23H45N8O7(1+)
 Framework group  C1[X(C23H45N8O7)]
 Deg. of freedom   243
 Full point group                 C1      NOp   1
                          Input orientation:                          
 ---------------------------------------------------------------------
 Center     Atomic      Atomic             Coordinates (Angstroms)
 Number     Number       Type             X           Y           Z
 ---------------------------------------------------------------------
      1          7           0       -8.301684    1.044832    5.353619
      2          1           0       -8.271451    0.561742    6.256121
      3          1           0       -7.725918    1.935946    5.427970
      4          1           0       -9.278942    1.238934    5.121273
      5          6           0       -7.565477    0.298219    4.253625
      6          1           0       -7.495954   -0.753835    4.543446
      7          6           0       -6.175829    1.001884    4.288061
      8          6           0       -8.325711    0.439357    2.908098
      9          1           0       -8.363401    1.512254    2.669489
     10          8           0       -6.131013    2.131894    4.804060
     11          6           0       -7.580680   -0.283866    1.772460
     12          1           0       -7.481994   -1.356477    1.980583
     13          1           0       -6.584328    0.122878    1.587586
     14          1           0       -8.152758   -0.183792    0.845683
     15          6           0       -9.763355   -0.104234    3.012074
     16          1           0       -9.768731   -1.165335    3.287875
     17          1           0      -10.401676    0.434755    3.726033
     18          1           0      -10.259267   -0.011836    2.041665
     19          7           0       -5.145256    0.343460    3.779437
     20          1           0       -5.240660   -0.552647    3.291748
     21          6           0       -3.795430    0.892224    3.627674
     22          1           0       -3.875834    1.918974    3.253056
     23          6           0       -3.147471   -0.009541    2.546568
     24          6           0       -3.019104    0.888466    4.953684
     25          1           0       -2.018016    1.308311    4.817096
     26          1           0       -3.543105    1.499629    5.693421
     27          1           0       -2.914300   -0.130751    5.338672
     28          8           0       -3.757783   -1.003242    2.134757
     29          7           0       -1.931112    0.361975    2.128808
     30          1           0       -1.428634    1.146642    2.541646
     31          6           0       -1.108535   -0.419162    1.218375
     32          1           0       -1.240545   -1.485763    1.426136
     33          6           0        0.338269    0.021859    1.469411
     34          6           0       -1.492372   -0.165098   -0.272777
     35          1           0       -2.529247   -0.489652   -0.403612
     36          1           0       -1.439396    0.915598   -0.466455
     37          8           0        0.583923    1.059072    2.086305
     38          8           0       -0.685319   -0.903596   -1.160939
     39          1           0        0.109376   -0.362207   -1.370689
     40          7           0        1.278746   -0.789866    0.924573
     41          1           0        0.917974   -1.474470    0.265707
     42          6           0        2.622204   -0.292483    0.647448
     43          1           0        2.972051    0.218455    1.547580
     44          6           0        2.547804    0.721108   -0.518561
     45          6           0        3.534212   -1.495332    0.309176
     46          1           0        3.195413   -1.918460   -0.647387
     47          1           0        3.344169   -2.259129    1.075235
     48          8           0        1.649273    0.660985   -1.372887
     49          6           0        5.052915   -1.232711    0.239084
     50          1           0        5.248612   -0.443366   -0.497665
     51          6           0        5.632183   -0.777175    1.587611
     52          1           0        5.466553   -1.537032    2.362491
     53          1           0        5.191834    0.161334    1.945670
     54          1           0        6.711020   -0.610960    1.504191
     55          6           0        5.765913   -2.503642   -0.249062
     56          1           0        5.614514   -3.335504    0.450998
     57          1           0        5.395189   -2.819994   -1.231097
     58          1           0        6.844314   -2.334119   -0.336990
     59          7           0        3.523201    1.645716   -0.551256
     60          1           0        4.300403    1.588645    0.102202
     61          6           0        3.805587    2.499208   -1.699368
     62          1           0        3.427740    1.999740   -2.595755
     63          6           0        5.336757    2.601811   -1.814528
     64          6           0        3.176898    3.910775   -1.579865
     65          1           0        3.745320    4.608395   -2.203916
     66          1           0        3.299164    4.246733   -0.543660
     67          8           0        5.786359    3.139820   -2.937039
     68          6           0        1.698025    3.971837   -1.982496
     69          1           0        1.124049    3.223165   -1.424979
     70          1           0        1.295802    4.955564   -1.703125
     71          6           0        1.445335    3.737714   -3.480653
     72          1           0        0.362859    3.700941   -3.657341
     73          1           0        1.850464    2.775982   -3.802016
     74          7           0        2.003176    4.756633   -4.363885
     75          1           0        1.566071    5.667540   -4.364136
     76          7           0        4.004420    3.683879   -4.911726
     77          1           0        4.663062    3.624154   -5.687942
     78          1           0        5.037566    3.331401   -3.592534
     79          7           0        3.244912    5.609407   -6.097154
     80          1           0        2.400735    5.859268   -6.597764
     81          1           0        4.062744    5.554790   -6.689182
     82          6           0        3.130927    4.624742   -5.124753
     83          8           0        6.068795    2.232566   -0.914906
 ---------------------------------------------------------------------
 Rotational constants (GHZ):           0.1386604           0.0319005           0.0281108
 Standard basis: 6-31G(d) (6D, 7F)
   660 basis functions,  1244 primitive gaussians,   660 cartesian basis functions
   147 alpha electrons      147 beta electrons
       nuclear repulsion energy      4435.8277843642 Hartrees.
 NAtoms=   83 NActive=   83 NUniq=   83 SFac= 1.00D+00 NAtFMM=   60 NAOKFM=T Big=T
 Integral buffers will be    131072 words long.
 Raffenetti 2 integral format.
 Two-electron integral symmetry is turned off.
 One-electron integrals computed using PRISM.
 NBasis=   660 RedAO= T EigKep=  1.88D-03  NBF=   660
 NBsUse=   660 1.00D-06 EigRej= -1.00D+00 NBFU=   660
 Initial guess from the checkpoint file:  "conf-472.chk"
 B after Tr=     0.000000    0.000000    0.000000
         Rot=    1.000000    0.000000    0.000000    0.000000 Ang=   0.00 deg.
 Requested convergence on RMS density matrix=1.00D-08 within 128 cycles.
 Requested convergence on MAX density matrix=1.00D-06.
 Requested convergence on             energy=1.00D-06.
 No special actions if energy rises.
 SCF Done:  E(RB3LYP) =  -1868.02332314     A.U. after    1 cycles
            NFock=  1  Conv=0.40D-08     -V/T= 2.0094

 **********************************************************************

            Population analysis using the SCF Density.

 **********************************************************************

 Alpha  occ. eigenvalues --  -19.27045 -19.22189 -19.21607 -19.20193 -19.19845
 Alpha  occ. eigenvalues --  -19.19217 -19.17601 -14.60239 -14.49562 -14.45556
 Alpha  occ. eigenvalues --  -14.42955 -14.42522 -14.42182 -14.42077 -14.36406
 Alpha  occ. eigenvalues --  -10.43834 -10.41015 -10.39215 -10.36445 -10.36303
 Alpha  occ. eigenvalues --  -10.35954 -10.35809 -10.35077 -10.35040 -10.31747
 Alpha  occ. eigenvalues --  -10.31095 -10.30533 -10.30227 -10.30122 -10.29122
 Alpha  occ. eigenvalues --  -10.28643 -10.28222 -10.25110 -10.24773 -10.24495
 Alpha  occ. eigenvalues --  -10.24298 -10.22296 -10.22005  -1.19511  -1.14380
 Alpha  occ. eigenvalues --   -1.13835  -1.13310  -1.11783  -1.10331  -1.07788
 Alpha  occ. eigenvalues --   -1.06188  -1.05379  -1.05031  -1.02043  -0.99917
 Alpha  occ. eigenvalues --   -0.99034  -0.95902  -0.95596  -0.91483  -0.89597
 Alpha  occ. eigenvalues --   -0.87290  -0.85931  -0.85474  -0.83533  -0.81868
 Alpha  occ. eigenvalues --   -0.81003  -0.79025  -0.77475  -0.75268  -0.74144
 Alpha  occ. eigenvalues --   -0.74007  -0.73259  -0.73062  -0.71403  -0.70626
 Alpha  occ. eigenvalues --   -0.70130  -0.68240  -0.67448  -0.66830  -0.66062
 Alpha  occ. eigenvalues --   -0.65061  -0.64807  -0.64084  -0.64055  -0.62018
 Alpha  occ. eigenvalues --   -0.61713  -0.60929  -0.60041  -0.59619  -0.59139
 Alpha  occ. eigenvalues --   -0.59009  -0.58633  -0.57439  -0.56516  -0.55953
 Alpha  occ. eigenvalues --   -0.55381  -0.54819  -0.54349  -0.54157  -0.53441
 Alpha  occ. eigenvalues --   -0.53142  -0.53082  -0.52755  -0.52502  -0.51901
 Alpha  occ. eigenvalues --   -0.51329  -0.51032  -0.50645  -0.50447  -0.49891
 Alpha  occ. eigenvalues --   -0.49517  -0.49282  -0.49007  -0.48569  -0.48365
 Alpha  occ. eigenvalues --   -0.48334  -0.47848  -0.47536  -0.47476  -0.47146
 Alpha  occ. eigenvalues --   -0.46600  -0.46320  -0.46176  -0.45431  -0.44999
 Alpha  occ. eigenvalues --   -0.44393  -0.43394  -0.43233  -0.43080  -0.42153
 Alpha  occ. eigenvalues --   -0.41587  -0.41431  -0.41297  -0.40317  -0.39863
 Alpha  occ. eigenvalues --   -0.39616  -0.39286  -0.38337  -0.37867  -0.37741
 Alpha  occ. eigenvalues --   -0.36851  -0.36306  -0.34987  -0.34547  -0.34326
 Alpha  occ. eigenvalues --   -0.33800  -0.32884  -0.32686  -0.32371  -0.31780
 Alpha  occ. eigenvalues --   -0.31222  -0.29796
 Alpha virt. eigenvalues --   -0.12875  -0.11351  -0.07773  -0.06858  -0.05955
 Alpha virt. eigenvalues --   -0.04735  -0.04623  -0.02865  -0.02483  -0.02129
 Alpha virt. eigenvalues --   -0.01377  -0.00337  -0.00147   0.00488   0.01727
 Alpha virt. eigenvalues --    0.02140   0.02361   0.02569   0.02999   0.03456
 Alpha virt. eigenvalues --    0.03625   0.04385   0.04680   0.05191   0.05349
 Alpha virt. eigenvalues --    0.05516   0.05719   0.05967   0.06204   0.06421
 Alpha virt. eigenvalues --    0.07041   0.07455   0.07630   0.07703   0.08358
 Alpha virt. eigenvalues --    0.08600   0.08767   0.09161   0.09450   0.09688
 Alpha virt. eigenvalues --    0.09735   0.10125   0.10484   0.10815   0.11172
 Alpha virt. eigenvalues --    0.11414   0.11579   0.11892   0.12017   0.12186
 Alpha virt. eigenvalues --    0.12584   0.12769   0.13178   0.13246   0.13742
 Alpha virt. eigenvalues --    0.14063   0.14468   0.14994   0.15888   0.16083
 Alpha virt. eigenvalues --    0.16186   0.16723   0.17489   0.17796   0.17992
 Alpha virt. eigenvalues --    0.18331   0.18965   0.19608   0.20235   0.20528
 Alpha virt. eigenvalues --    0.21024   0.21498   0.22812   0.22816   0.23504
 Alpha virt. eigenvalues --    0.23892   0.25250   0.26236   0.28884   0.29460
 Alpha virt. eigenvalues --    0.29775   0.31913   0.32568   0.32849   0.34018
 Alpha virt. eigenvalues --    0.35215   0.35350   0.35936   0.36386   0.37153
 Alpha virt. eigenvalues --    0.37663   0.38192   0.39968   0.41278   0.42174
 Alpha virt. eigenvalues --    0.42777   0.43479   0.44427   0.44630   0.44857
 Alpha virt. eigenvalues --    0.45145   0.45779   0.45943   0.46317   0.47086
 Alpha virt. eigenvalues --    0.47332   0.48001   0.48144   0.48503   0.49038
 Alpha virt. eigenvalues --    0.49365   0.50442   0.50932   0.51706   0.51793
 Alpha virt. eigenvalues --    0.52061   0.52487   0.53048   0.53535   0.53647
 Alpha virt. eigenvalues --    0.54568   0.54774   0.55147   0.55608   0.55856
 Alpha virt. eigenvalues --    0.56037   0.56200   0.57225   0.57787   0.58140
 Alpha virt. eigenvalues --    0.58507   0.58977   0.59676   0.59961   0.60743
 Alpha virt. eigenvalues --    0.61194   0.61616   0.62007   0.62579   0.62755
 Alpha virt. eigenvalues --    0.63453   0.63754   0.64313   0.65189   0.65463
 Alpha virt. eigenvalues --    0.65717   0.66193   0.66507   0.66675   0.67027
 Alpha virt. eigenvalues --    0.67540   0.67725   0.68271   0.68706   0.69166
 Alpha virt. eigenvalues --    0.69415   0.69554   0.70886   0.71166   0.72127
 Alpha virt. eigenvalues --    0.72367   0.72827   0.73306   0.74029   0.74070
 Alpha virt. eigenvalues --    0.74558   0.74652   0.75641   0.75695   0.76103
 Alpha virt. eigenvalues --    0.76513   0.77135   0.77341   0.77655   0.78080
 Alpha virt. eigenvalues --    0.78341   0.78502   0.78950   0.79197   0.79391
 Alpha virt. eigenvalues --    0.80097   0.80198   0.80732   0.81107   0.81233
 Alpha virt. eigenvalues --    0.81646   0.81836   0.81914   0.82179   0.82741
 Alpha virt. eigenvalues --    0.82911   0.83331   0.83754   0.83823   0.84690
 Alpha virt. eigenvalues --    0.84891   0.85161   0.85574   0.85810   0.85991
 Alpha virt. eigenvalues --    0.86193   0.86556   0.87143   0.87484   0.87897
 Alpha virt. eigenvalues --    0.88083   0.88120   0.88625   0.89092   0.89444
 Alpha virt. eigenvalues --    0.89845   0.90667   0.90986   0.91435   0.92109
 Alpha virt. eigenvalues --    0.93119   0.93317   0.93763   0.94277   0.94404
 Alpha virt. eigenvalues --    0.94670   0.95655   0.96316   0.96574   0.97306
 Alpha virt. eigenvalues --    0.97723   0.98591   0.98710   1.00220   1.00511
 Alpha virt. eigenvalues --    1.00732   1.01766   1.02228   1.03310   1.04187
 Alpha virt. eigenvalues --    1.05719   1.06392   1.06706   1.08051   1.08891
 Alpha virt. eigenvalues --    1.09123   1.10615   1.11504   1.12753   1.13964
 Alpha virt. eigenvalues --    1.14298   1.14721   1.15606   1.16539   1.17854
 Alpha virt. eigenvalues --    1.18281   1.19945   1.20142   1.21188   1.21635
 Alpha virt. eigenvalues --    1.23318   1.24022   1.24090   1.25038   1.26139
 Alpha virt. eigenvalues --    1.27758   1.28344   1.29109   1.29427   1.31284
 Alpha virt. eigenvalues --    1.32765   1.33325   1.33986   1.34528   1.35823
 Alpha virt. eigenvalues --    1.36755   1.37185   1.38166   1.38726   1.39724
 Alpha virt. eigenvalues --    1.40613   1.41141   1.41563   1.43478   1.43730
 Alpha virt. eigenvalues --    1.44588   1.44678   1.45775   1.46735   1.48094
 Alpha virt. eigenvalues --    1.49022   1.50163   1.51677   1.52161   1.53583
 Alpha virt. eigenvalues --    1.55709   1.56392   1.56591   1.57226   1.57475
 Alpha virt. eigenvalues --    1.58260   1.59365   1.59982   1.61516   1.61756
 Alpha virt. eigenvalues --    1.61808   1.62911   1.63358   1.64244   1.64945
 Alpha virt. eigenvalues --    1.65429   1.66221   1.66889   1.67418   1.67668
 Alpha virt. eigenvalues --    1.67932   1.68509   1.68638   1.68772   1.69680
 Alpha virt. eigenvalues --    1.70567   1.70812   1.72044   1.72376   1.72978
 Alpha virt. eigenvalues --    1.73102   1.73666   1.74485   1.74879   1.74967
 Alpha virt. eigenvalues --    1.75674   1.75989   1.76512   1.77095   1.77569
 Alpha virt. eigenvalues --    1.78357   1.79047   1.80048   1.80266   1.80630
 Alpha virt. eigenvalues --    1.81276   1.81782   1.82540   1.82836   1.83398
 Alpha virt. eigenvalues --    1.83803   1.84872   1.85066   1.85755   1.86194
 Alpha virt. eigenvalues --    1.86613   1.87104   1.88032   1.88176   1.89038
 Alpha virt. eigenvalues --    1.89492   1.90046   1.90318   1.90461   1.90729
 Alpha virt. eigenvalues --    1.92459   1.93080   1.93555   1.93668   1.94611
 Alpha virt. eigenvalues --    1.95181   1.96002   1.96798   1.96861   1.97732
 Alpha virt. eigenvalues --    1.98293   1.99367   2.00074   2.00270   2.01272
 Alpha virt. eigenvalues --    2.01720   2.02092   2.03161   2.03565   2.04889
 Alpha virt. eigenvalues --    2.05410   2.06568   2.06670   2.06781   2.08287
 Alpha virt. eigenvalues --    2.08721   2.09822   2.10724   2.11649   2.12407
 Alpha virt. eigenvalues --    2.13233   2.13605   2.14679   2.15126   2.15494
 Alpha virt. eigenvalues --    2.15955   2.18014   2.18907   2.19517   2.20884
 Alpha virt. eigenvalues --    2.21657   2.22016   2.23513   2.24071   2.24382
 Alpha virt. eigenvalues --    2.25001   2.26048   2.27361   2.27473   2.28775
 Alpha virt. eigenvalues --    2.29818   2.29877   2.30963   2.32106   2.32445
 Alpha virt. eigenvalues --    2.33780   2.34316   2.35178   2.36481   2.36897
 Alpha virt. eigenvalues --    2.38138   2.38924   2.40091   2.40930   2.42085
 Alpha virt. eigenvalues --    2.42363   2.42638   2.43769   2.45132   2.45369
 Alpha virt. eigenvalues --    2.45750   2.46983   2.47544   2.48037   2.48329
 Alpha virt. eigenvalues --    2.49170   2.50382   2.51492   2.52571   2.53996
 Alpha virt. eigenvalues --    2.55180   2.57367   2.58524   2.59791   2.60539
 Alpha virt. eigenvalues --    2.60734   2.61097   2.61669   2.62913   2.63218
 Alpha virt. eigenvalues --    2.63380   2.64850   2.65336   2.67581   2.67843
 Alpha virt. eigenvalues --    2.68413   2.69277   2.69961   2.73651   2.75253
 Alpha virt. eigenvalues --    2.76719   2.77343   2.79654   2.82023   2.83199
 Alpha virt. eigenvalues --    2.85271   2.86278   2.87439   2.88773   2.90534
 Alpha virt. eigenvalues --    2.91415   2.94776   2.96739   2.99797   3.02936
 Alpha virt. eigenvalues --    3.03554   3.04871   3.08883   3.12922   3.15131
 Alpha virt. eigenvalues --    3.64943   3.73666   3.80818   3.87138   3.88706
 Alpha virt. eigenvalues --    3.90868   3.93640   3.97388   3.99320   4.01055
 Alpha virt. eigenvalues --    4.01129   4.05809   4.05927   4.07232   4.09524
 Alpha virt. eigenvalues --    4.12684   4.15685   4.16293   4.16859   4.20837
 Alpha virt. eigenvalues --    4.23800   4.24058   4.25559   4.27914   4.30205
 Alpha virt. eigenvalues --    4.32177   4.33103   4.34949   4.35830   4.38356
 Alpha virt. eigenvalues --    4.45674   4.48539   4.49301   4.50981   4.54120
 Alpha virt. eigenvalues --    4.57426   4.58893   4.63037
          Condensed to atoms (all electrons):
 Mulliken charges:
               1
     1  N   -0.759431
     2  H    0.416313
     3  H    0.432926
     4  H    0.409012
     5  C   -0.102122
     6  H    0.206361
     7  C    0.647537
     8  C   -0.109598
     9  H    0.170883
    10  O   -0.545776
    11  C   -0.474418
    12  H    0.170873
    13  H    0.183996
    14  H    0.189022
    15  C   -0.476163
    16  H    0.178088
    17  H    0.140607
    18  H    0.203588
    19  N   -0.605518
    20  H    0.380945
    21  C   -0.059674
    22  H    0.198194
    23  C    0.630899
    24  C   -0.456980
    25  H    0.183875
    26  H    0.185321
    27  H    0.172669
    28  O   -0.547447
    29  N   -0.623697
    30  H    0.364543
    31  C   -0.069660
    32  H    0.191254
    33  C    0.606585
    34  C   -0.033511
    35  H    0.167466
    36  H    0.139223
    37  O   -0.541049
    38  O   -0.648777
    39  H    0.442290
    40  N   -0.598724
    41  H    0.347153
    42  C   -0.075662
    43  H    0.187582
    44  C    0.646091
    45  C   -0.279950
    46  H    0.147951
    47  H    0.156396
    48  O   -0.575835
    49  C   -0.096099
    50  H    0.149700
    51  C   -0.449892
    52  H    0.143349
    53  H    0.136354
    54  H    0.168043
    55  C   -0.446074
    56  H    0.142670
    57  H    0.145896
    58  H    0.158945
    59  N   -0.596569
    60  H    0.366993
    61  C   -0.089583
    62  H    0.196832
    63  C    0.608338
    64  C   -0.266975
    65  H    0.162549
    66  H    0.157362
    67  O   -0.608776
    68  C   -0.267482
    69  H    0.163449
    70  H    0.130967
    71  C   -0.140121
    72  H    0.148733
    73  H    0.195086
    74  N   -0.593006
    75  H    0.330405
    76  N   -0.737158
    77  H    0.297578
    78  H    0.473756
    79  N   -0.757744
    80  H    0.336346
    81  H    0.340437
    82  C    0.664630
    83  O   -0.482588
 Sum of Mulliken charges =   1.00000
 Mulliken charges with hydrogens summed into heavy atoms:
               1
     1  N    0.498821
     5  C    0.104239
     7  C    0.647537
     8  C    0.061285
    10  O   -0.545776
    11  C    0.069472
    15  C    0.046121
    19  N   -0.224573
    21  C    0.138520
    23  C    0.630899
    24  C    0.084884
    28  O   -0.547447
    29  N   -0.259154
    31  C    0.121594
    33  C    0.606585
    34  C    0.273178
    37  O   -0.541049
    38  O   -0.206487
    40  N   -0.251570
    42  C    0.111919
    44  C    0.646091
    45  C    0.024396
    48  O   -0.575835
    49  C    0.053601
    51  C   -0.002146
    55  C    0.001437
    59  N   -0.229577
    61  C    0.107249
    63  C    0.608338
    64  C    0.052936
    67  O   -0.135020
    68  C    0.026934
    71  C    0.203698
    74  N   -0.262601
    76  N   -0.439581
    79  N   -0.080961
    82  C    0.664630
    83  O   -0.482588
 Electronic spatial extent (au):  <R**2>=          38694.1270
 Charge=              1.0000 electrons
 Dipole moment (field-independent basis, Debye):
    X=            -30.4230    Y=              7.3263    Z=             12.1090  Tot=             33.5538
 Quadrupole moment (field-independent basis, Debye-Ang):
   XX=             24.9746   YY=           -188.9264   ZZ=            -82.4638
   XY=            -19.3539   XZ=           -163.5625   YZ=            -37.9908
 Traceless Quadrupole moment (field-independent basis, Debye-Ang):
   XX=            107.1131   YY=           -106.7879   ZZ=             -0.3253
   XY=            -19.3539   XZ=           -163.5625   YZ=            -37.9908
 Octapole moment (field-independent basis, Debye-Ang**2):
  XXX=          -2412.9699  YYY=           -528.0215  ZZZ=           -113.0172  XYY=             88.7433
  XXY=           -166.8650  XXZ=           1143.8723  XZZ=           -582.5935  YZZ=             95.2494
  YYZ=           -335.1746  XYZ=           -178.3848
 Hexadecapole moment (field-independent basis, Debye-Ang**3):
 XXXX=         -11090.9656 YYYY=          -6116.4717 ZZZZ=          -6766.9003 XXXY=          -3367.8610
 XXXZ=          -4127.2354 YYYX=           -978.7327 YYYZ=            749.4908 ZZZX=           1119.4647
 ZZZY=            283.0164 XXYY=          -6103.9129 XXZZ=            122.9529 YYZZ=          -1616.6152
 XXYZ=           1196.0926 YYXZ=           1632.3048 ZZXY=            -14.2161
 N-N= 4.435827784364D+03 E-N=-1.319996925766D+04  KE= 1.850630756829D+03
 Unable to Open any file for archive entry.
 1\1\GINC-SKL-138\SP\RB3LYP\6-31G(d)\C23H45N8O7(1+)\KENGMITH\30-Jun-202
 2\0\\# B3LYP/6-31G* guess=read geom=check nosymm integral(ultrafinegri
 d)\\Candidate Structure: Conf:472 Charge calc in gas phase\\1,1\N,0,-8
 .3016843888,1.0448323811,5.3536193121\H,0,-8.2714505509,0.5617419255,6
 .2561211066\H,0,-7.7259183629,1.9359462622,5.4279697481\H,0,-9.2789422
 805,1.2389336427,5.1212729537\C,0,-7.5654766319,0.2982189475,4.2536251
 311\H,0,-7.4959535169,-0.7538352718,4.5434463202\C,0,-6.1758286373,1.0
 018842096,4.2880609656\C,0,-8.3257107664,0.4393572854,2.9080982883\H,0
 ,-8.3634008464,1.5122535352,2.6694891489\O,0,-6.1310128503,2.131894475
 ,4.8040598641\C,0,-7.5806798784,-0.2838656506,1.7724595598\H,0,-7.4819
 943959,-1.3564772385,1.9805832517\H,0,-6.5843278468,0.1228783099,1.587
 5864447\H,0,-8.1527583058,-0.1837919798,0.845683055\C,0,-9.7633546521,
 -0.1042336083,3.0120735546\H,0,-9.768731051,-1.1653351712,3.2878748013
 \H,0,-10.4016760838,0.4347547089,3.7260331157\H,0,-10.259266827,-0.011
 8361833,2.0416649341\N,0,-5.1452559547,0.343460452,3.7794371679\H,0,-5
 .2406596825,-0.5526467738,3.2917484491\C,0,-3.7954303502,0.8922244688,
 3.62767404\H,0,-3.8758336613,1.9189744491,3.2530560782\C,0,-3.14747149
 34,-0.0095410421,2.5465681003\C,0,-3.0191038244,0.8884664166,4.9536840
 486\H,0,-2.0180159261,1.3083108187,4.817096309\H,0,-3.543105428,1.4996
 286039,5.6934212079\H,0,-2.9143004567,-0.1307514726,5.3386717599\O,0,-
 3.7577830077,-1.0032424201,2.1347568223\N,0,-1.9311123885,0.3619746962
 ,2.1288080596\H,0,-1.4286339119,1.1466424729,2.5416461624\C,0,-1.10853
 45408,-0.4191616661,1.2183745599\H,0,-1.240545376,-1.4857627075,1.4261
 358113\C,0,0.3382688648,0.0218590571,1.469411158\C,0,-1.4923717352,-0.
 1650984486,-0.2727767313\H,0,-2.5292468507,-0.4896516173,-0.4036123313
 \H,0,-1.4393956467,0.9155975206,-0.4664551165\O,0,0.5839233739,1.05907
 19917,2.0863048708\O,0,-0.685319323,-0.9035962025,-1.1609388645\H,0,0.
 1093758867,-0.3622074098,-1.3706893084\N,0,1.2787462904,-0.7898664122,
 0.9245734253\H,0,0.9179738339,-1.4744702206,0.2657066717\C,0,2.6222037
 091,-0.2924828902,0.647447804\H,0,2.972050972,0.2184554273,1.547579674
 9\C,0,2.5478044032,0.7211078806,-0.5185607543\C,0,3.5342124715,-1.4953
 315188,0.3091757845\H,0,3.1954134271,-1.9184601272,-0.6473873244\H,0,3
 .3441689559,-2.2591289792,1.0752346384\O,0,1.649273268,0.6609852761,-1
 .3728865009\C,0,5.0529153247,-1.2327106925,0.2390841907\H,0,5.24861226
 71,-0.4433664397,-0.497665153\C,0,5.6321827116,-0.7771745487,1.5876112
 955\H,0,5.4665526787,-1.5370319023,2.3624907437\H,0,5.1918342615,0.161
 334332,1.9456697911\H,0,6.7110202885,-0.6109602555,1.504191117\C,0,5.7
 659127876,-2.5036423876,-0.2490619361\H,0,5.614514388,-3.3355037203,0.
 4509983088\H,0,5.3951885847,-2.8199941666,-1.2310970133\H,0,6.84431408
 15,-2.3341194594,-0.3369901866\N,0,3.5232010449,1.6457162036,-0.551256
 152\H,0,4.3004034393,1.5886453542,0.1022023596\C,0,3.8055873585,2.4992
 082157,-1.6993677118\H,0,3.4277399128,1.9997402005,-2.595754851\C,0,5.
 3367571856,2.6018106991,-1.814527954\C,0,3.1768975745,3.910775467,-1.5
 798647599\H,0,3.7453201849,4.6083954578,-2.2039163355\H,0,3.2991642347
 ,4.2467331618,-0.5436600556\O,0,5.7863585289,3.1398203229,-2.937038728
 1\C,0,1.6980251435,3.9718374805,-1.9824958665\H,0,1.1240487729,3.22316
 51908,-1.4249787686\H,0,1.2958023034,4.9555644282,-1.7031250792\C,0,1.
 445334764,3.7377142771,-3.4806533054\H,0,0.3628586295,3.7009413103,-3.
 6573411397\H,0,1.8504640774,2.7759817197,-3.8020163825\N,0,2.003176481
 9,4.7566332181,-4.3638845988\H,0,1.5660712963,5.6675396495,-4.36413570
 23\N,0,4.0044197801,3.6838788798,-4.9117260389\H,0,4.6630619543,3.6241
 535397,-5.6879418802\H,0,5.0375660209,3.3314009653,-3.5925344921\N,0,3
 .2449124807,5.6094068789,-6.0971542342\H,0,2.4007351559,5.8592676069,-
 6.5977635956\H,0,4.0627444256,5.5547897473,-6.6891823928\C,0,3.1309267
 467,4.6247416261,-5.1247531994\O,0,6.0687946635,2.2325658776,-0.914905
 6611\\Version=ES64L-G16RevC.01\HF=-1868.0233231\RMSD=3.972e-09\Dipole=
 -11.5955938,0.7942288,4.0151512\Quadrupole=79.6359968,-79.3941588,-0.2
 41838,-14.3891797,-121.6046907,-28.2452095\PG=C01 [X(C23H45N8O7)]\\@
 The archive entry for this job was punched.


    THE DOUGHNUT CREED
 AS YOU RAMBLE ON THROUGH LIFE, BROTHER
 WHATEVER BE YOUR GOAL
 KEEP YOUR EYE UPON THE DOUGHNUT
 AND NOT UPON THE HOLE.
 Job cpu time:       0 days  0 hours  1 minutes 54.5 seconds.
 Elapsed time:       0 days  0 hours  0 minutes 34.5 seconds.
 File lengths (MBytes):  RWF=    344 Int=      0 D2E=      0 Chk=     48 Scr=     16
 Normal termination of Gaussian 16 at Thu Jun 30 14:28:43 2022.
