 Entering Gaussian System, Link 0=/opt/software/Gaussian/g16-AVX-C.01/g16/g16
 Input=charge-conf-34.com
 Output=charge-conf-34.log
 Initial command:
 /opt/software/Gaussian/g16-AVX-C.01/g16/l1.exe "/mnt/gs18/scratch/users/kengmith/Gau-45373.inp" -scrdir="/mnt/gs18/scratch/users/kengmith/"
 Entering Link 1 = /opt/software/Gaussian/g16-AVX-C.01/g16/l1.exe PID=     45383.
  
 Copyright (c) 1988-2019, Gaussian, Inc.  All Rights Reserved.
  
 This is part of the Gaussian(R) 16 program.  It is based on
 the Gaussian(R) 09 system (copyright 2009, Gaussian, Inc.),
 the Gaussian(R) 03 system (copyright 2003, Gaussian, Inc.),
 the Gaussian(R) 98 system (copyright 1998, Gaussian, Inc.),
 the Gaussian(R) 94 system (copyright 1995, Gaussian, Inc.),
 the Gaussian 92(TM) system (copyright 1992, Gaussian, Inc.),
 the Gaussian 90(TM) system (copyright 1990, Gaussian, Inc.),
 the Gaussian 88(TM) system (copyright 1988, Gaussian, Inc.),
 the Gaussian 86(TM) system (copyright 1986, Carnegie Mellon
 University), and the Gaussian 82(TM) system (copyright 1983,
 Carnegie Mellon University). Gaussian is a federally registered
 trademark of Gaussian, Inc.
  
 This software contains proprietary and confidential information,
 including trade secrets, belonging to Gaussian, Inc.
  
 This software is provided under written license and may be
 used, copied, transmitted, or stored only in accord with that
 written license.
  
 The following legend is applicable only to US Government
 contracts under FAR:
  
                    RESTRICTED RIGHTS LEGEND
  
 Use, reproduction and disclosure by the US Government is
 subject to restrictions as set forth in subparagraphs (a)
 and (c) of the Commercial Computer Software - Restricted
 Rights clause in FAR 52.227-19.
  
 Gaussian, Inc.
 340 Quinnipiac St., Bldg. 40, Wallingford CT 06492
  
  
 ---------------------------------------------------------------
 Warning -- This program may not be used in any manner that
 competes with the business of Gaussian, Inc. or will provide
 assistance to any competitor of Gaussian, Inc.  The licensee
 of this program is prohibited from giving any competitor of
 Gaussian, Inc. access to this program.  By using this program,
 the user acknowledges that Gaussian, Inc. is engaged in the
 business of creating and licensing software in the field of
 computational chemistry and represents and warrants to the
 licensee that it is not a competitor of Gaussian, Inc. and that
 it will not use this program in any manner prohibited above.
 ---------------------------------------------------------------
  

 Cite this work as:
 Gaussian 16, Revision C.01,
 M. J. Frisch, G. W. Trucks, H. B. Schlegel, G. E. Scuseria, 
 M. A. Robb, J. R. Cheeseman, G. Scalmani, V. Barone, 
 G. A. Petersson, H. Nakatsuji, X. Li, M. Caricato, A. V. Marenich, 
 J. Bloino, B. G. Janesko, R. Gomperts, B. Mennucci, H. P. Hratchian, 
 J. V. Ortiz, A. F. Izmaylov, J. L. Sonnenberg, D. Williams-Young, 
 F. Ding, F. Lipparini, F. Egidi, J. Goings, B. Peng, A. Petrone, 
 T. Henderson, D. Ranasinghe, V. G. Zakrzewski, J. Gao, N. Rega, 
 G. Zheng, W. Liang, M. Hada, M. Ehara, K. Toyota, R. Fukuda, 
 J. Hasegawa, M. Ishida, T. Nakajima, Y. Honda, O. Kitao, H. Nakai, 
 T. Vreven, K. Throssell, J. A. Montgomery, Jr., J. E. Peralta, 
 F. Ogliaro, M. J. Bearpark, J. J. Heyd, E. N. Brothers, K. N. Kudin, 
 V. N. Staroverov, T. A. Keith, R. Kobayashi, J. Normand, 
 K. Raghavachari, A. P. Rendell, J. C. Burant, S. S. Iyengar, 
 J. Tomasi, M. Cossi, J. M. Millam, M. Klene, C. Adamo, R. Cammi, 
 J. W. Ochterski, R. L. Martin, K. Morokuma, O. Farkas, 
 J. B. Foresman, and D. J. Fox, Gaussian, Inc., Wallingford CT, 2019.
 
 ******************************************
 Gaussian 16:  ES64L-G16RevC.01  3-Jul-2019
                30-Jun-2022 
 ******************************************
 %mem=8gb
 %nproc=4
 Will use up to    4 processors via shared memory.
 %chk=conf-34.chk
 -------------------------------------------------------------------
 # B3LYP/6-31G* guess=read geom=check nosymm integral(ultrafinegrid)
 -------------------------------------------------------------------
 1/29=2,38=1,172=1/1;
 2/12=2,15=1,40=1/2;
 3/5=1,6=6,7=1,11=2,14=-4,25=1,30=1,74=-5,75=-5,116=-2/1,2,3;
 4/5=1/1;
 5/5=2,38=6/2;
 6/7=2,8=2,9=2,10=2,28=1/1;
 99/5=1,9=1/99;
 -----------------------------------------------------
 Candidate Structure: Conf:34 Charge calc in gas phase
 -----------------------------------------------------
 Structure from the checkpoint file:  "conf-34.chk"
 Charge =  1 Multiplicity = 1
 Redundant internal coordinates found in file.  (old form).
 N,0,-7.052224981,3.410056344,4.8406322692
 H,0,-7.2826899448,3.6124465354,5.8174301526
 H,0,-5.9965477806,3.4173365803,4.7322449971
 H,0,-7.4961328907,4.1160971365,4.2479403032
 C,0,-7.4050858327,1.9917145985,4.4234434649
 H,0,-8.1287656939,1.6003701034,5.1445659205
 C,0,-6.025191651,1.2842816489,4.5406351246
 C,0,-8.0074873587,1.9765196876,2.9891886919
 H,0,-7.2198821127,2.2944546412,2.2928982281
 O,0,-5.0190485586,2.0042091548,4.5774076815
 C,0,-8.4279254652,0.550322584,2.5882481994
 H,0,-9.1251901069,0.113846414,3.3163448027
 H,0,-7.5735992846,-0.1171938008,2.451984232
 H,0,-8.9511830479,0.590332249,1.6285648393
 C,0,-9.2186950715,2.9221725475,2.8812756942
 H,0,-10.009365094,2.6501251412,3.5912418755
 H,0,-8.9813949335,3.9856139904,3.0276767913
 H,0,-9.6398763414,2.8539131652,1.8743866518
 N,0,-6.000051348,-0.0527289493,4.6023673406
 H,0,-6.8626088205,-0.5588416867,4.4407450097
 C,0,-4.7537779383,-0.8063854832,4.3345229925
 H,0,-3.9581906008,-0.3106033348,4.8949897509
 C,0,-4.5230698301,-0.691104447,2.8131615589
 C,0,-4.9155551509,-2.2571852839,4.7766524311
 H,0,-3.9759917853,-2.7965379159,4.6259651213
 H,0,-5.1782359035,-2.3143821725,5.8372410558
 H,0,-5.6855629357,-2.7543499498,4.1782649577
 O,0,-5.3481208804,-1.1914120616,2.0348641335
 N,0,-3.4588998785,0.0261535101,2.4325392858
 H,0,-2.8121192668,0.4502680219,3.0950653907
 C,0,-3.1668165132,0.3556311853,1.0467496316
 H,0,-3.3299163895,-0.5364194549,0.4316757249
 C,0,-1.6874647613,0.7957577741,1.0176315564
 C,0,-4.0667367512,1.5101034235,0.5362949696
 H,0,-3.7592669324,2.4452632849,1.0171106669
 H,0,-3.9093367168,1.6189673758,-0.5470331794
 O,0,-1.1534649371,1.1901826846,2.0576166099
 O,0,-5.4415262625,1.3257132128,0.8434160121
 H,0,-5.6281531636,0.368650497,0.8071955071
 N,0,-1.0968461004,0.7614932106,-0.1850302547
 H,0,-1.5639847969,0.4101777262,-1.0188079742
 C,0,0.2697308564,1.2114239504,-0.441064348
 H,0,0.4316022391,2.146536681,0.1028869918
 C,0,0.3277622737,1.4466571209,-1.9630790144
 C,0,1.2955773733,0.145035731,0.0251136636
 H,0,1.147597689,-0.7493575075,-0.5947973844
 H,0,1.0188379277,-0.1259420033,1.0517010952
 O,0,-0.4618173563,0.8514608896,-2.7099317669
 C,0,2.7847745382,0.5498447534,0.0086777658
 H,0,3.0654002185,0.8584838009,-1.0066237671
 C,0,3.0861280642,1.7201605168,0.9585438226
 H,0,2.8010871652,1.4725072986,1.9892485485
 H,0,2.5567841925,2.638805199,0.6798328671
 H,0,4.1555421395,1.9555512409,0.9490384528
 C,0,3.6449250224,-0.6707210851,0.3729717954
 H,0,3.4184303187,-1.0246342306,1.3872951475
 H,0,3.4727470352,-1.5042139413,-0.3184866472
 H,0,4.7109084246,-0.4204075167,0.3378690791
 N,0,1.2667657981,2.3008984101,-2.3949143047
 H,0,1.9966631448,2.668190271,-1.7810324303
 C,0,1.6389765032,2.4408264536,-3.7957700126
 H,0,1.7041990592,1.4338458679,-4.230615991
 C,0,3.0923889598,3.0298675404,-3.7980679339
 C,0,0.5889911861,3.2565356155,-4.6155784486
 H,0,1.0158593925,4.2188616537,-4.9261299232
 H,0,-0.2341369597,3.4911503887,-3.935872064
 O,0,3.5845017698,3.2624865039,-4.9604546195
 C,0,-0.0061528463,2.5107324693,-5.8331005258
 H,0,-0.0989101514,1.4481818862,-5.5810252223
 H,0,-1.0239549514,2.874038736,-6.0205739943
 C,0,0.7629225494,2.6759857332,-7.1581153189
 H,0,0.5931829624,3.6827137756,-7.5629892705
 H,0,0.3770172019,1.9601010482,-7.8951408029
 N,0,2.1948452594,2.4905239258,-6.9656931378
 H,0,2.6590126297,2.929826403,-6.0842540668
 N,0,2.7762581006,1.3201165561,-8.929195546
 H,0,3.3004318881,0.52080429,-9.2562159325
 H,0,1.8429951674,1.4172965408,-9.2997757739
 N,0,4.2929255826,1.5984192032,-7.18441795
 H,0,4.4786876321,2.0703066754,-6.2927954027
 H,0,5.0681564506,1.5276293726,-7.8293449683
 C,0,3.0541760626,1.8149965405,-7.6948402628
 O,0,3.6465655299,3.1958721732,-2.7066149869
 Recover connectivity data from disk.
                           ----------------------------
                           !    Current Parameters    !
                           ! (Angstroms and Degrees)  !
 --------------------------                            --------------------------
 ! Name  Definition              Value                                          !
 --------------------------------------------------------------------------------
 ! R1    R(1,2)                  1.0238                                         !
 ! R2    R(1,3)                  1.0613                                         !
 ! R3    R(1,4)                  1.0231                                         !
 ! R4    R(1,5)                  1.52                                           !
 ! R5    R(5,6)                  1.094                                          !
 ! R6    R(5,7)                  1.5551                                         !
 ! R7    R(5,8)                  1.5557                                         !
 ! R8    R(7,10)                 1.2377                                         !
 ! R9    R(7,19)                 1.3387                                         !
 ! R10   R(8,9)                  1.0983                                         !
 ! R11   R(8,11)                 1.54                                           !
 ! R12   R(8,15)                 1.5404                                         !
 ! R13   R(11,12)                1.0986                                         !
 ! R14   R(11,13)                1.0927                                         !
 ! R15   R(11,14)                1.0938                                         !
 ! R16   R(15,16)                1.0969                                         !
 ! R17   R(15,17)                1.0994                                         !
 ! R18   R(15,18)                1.0936                                         !
 ! R19   R(19,20)                1.0131                                         !
 ! R20   R(19,21)                1.4809                                         !
 ! R21   R(21,22)                1.0922                                         !
 ! R22   R(21,23)                1.5431                                         !
 ! R23   R(21,24)                1.5253                                         !
 ! R24   R(23,28)                1.2397                                         !
 ! R25   R(23,29)                1.3386                                         !
 ! R26   R(24,25)                1.0938                                         !
 ! R27   R(24,26)                1.0941                                         !
 ! R28   R(24,27)                1.0946                                         !
 ! R29   R(29,30)                1.0184                                         !
 ! R30   R(29,31)                1.4541                                         !
 ! R31   R(31,32)                1.0958                                         !
 ! R32   R(31,33)                1.5437                                         !
 ! R33   R(31,34)                1.5502                                         !
 ! R34   R(33,37)                1.2338                                         !
 ! R35   R(33,40)                1.3403                                         !
 ! R36   R(34,35)                1.0956                                         !
 ! R37   R(34,36)                1.1001                                         !
 ! R38   R(34,38)                1.4207                                         !
 ! R39   R(38,39)                0.9758                                         !
 ! R40   R(40,41)                1.0182                                         !
 ! R41   R(40,42)                1.4613                                         !
 ! R42   R(42,43)                1.0939                                         !
 ! R43   R(42,44)                1.5412                                         !
 ! R44   R(42,45)                1.5514                                         !
 ! R45   R(44,48)                1.2391                                         !
 ! R46   R(44,59)                1.3409                                         !
 ! R47   R(45,46)                1.0982                                         !
 ! R48   R(45,47)                1.0972                                         !
 ! R49   R(45,49)                1.5433                                         !
 ! R50   R(49,50)                1.0977                                         !
 ! R51   R(49,51)                1.5371                                         !
 ! R52   R(49,55)                1.537                                          !
 ! R53   R(51,52)                1.0977                                         !
 ! R54   R(51,53)                1.0963                                         !
 ! R55   R(51,54)                1.0951                                         !
 ! R56   R(55,56)                1.0979                                         !
 ! R57   R(55,57)                1.0966                                         !
 ! R58   R(55,58)                1.0955                                         !
 ! R59   R(59,60)                1.022                                          !
 ! R60   R(59,61)                1.4562                                         !
 ! R61   R(61,62)                1.0988                                         !
 ! R62   R(61,63)                1.5682                                         !
 ! R63   R(61,64)                1.562                                          !
 ! R64   R(63,67)                1.2835                                         !
 ! R65   R(63,83)                1.2353                                         !
 ! R66   R(64,65)                1.0976                                         !
 ! R67   R(64,66)                1.093                                          !
 ! R68   R(64,68)                1.5469                                         !
 ! R69   R(68,69)                1.096                                          !
 ! R70   R(68,70)                1.0968                                         !
 ! R71   R(68,71)                1.5409                                         !
 ! R72   R(71,72)                1.0983                                         !
 ! R73   R(71,73)                1.0976                                         !
 ! R74   R(71,74)                1.4566                                         !
 ! R75   R(74,75)                1.0887                                         !
 ! R76   R(74,82)                1.3139                                         !
 ! R77   R(76,77)                1.0102                                         !
 ! R78   R(76,78)                1.0088                                         !
 ! R79   R(76,82)                1.3586                                         !
 ! R80   R(79,80)                1.0258                                         !
 ! R81   R(79,81)                1.0109                                         !
 ! R82   R(79,82)                1.3572                                         !
 ! A1    A(2,1,3)              108.6632                                         !
 ! A2    A(2,1,4)              108.5782                                         !
 ! A3    A(2,1,5)              113.2084                                         !
 ! A4    A(3,1,4)              111.5732                                         !
 ! A5    A(3,1,5)              102.0815                                         !
 ! A6    A(4,1,5)              112.595                                          !
 ! A7    A(1,5,6)              107.8451                                         !
 ! A8    A(1,5,7)              101.4095                                         !
 ! A9    A(1,5,8)              110.6132                                         !
 ! A10   A(6,5,7)              111.9972                                         !
 ! A11   A(6,5,8)              110.3685                                         !
 ! A12   A(7,5,8)              114.1189                                         !
 ! A13   A(5,7,10)             117.3195                                         !
 ! A14   A(5,7,19)             118.3261                                         !
 ! A15   A(10,7,19)            124.3533                                         !
 ! A16   A(5,8,9)              107.6965                                         !
 ! A17   A(5,8,11)             110.7807                                         !
 ! A18   A(5,8,15)             111.2878                                         !
 ! A19   A(9,8,11)             107.3867                                         !
 ! A20   A(9,8,15)             109.9827                                         !
 ! A21   A(11,8,15)            109.6105                                         !
 ! A22   A(8,11,12)            111.6349                                         !
 ! A23   A(8,11,13)            112.6286                                         !
 ! A24   A(8,11,14)            108.9753                                         !
 ! A25   A(12,11,13)           109.6443                                         !
 ! A26   A(12,11,14)           107.0022                                         !
 ! A27   A(13,11,14)           106.6757                                         !
 ! A28   A(8,15,16)            111.6642                                         !
 ! A29   A(8,15,17)            114.5049                                         !
 ! A30   A(8,15,18)            109.209                                          !
 ! A31   A(16,15,17)           108.0169                                         !
 ! A32   A(16,15,18)           107.6284                                         !
 ! A33   A(17,15,18)           105.4337                                         !
 ! A34   A(7,19,20)            118.4                                            !
 ! A35   A(7,19,21)            121.0487                                         !
 ! A36   A(20,19,21)           115.6868                                         !
 ! A37   A(19,21,22)           106.8103                                         !
 ! A38   A(19,21,23)           105.4343                                         !
 ! A39   A(19,21,24)           110.0226                                         !
 ! A40   A(22,21,23)           111.2917                                         !
 ! A41   A(22,21,24)           111.1174                                         !
 ! A42   A(23,21,24)           111.8828                                         !
 ! A43   A(21,23,28)           119.2972                                         !
 ! A44   A(21,23,29)           116.0556                                         !
 ! A45   A(28,23,29)           124.5302                                         !
 ! A46   A(21,24,25)           109.754                                          !
 ! A47   A(21,24,26)           110.8651                                         !
 ! A48   A(21,24,27)           110.3753                                         !
 ! A49   A(25,24,26)           108.3001                                         !
 ! A50   A(25,24,27)           107.7575                                         !
 ! A51   A(26,24,27)           109.7113                                         !
 ! A52   A(23,29,30)           122.8926                                         !
 ! A53   A(23,29,31)           123.5119                                         !
 ! A54   A(30,29,31)           113.4578                                         !
 ! A55   A(29,31,32)           108.6995                                         !
 ! A56   A(29,31,33)           105.9668                                         !
 ! A57   A(29,31,34)           111.4662                                         !
 ! A58   A(32,31,33)           111.356                                          !
 ! A59   A(32,31,34)           109.5743                                         !
 ! A60   A(33,31,34)           109.7411                                         !
 ! A61   A(31,33,37)           119.3409                                         !
 ! A62   A(31,33,40)           115.5899                                         !
 ! A63   A(37,33,40)           125.0154                                         !
 ! A64   A(31,34,35)           109.1623                                         !
 ! A65   A(31,34,36)           108.3543                                         !
 ! A66   A(31,34,38)           113.1982                                         !
 ! A67   A(35,34,36)           107.9123                                         !
 ! A68   A(35,34,38)           106.7081                                         !
 ! A69   A(36,34,38)           111.3571                                         !
 ! A70   A(34,38,39)           107.7197                                         !
 ! A71   A(33,40,41)           122.7796                                         !
 ! A72   A(33,40,42)           124.1546                                         !
 ! A73   A(41,40,42)           113.0654                                         !
 ! A74   A(40,42,43)           108.3287                                         !
 ! A75   A(40,42,44)           104.7873                                         !
 ! A76   A(40,42,45)           110.7368                                         !
 ! A77   A(43,42,44)           110.796                                          !
 ! A78   A(43,42,45)           109.8975                                         !
 ! A79   A(44,42,45)           112.1336                                         !
 ! A80   A(42,44,48)           119.8621                                         !
 ! A81   A(42,44,59)           116.2097                                         !
 ! A82   A(48,44,59)           123.9261                                         !
 ! A83   A(42,45,46)           107.5222                                         !
 ! A84   A(42,45,47)           106.5065                                         !
 ! A85   A(42,45,49)           117.036                                          !
 ! A86   A(46,45,47)           107.0383                                         !
 ! A87   A(46,45,49)           109.7318                                         !
 ! A88   A(47,45,49)           108.549                                          !
 ! A89   A(45,49,50)           109.2868                                         !
 ! A90   A(45,49,51)           112.4763                                         !
 ! A91   A(45,49,55)           109.2192                                         !
 ! A92   A(50,49,51)           107.9018                                         !
 ! A93   A(50,49,55)           107.4247                                         !
 ! A94   A(51,49,55)           110.3922                                         !
 ! A95   A(49,51,52)           110.9504                                         !
 ! A96   A(49,51,53)           112.7209                                         !
 ! A97   A(49,51,54)           110.4727                                         !
 ! A98   A(52,51,53)           107.6014                                         !
 ! A99   A(52,51,54)           108.0737                                         !
 ! A100  A(53,51,54)           106.8112                                         !
 ! A101  A(49,55,56)           111.0701                                         !
 ! A102  A(49,55,57)           111.4865                                         !
 ! A103  A(49,55,58)           110.8237                                         !
 ! A104  A(56,55,57)           107.7672                                         !
 ! A105  A(56,55,58)           107.6971                                         !
 ! A106  A(57,55,58)           107.8329                                         !
 ! A107  A(44,59,60)           122.3875                                         !
 ! A108  A(44,59,61)           123.3692                                         !
 ! A109  A(60,59,61)           111.1464                                         !
 ! A110  A(59,61,62)           107.9277                                         !
 ! A111  A(59,61,63)           105.9257                                         !
 ! A112  A(59,61,64)           112.5353                                         !
 ! A113  A(62,61,63)           106.7759                                         !
 ! A114  A(62,61,64)           108.1058                                         !
 ! A115  A(63,61,64)           115.2177                                         !
 ! A116  A(61,63,67)           115.1338                                         !
 ! A117  A(61,63,83)           117.7072                                         !
 ! A118  A(67,63,83)           127.1434                                         !
 ! A119  A(61,64,65)           110.1771                                         !
 ! A120  A(61,64,66)           106.9743                                         !
 ! A121  A(61,64,68)           114.8306                                         !
 ! A122  A(65,64,66)           106.2987                                         !
 ! A123  A(65,64,68)           110.466                                          !
 ! A124  A(66,64,68)           107.6514                                         !
 ! A125  A(64,68,69)           108.6004                                         !
 ! A126  A(64,68,70)           109.3811                                         !
 ! A127  A(64,68,71)           115.6629                                         !
 ! A128  A(69,68,70)           106.3739                                         !
 ! A129  A(69,68,71)           110.12                                           !
 ! A130  A(70,68,71)           106.2984                                         !
 ! A131  A(68,71,72)           109.7645                                         !
 ! A132  A(68,71,73)           109.3896                                         !
 ! A133  A(68,71,74)           111.3081                                         !
 ! A134  A(72,71,73)           107.217                                          !
 ! A135  A(72,71,74)           108.5015                                         !
 ! A136  A(73,71,74)           110.5668                                         !
 ! A137  A(71,74,75)           118.3377                                         !
 ! A138  A(71,74,82)           129.4245                                         !
 ! A139  A(75,74,82)           112.2028                                         !
 ! A140  A(77,76,78)           115.9315                                         !
 ! A141  A(77,76,82)           118.4353                                         !
 ! A142  A(78,76,82)           119.2022                                         !
 ! A143  A(80,79,81)           116.6079                                         !
 ! A144  A(80,79,82)           114.7584                                         !
 ! A145  A(81,79,82)           118.1116                                         !
 ! A146  A(74,82,76)           123.895                                          !
 ! A147  A(74,82,79)           118.0524                                         !
 ! A148  A(76,82,79)           118.0526                                         !
 ! D1    D(2,1,5,6)             18.8726                                         !
 ! D2    D(2,1,5,7)            -98.928                                          !
 ! D3    D(2,1,5,8)            139.6531                                         !
 ! D4    D(3,1,5,6)            135.478                                          !
 ! D5    D(3,1,5,7)             17.6774                                         !
 ! D6    D(3,1,5,8)           -103.7415                                         !
 ! D7    D(4,1,5,6)           -104.763                                          !
 ! D8    D(4,1,5,7)            137.4365                                         !
 ! D9    D(4,1,5,8)             16.0175                                         !
 ! D10   D(1,5,7,10)           -17.5364                                         !
 ! D11   D(1,5,7,19)           162.1029                                         !
 ! D12   D(6,5,7,10)          -132.2885                                         !
 ! D13   D(6,5,7,19)            47.3508                                         !
 ! D14   D(8,5,7,10)           101.4015                                         !
 ! D15   D(8,5,7,19)           -78.9592                                         !
 ! D16   D(1,5,8,9)             65.5112                                         !
 ! D17   D(1,5,8,11)          -177.3229                                         !
 ! D18   D(1,5,8,15)           -55.1061                                         !
 ! D19   D(6,5,8,9)           -175.221                                          !
 ! D20   D(6,5,8,11)           -58.0551                                         !
 ! D21   D(6,5,8,15)            64.1616                                         !
 ! D22   D(7,5,8,9)            -48.0652                                         !
 ! D23   D(7,5,8,11)            69.1007                                         !
 ! D24   D(7,5,8,15)          -168.6825                                         !
 ! D25   D(5,7,19,20)            8.4318                                         !
 ! D26   D(5,7,19,21)          162.6777                                         !
 ! D27   D(10,7,19,20)        -171.9564                                         !
 ! D28   D(10,7,19,21)         -17.7104                                         !
 ! D29   D(5,8,11,12)           55.5049                                         !
 ! D30   D(5,8,11,13)          -68.3544                                         !
 ! D31   D(5,8,11,14)          173.476                                          !
 ! D32   D(9,8,11,12)          172.8608                                         !
 ! D33   D(9,8,11,13)           49.0016                                         !
 ! D34   D(9,8,11,14)          -69.168                                          !
 ! D35   D(15,8,11,12)         -67.686                                          !
 ! D36   D(15,8,11,13)         168.4547                                         !
 ! D37   D(15,8,11,14)          50.2851                                         !
 ! D38   D(5,8,15,16)          -58.7523                                         !
 ! D39   D(5,8,15,17)           64.3967                                         !
 ! D40   D(5,8,15,18)         -177.6646                                         !
 ! D41   D(9,8,15,16)         -178.0152                                         !
 ! D42   D(9,8,15,17)          -54.8662                                         !
 ! D43   D(9,8,15,18)           63.0726                                         !
 ! D44   D(11,8,15,16)          64.1387                                         !
 ! D45   D(11,8,15,17)        -172.7123                                         !
 ! D46   D(11,8,15,18)         -54.7735                                         !
 ! D47   D(7,19,21,22)          46.4369                                         !
 ! D48   D(7,19,21,23)         -72.0481                                         !
 ! D49   D(7,19,21,24)         167.1454                                         !
 ! D50   D(20,19,21,22)       -158.6586                                         !
 ! D51   D(20,19,21,23)         82.8564                                         !
 ! D52   D(20,19,21,24)        -37.9501                                         !
 ! D53   D(19,21,23,28)        -63.7815                                         !
 ! D54   D(19,21,23,29)        112.4642                                         !
 ! D55   D(22,21,23,28)       -179.2237                                         !
 ! D56   D(22,21,23,29)         -2.9779                                         !
 ! D57   D(24,21,23,28)         55.8007                                         !
 ! D58   D(24,21,23,29)       -127.9535                                         !
 ! D59   D(19,21,24,25)       -177.0212                                         !
 ! D60   D(19,21,24,26)        -57.4224                                         !
 ! D61   D(19,21,24,27)         64.3544                                         !
 ! D62   D(22,21,24,25)        -58.9406                                         !
 ! D63   D(22,21,24,26)         60.6582                                         !
 ! D64   D(22,21,24,27)       -177.5651                                         !
 ! D65   D(23,21,24,25)         66.1314                                         !
 ! D66   D(23,21,24,26)       -174.2698                                         !
 ! D67   D(23,21,24,27)        -52.493                                          !
 ! D68   D(21,23,29,30)          2.0353                                         !
 ! D69   D(21,23,29,31)       -173.4173                                         !
 ! D70   D(28,23,29,30)        178.0607                                         !
 ! D71   D(28,23,29,31)          2.6081                                         !
 ! D72   D(23,29,31,32)        -43.5966                                         !
 ! D73   D(23,29,31,33)       -163.3802                                         !
 ! D74   D(23,29,31,34)         77.2779                                         !
 ! D75   D(30,29,31,32)        140.5651                                         !
 ! D76   D(30,29,31,33)         20.7815                                         !
 ! D77   D(30,29,31,34)        -98.5604                                         !
 ! D78   D(29,31,33,37)        -21.6913                                         !
 ! D79   D(29,31,33,40)        160.8421                                         !
 ! D80   D(32,31,33,37)       -139.721                                          !
 ! D81   D(32,31,33,40)         42.8124                                         !
 ! D82   D(34,31,33,37)         98.7783                                         !
 ! D83   D(34,31,33,40)        -78.6883                                         !
 ! D84   D(29,31,34,35)         70.8341                                         !
 ! D85   D(29,31,34,36)       -171.8856                                         !
 ! D86   D(29,31,34,38)        -47.855                                          !
 ! D87   D(32,31,34,35)       -168.8043                                         !
 ! D88   D(32,31,34,36)        -51.524                                          !
 ! D89   D(32,31,34,38)         72.5065                                         !
 ! D90   D(33,31,34,35)        -46.2408                                         !
 ! D91   D(33,31,34,36)         71.0395                                         !
 ! D92   D(33,31,34,38)       -164.9299                                         !
 ! D93   D(31,33,40,41)         -4.0298                                         !
 ! D94   D(31,33,40,42)        176.2506                                         !
 ! D95   D(37,33,40,41)        178.6667                                         !
 ! D96   D(37,33,40,42)         -1.0529                                         !
 ! D97   D(31,34,38,39)        -33.8569                                         !
 ! D98   D(35,34,38,39)       -153.9564                                         !
 ! D99   D(36,34,38,39)         88.5164                                         !
 ! D100  D(33,40,42,43)        -42.4737                                         !
 ! D101  D(33,40,42,44)       -160.7859                                         !
 ! D102  D(33,40,42,45)         78.1092                                         !
 ! D103  D(41,40,42,43)        137.7825                                         !
 ! D104  D(41,40,42,44)         19.4704                                         !
 ! D105  D(41,40,42,45)       -101.6346                                         !
 ! D106  D(40,42,44,48)        -24.1279                                         !
 ! D107  D(40,42,44,59)        156.3693                                         !
 ! D108  D(43,42,44,48)       -140.7535                                         !
 ! D109  D(43,42,44,59)         39.7437                                         !
 ! D110  D(45,42,44,48)         96.0514                                         !
 ! D111  D(45,42,44,59)        -83.4514                                         !
 ! D112  D(40,42,45,46)         64.4634                                         !
 ! D113  D(40,42,45,47)        -49.9952                                         !
 ! D114  D(40,42,45,49)       -171.5774                                         !
 ! D115  D(43,42,45,46)       -175.8911                                         !
 ! D116  D(43,42,45,47)         69.6503                                         !
 ! D117  D(43,42,45,49)        -51.932                                          !
 ! D118  D(44,42,45,46)        -52.1916                                         !
 ! D119  D(44,42,45,47)       -166.6502                                         !
 ! D120  D(44,42,45,49)         71.7676                                         !
 ! D121  D(42,44,59,60)          9.1323                                         !
 ! D122  D(42,44,59,61)        167.4581                                         !
 ! D123  D(48,44,59,60)       -170.348                                          !
 ! D124  D(48,44,59,61)        -12.0222                                         !
 ! D125  D(42,45,49,50)        -57.4533                                         !
 ! D126  D(42,45,49,51)         62.3626                                         !
 ! D127  D(42,45,49,55)       -174.7098                                         !
 ! D128  D(46,45,49,50)         65.376                                          !
 ! D129  D(46,45,49,51)       -174.8081                                         !
 ! D130  D(46,45,49,55)        -51.8805                                         !
 ! D131  D(47,45,49,50)       -177.9638                                         !
 ! D132  D(47,45,49,51)        -58.1479                                         !
 ! D133  D(47,45,49,55)         64.7796                                         !
 ! D134  D(45,49,51,52)         58.067                                          !
 ! D135  D(45,49,51,53)        -62.6878                                         !
 ! D136  D(45,49,51,54)        177.9044                                         !
 ! D137  D(50,49,51,52)        178.6829                                         !
 ! D138  D(50,49,51,53)         57.9282                                         !
 ! D139  D(50,49,51,54)        -61.4797                                         !
 ! D140  D(55,49,51,52)        -64.2                                            !
 ! D141  D(55,49,51,53)        175.0453                                         !
 ! D142  D(55,49,51,54)         55.6374                                         !
 ! D143  D(45,49,55,56)        -62.1376                                         !
 ! D144  D(45,49,55,57)         58.0672                                         !
 ! D145  D(45,49,55,58)        178.1884                                         !
 ! D146  D(50,49,55,56)        179.436                                          !
 ! D147  D(50,49,55,57)        -60.3592                                         !
 ! D148  D(50,49,55,58)         59.762                                          !
 ! D149  D(51,49,55,56)         62.0241                                         !
 ! D150  D(51,49,55,57)       -177.7711                                         !
 ! D151  D(51,49,55,58)        -57.6499                                         !
 ! D152  D(44,59,61,62)        -42.6815                                         !
 ! D153  D(44,59,61,63)       -156.7471                                         !
 ! D154  D(44,59,61,64)         76.5196                                         !
 ! D155  D(60,59,61,62)        117.7827                                         !
 ! D156  D(60,59,61,63)          3.7172                                         !
 ! D157  D(60,59,61,64)       -123.0162                                         !
 ! D158  D(59,61,63,67)       -178.0696                                         !
 ! D159  D(59,61,63,83)          3.2602                                         !
 ! D160  D(62,61,63,67)         67.0736                                         !
 ! D161  D(62,61,63,83)       -111.5965                                         !
 ! D162  D(64,61,63,67)        -52.976                                          !
 ! D163  D(64,61,63,83)        128.3539                                         !
 ! D164  D(59,61,64,65)        111.9199                                         !
 ! D165  D(59,61,64,66)         -3.2169                                         !
 ! D166  D(59,61,64,68)       -122.5949                                         !
 ! D167  D(62,61,64,65)       -128.9828                                         !
 ! D168  D(62,61,64,66)        115.8804                                         !
 ! D169  D(62,61,64,68)         -3.4976                                         !
 ! D170  D(63,61,64,65)         -9.6662                                         !
 ! D171  D(63,61,64,66)       -124.803                                          !
 ! D172  D(63,61,64,68)        115.8189                                         !
 ! D173  D(61,64,68,69)         35.0626                                         !
 ! D174  D(61,64,68,70)        150.7652                                         !
 ! D175  D(61,64,68,71)        -89.2957                                         !
 ! D176  D(65,64,68,69)        160.3972                                         !
 ! D177  D(65,64,68,70)        -83.9001                                         !
 ! D178  D(65,64,68,71)         36.039                                          !
 ! D179  D(66,64,68,69)        -83.9377                                         !
 ! D180  D(66,64,68,70)         31.765                                          !
 ! D181  D(66,64,68,71)        151.7041                                         !
 ! D182  D(64,68,71,72)        -73.6509                                         !
 ! D183  D(64,68,71,73)        168.9688                                         !
 ! D184  D(64,68,71,74)         46.4874                                         !
 ! D185  D(69,68,71,72)        162.7837                                         !
 ! D186  D(69,68,71,73)         45.4034                                         !
 ! D187  D(69,68,71,74)        -77.0781                                         !
 ! D188  D(70,68,71,72)         47.9546                                         !
 ! D189  D(70,68,71,73)        -69.4257                                         !
 ! D190  D(70,68,71,74)        168.0929                                         !
 ! D191  D(68,71,74,75)        -41.6639                                         !
 ! D192  D(68,71,74,82)        136.0009                                         !
 ! D193  D(72,71,74,75)         79.218                                          !
 ! D194  D(72,71,74,82)       -103.1172                                         !
 ! D195  D(73,71,74,75)       -163.4642                                         !
 ! D196  D(73,71,74,82)         14.2006                                         !
 ! D197  D(71,74,82,76)         11.2419                                         !
 ! D198  D(71,74,82,79)       -168.7394                                         !
 ! D199  D(75,74,82,76)       -170.978                                          !
 ! D200  D(75,74,82,79)          9.0406                                         !
 ! D201  D(77,76,82,74)       -154.7543                                         !
 ! D202  D(77,76,82,79)         25.227                                          !
 ! D203  D(78,76,82,74)         -4.0207                                         !
 ! D204  D(78,76,82,79)        175.9606                                         !
 ! D205  D(80,79,82,74)         -5.7322                                         !
 ! D206  D(80,79,82,76)        174.2854                                         !
 ! D207  D(81,79,82,74)       -149.3961                                         !
 ! D208  D(81,79,82,76)         30.6215                                         !
 --------------------------------------------------------------------------------
 Symmetry turned off by external request.
 Stoichiometry    C23H45N8O7(1+)
 Framework group  C1[X(C23H45N8O7)]
 Deg. of freedom   243
 Full point group                 C1      NOp   1
                          Input orientation:                          
 ---------------------------------------------------------------------
 Center     Atomic      Atomic             Coordinates (Angstroms)
 Number     Number       Type             X           Y           Z
 ---------------------------------------------------------------------
      1          7           0       -7.052225    3.410056    4.840632
      2          1           0       -7.282690    3.612447    5.817430
      3          1           0       -5.996548    3.417337    4.732245
      4          1           0       -7.496133    4.116097    4.247940
      5          6           0       -7.405086    1.991715    4.423443
      6          1           0       -8.128766    1.600370    5.144566
      7          6           0       -6.025192    1.284282    4.540635
      8          6           0       -8.007487    1.976520    2.989189
      9          1           0       -7.219882    2.294455    2.292898
     10          8           0       -5.019049    2.004209    4.577408
     11          6           0       -8.427925    0.550323    2.588248
     12          1           0       -9.125190    0.113846    3.316345
     13          1           0       -7.573599   -0.117194    2.451984
     14          1           0       -8.951183    0.590332    1.628565
     15          6           0       -9.218695    2.922173    2.881276
     16          1           0      -10.009365    2.650125    3.591242
     17          1           0       -8.981395    3.985614    3.027677
     18          1           0       -9.639876    2.853913    1.874387
     19          7           0       -6.000051   -0.052729    4.602367
     20          1           0       -6.862609   -0.558842    4.440745
     21          6           0       -4.753778   -0.806385    4.334523
     22          1           0       -3.958191   -0.310603    4.894990
     23          6           0       -4.523070   -0.691104    2.813162
     24          6           0       -4.915555   -2.257185    4.776652
     25          1           0       -3.975992   -2.796538    4.625965
     26          1           0       -5.178236   -2.314382    5.837241
     27          1           0       -5.685563   -2.754350    4.178265
     28          8           0       -5.348121   -1.191412    2.034864
     29          7           0       -3.458900    0.026154    2.432539
     30          1           0       -2.812119    0.450268    3.095065
     31          6           0       -3.166817    0.355631    1.046750
     32          1           0       -3.329916   -0.536419    0.431676
     33          6           0       -1.687465    0.795758    1.017632
     34          6           0       -4.066737    1.510103    0.536295
     35          1           0       -3.759267    2.445263    1.017111
     36          1           0       -3.909337    1.618967   -0.547033
     37          8           0       -1.153465    1.190183    2.057617
     38          8           0       -5.441526    1.325713    0.843416
     39          1           0       -5.628153    0.368650    0.807196
     40          7           0       -1.096846    0.761493   -0.185030
     41          1           0       -1.563985    0.410178   -1.018808
     42          6           0        0.269731    1.211424   -0.441064
     43          1           0        0.431602    2.146537    0.102887
     44          6           0        0.327762    1.446657   -1.963079
     45          6           0        1.295577    0.145036    0.025114
     46          1           0        1.147598   -0.749358   -0.594797
     47          1           0        1.018838   -0.125942    1.051701
     48          8           0       -0.461817    0.851461   -2.709932
     49          6           0        2.784775    0.549845    0.008678
     50          1           0        3.065400    0.858484   -1.006624
     51          6           0        3.086128    1.720161    0.958544
     52          1           0        2.801087    1.472507    1.989249
     53          1           0        2.556784    2.638805    0.679833
     54          1           0        4.155542    1.955551    0.949038
     55          6           0        3.644925   -0.670721    0.372972
     56          1           0        3.418430   -1.024634    1.387295
     57          1           0        3.472747   -1.504214   -0.318487
     58          1           0        4.710908   -0.420408    0.337869
     59          7           0        1.266766    2.300898   -2.394914
     60          1           0        1.996663    2.668190   -1.781032
     61          6           0        1.638977    2.440826   -3.795770
     62          1           0        1.704199    1.433846   -4.230616
     63          6           0        3.092389    3.029868   -3.798068
     64          6           0        0.588991    3.256536   -4.615578
     65          1           0        1.015859    4.218862   -4.926130
     66          1           0       -0.234137    3.491150   -3.935872
     67          8           0        3.584502    3.262487   -4.960455
     68          6           0       -0.006153    2.510732   -5.833101
     69          1           0       -0.098910    1.448182   -5.581025
     70          1           0       -1.023955    2.874039   -6.020574
     71          6           0        0.762923    2.675986   -7.158115
     72          1           0        0.593183    3.682714   -7.562989
     73          1           0        0.377017    1.960101   -7.895141
     74          7           0        2.194845    2.490524   -6.965693
     75          1           0        2.659013    2.929826   -6.084254
     76          7           0        2.776258    1.320117   -8.929196
     77          1           0        3.300432    0.520804   -9.256216
     78          1           0        1.842995    1.417297   -9.299776
     79          7           0        4.292926    1.598419   -7.184418
     80          1           0        4.478688    2.070307   -6.292795
     81          1           0        5.068156    1.527629   -7.829345
     82          6           0        3.054176    1.814997   -7.694840
     83          8           0        3.646566    3.195872   -2.706615
 ---------------------------------------------------------------------
 Rotational constants (GHZ):           0.1720020           0.0300066           0.0277192
 Standard basis: 6-31G(d) (6D, 7F)
   660 basis functions,  1244 primitive gaussians,   660 cartesian basis functions
   147 alpha electrons      147 beta electrons
       nuclear repulsion energy      4449.5095653702 Hartrees.
 NAtoms=   83 NActive=   83 NUniq=   83 SFac= 1.00D+00 NAtFMM=   60 NAOKFM=T Big=T
 Integral buffers will be    131072 words long.
 Raffenetti 2 integral format.
 Two-electron integral symmetry is turned off.
 One-electron integrals computed using PRISM.
 NBasis=   660 RedAO= T EigKep=  1.75D-03  NBF=   660
 NBsUse=   660 1.00D-06 EigRej= -1.00D+00 NBFU=   660
 Initial guess from the checkpoint file:  "conf-34.chk"
 B after Tr=     0.000000    0.000000    0.000000
         Rot=    1.000000    0.000000    0.000000    0.000000 Ang=   0.00 deg.
 Requested convergence on RMS density matrix=1.00D-08 within 128 cycles.
 Requested convergence on MAX density matrix=1.00D-06.
 Requested convergence on             energy=1.00D-06.
 No special actions if energy rises.
 SCF Done:  E(RB3LYP) =  -1868.01384157     A.U. after    1 cycles
            NFock=  1  Conv=0.50D-08     -V/T= 2.0094

 **********************************************************************

            Population analysis using the SCF Density.

 **********************************************************************

 Alpha  occ. eigenvalues --  -19.27278 -19.22597 -19.21383 -19.19092 -19.17067
 Alpha  occ. eigenvalues --  -19.14261 -19.13212 -14.59808 -14.50256 -14.45937
 Alpha  occ. eigenvalues --  -14.45554 -14.43514 -14.42895 -14.42868 -14.40078
 Alpha  occ. eigenvalues --  -10.43971 -10.40739 -10.40694 -10.38688 -10.36437
 Alpha  occ. eigenvalues --  -10.34824 -10.33876 -10.33772 -10.31977 -10.31941
 Alpha  occ. eigenvalues --  -10.31644 -10.31055 -10.30238 -10.29442 -10.29059
 Alpha  occ. eigenvalues --  -10.28328 -10.26824 -10.25019 -10.24046 -10.23611
 Alpha  occ. eigenvalues --  -10.23237 -10.21364 -10.21257  -1.19736  -1.13989
 Alpha  occ. eigenvalues --   -1.13381  -1.11029  -1.09646  -1.09447  -1.08710
 Alpha  occ. eigenvalues --   -1.06911  -1.06502  -1.01764  -0.99575  -0.99338
 Alpha  occ. eigenvalues --   -0.98196  -0.97400  -0.96502  -0.94824  -0.89298
 Alpha  occ. eigenvalues --   -0.86428  -0.85512  -0.85196  -0.84143  -0.81169
 Alpha  occ. eigenvalues --   -0.80606  -0.78497  -0.76375  -0.74714  -0.74068
 Alpha  occ. eigenvalues --   -0.73627  -0.73480  -0.72275  -0.72112  -0.71173
 Alpha  occ. eigenvalues --   -0.70421  -0.69877  -0.67970  -0.66727  -0.66184
 Alpha  occ. eigenvalues --   -0.65766  -0.64982  -0.63648  -0.62845  -0.62286
 Alpha  occ. eigenvalues --   -0.62052  -0.60947  -0.60254  -0.59355  -0.59077
 Alpha  occ. eigenvalues --   -0.58753  -0.57891  -0.57295  -0.57060  -0.56325
 Alpha  occ. eigenvalues --   -0.55957  -0.55588  -0.54839  -0.53731  -0.53455
 Alpha  occ. eigenvalues --   -0.53153  -0.52441  -0.52203  -0.51982  -0.51609
 Alpha  occ. eigenvalues --   -0.51016  -0.50739  -0.50672  -0.49895  -0.49816
 Alpha  occ. eigenvalues --   -0.49527  -0.48969  -0.48692  -0.48275  -0.47733
 Alpha  occ. eigenvalues --   -0.47320  -0.47143  -0.47017  -0.46765  -0.46637
 Alpha  occ. eigenvalues --   -0.46419  -0.46079  -0.45487  -0.45156  -0.45099
 Alpha  occ. eigenvalues --   -0.44169  -0.43221  -0.42591  -0.42183  -0.42075
 Alpha  occ. eigenvalues --   -0.41639  -0.41014  -0.40724  -0.40324  -0.40264
 Alpha  occ. eigenvalues --   -0.40174  -0.38783  -0.37807  -0.36968  -0.36730
 Alpha  occ. eigenvalues --   -0.36640  -0.36214  -0.35483  -0.34274  -0.33353
 Alpha  occ. eigenvalues --   -0.32998  -0.32289  -0.31060  -0.30558  -0.29494
 Alpha  occ. eigenvalues --   -0.28653  -0.27380
 Alpha virt. eigenvalues --   -0.13025  -0.11010  -0.08296  -0.06336  -0.05654
 Alpha virt. eigenvalues --   -0.05178  -0.04874  -0.02940  -0.02270  -0.01933
 Alpha virt. eigenvalues --   -0.00964  -0.00726   0.00809   0.00937   0.01552
 Alpha virt. eigenvalues --    0.01767   0.02085   0.02559   0.03143   0.03935
 Alpha virt. eigenvalues --    0.04164   0.04229   0.04711   0.04844   0.05474
 Alpha virt. eigenvalues --    0.05828   0.06061   0.06269   0.06867   0.07064
 Alpha virt. eigenvalues --    0.07300   0.07929   0.08167   0.08363   0.08581
 Alpha virt. eigenvalues --    0.08759   0.09137   0.09294   0.09474   0.09788
 Alpha virt. eigenvalues --    0.09830   0.10225   0.10437   0.10750   0.11165
 Alpha virt. eigenvalues --    0.11328   0.11862   0.12232   0.12389   0.12519
 Alpha virt. eigenvalues --    0.13184   0.13283   0.13928   0.14031   0.14307
 Alpha virt. eigenvalues --    0.14679   0.14891   0.15449   0.16090   0.16205
 Alpha virt. eigenvalues --    0.16449   0.16546   0.17631   0.17926   0.18588
 Alpha virt. eigenvalues --    0.18896   0.19183   0.19599   0.20111   0.20958
 Alpha virt. eigenvalues --    0.21683   0.21951   0.22553   0.22959   0.23560
 Alpha virt. eigenvalues --    0.25381   0.25943   0.26209   0.27706   0.29501
 Alpha virt. eigenvalues --    0.30362   0.31907   0.32946   0.33563   0.34142
 Alpha virt. eigenvalues --    0.34765   0.35699   0.36459   0.36933   0.37993
 Alpha virt. eigenvalues --    0.38283   0.40259   0.40737   0.42112   0.42554
 Alpha virt. eigenvalues --    0.43516   0.43814   0.44077   0.44499   0.45072
 Alpha virt. eigenvalues --    0.45789   0.46050   0.46121   0.47000   0.47304
 Alpha virt. eigenvalues --    0.47636   0.47754   0.48024   0.48710   0.49471
 Alpha virt. eigenvalues --    0.49721   0.49960   0.50316   0.50695   0.51443
 Alpha virt. eigenvalues --    0.52067   0.52319   0.52962   0.53069   0.53524
 Alpha virt. eigenvalues --    0.54132   0.54909   0.55577   0.55933   0.56474
 Alpha virt. eigenvalues --    0.56819   0.57022   0.57516   0.57971   0.58174
 Alpha virt. eigenvalues --    0.58827   0.59078   0.59789   0.59902   0.60196
 Alpha virt. eigenvalues --    0.60224   0.61642   0.61865   0.62217   0.62350
 Alpha virt. eigenvalues --    0.63673   0.63809   0.64445   0.64593   0.65199
 Alpha virt. eigenvalues --    0.65990   0.66355   0.66532   0.66974   0.67549
 Alpha virt. eigenvalues --    0.68061   0.68257   0.68420   0.69026   0.69862
 Alpha virt. eigenvalues --    0.69958   0.70271   0.71155   0.71499   0.72156
 Alpha virt. eigenvalues --    0.72315   0.72984   0.73109   0.73516   0.74231
 Alpha virt. eigenvalues --    0.74691   0.75174   0.75447   0.75843   0.76158
 Alpha virt. eigenvalues --    0.76484   0.76880   0.77161   0.77435   0.78167
 Alpha virt. eigenvalues --    0.78581   0.78617   0.78747   0.79353   0.79416
 Alpha virt. eigenvalues --    0.79865   0.80085   0.80486   0.80775   0.81214
 Alpha virt. eigenvalues --    0.81578   0.82090   0.82541   0.82965   0.83031
 Alpha virt. eigenvalues --    0.83690   0.83941   0.84086   0.84246   0.84692
 Alpha virt. eigenvalues --    0.85000   0.85403   0.85574   0.85846   0.86223
 Alpha virt. eigenvalues --    0.86432   0.86759   0.87004   0.87345   0.87982
 Alpha virt. eigenvalues --    0.88116   0.88204   0.88789   0.89259   0.89640
 Alpha virt. eigenvalues --    0.90014   0.90676   0.90918   0.91304   0.92056
 Alpha virt. eigenvalues --    0.92523   0.92809   0.93212   0.93602   0.93984
 Alpha virt. eigenvalues --    0.95636   0.95967   0.96656   0.97094   0.97916
 Alpha virt. eigenvalues --    0.98548   0.99135   0.99760   1.00746   1.01434
 Alpha virt. eigenvalues --    1.02570   1.02767   1.04201   1.04796   1.05297
 Alpha virt. eigenvalues --    1.06486   1.06788   1.07836   1.08760   1.09945
 Alpha virt. eigenvalues --    1.11341   1.11486   1.11961   1.12427   1.13273
 Alpha virt. eigenvalues --    1.14789   1.15150   1.15500   1.16583   1.17732
 Alpha virt. eigenvalues --    1.18589   1.19336   1.20153   1.21322   1.22107
 Alpha virt. eigenvalues --    1.22905   1.23529   1.24514   1.25460   1.26357
 Alpha virt. eigenvalues --    1.26886   1.27974   1.29643   1.30138   1.32463
 Alpha virt. eigenvalues --    1.33565   1.34420   1.34574   1.35193   1.36374
 Alpha virt. eigenvalues --    1.37990   1.38399   1.39080   1.39486   1.40338
 Alpha virt. eigenvalues --    1.40608   1.41616   1.42429   1.43828   1.44197
 Alpha virt. eigenvalues --    1.44773   1.45154   1.45717   1.48250   1.48448
 Alpha virt. eigenvalues --    1.49098   1.49826   1.50116   1.51167   1.53112
 Alpha virt. eigenvalues --    1.53411   1.53688   1.55621   1.56072   1.56583
 Alpha virt. eigenvalues --    1.58520   1.59137   1.59730   1.60592   1.60831
 Alpha virt. eigenvalues --    1.62454   1.63637   1.63797   1.64095   1.64309
 Alpha virt. eigenvalues --    1.65447   1.66057   1.67180   1.67854   1.68306
 Alpha virt. eigenvalues --    1.68680   1.68964   1.69277   1.69948   1.70519
 Alpha virt. eigenvalues --    1.71574   1.72100   1.72781   1.72811   1.73829
 Alpha virt. eigenvalues --    1.73957   1.74898   1.75739   1.76280   1.76492
 Alpha virt. eigenvalues --    1.77195   1.78038   1.78141   1.78430   1.78502
 Alpha virt. eigenvalues --    1.79192   1.79776   1.79898   1.81388   1.81681
 Alpha virt. eigenvalues --    1.82364   1.83061   1.83236   1.83912   1.85098
 Alpha virt. eigenvalues --    1.85684   1.85960   1.86614   1.87423   1.87732
 Alpha virt. eigenvalues --    1.88207   1.88477   1.89069   1.89212   1.90139
 Alpha virt. eigenvalues --    1.90493   1.90907   1.91459   1.91804   1.92392
 Alpha virt. eigenvalues --    1.93697   1.93996   1.94553   1.95369   1.95602
 Alpha virt. eigenvalues --    1.95687   1.96152   1.96891   1.97689   1.99075
 Alpha virt. eigenvalues --    1.99614   2.01002   2.01296   2.02137   2.02554
 Alpha virt. eigenvalues --    2.03463   2.03997   2.04151   2.04664   2.04952
 Alpha virt. eigenvalues --    2.06215   2.06516   2.07482   2.07980   2.08328
 Alpha virt. eigenvalues --    2.08583   2.11138   2.11512   2.11587   2.13146
 Alpha virt. eigenvalues --    2.13227   2.14299   2.14887   2.15709   2.15934
 Alpha virt. eigenvalues --    2.17290   2.17420   2.19110   2.19590   2.19995
 Alpha virt. eigenvalues --    2.20481   2.21305   2.21690   2.21801   2.22419
 Alpha virt. eigenvalues --    2.23679   2.25197   2.25728   2.26468   2.26829
 Alpha virt. eigenvalues --    2.27106   2.28426   2.29285   2.29855   2.31302
 Alpha virt. eigenvalues --    2.32441   2.33540   2.34586   2.35120   2.35625
 Alpha virt. eigenvalues --    2.37792   2.38836   2.39994   2.41458   2.41845
 Alpha virt. eigenvalues --    2.42422   2.42810   2.43212   2.44697   2.46578
 Alpha virt. eigenvalues --    2.46726   2.47633   2.47849   2.48246   2.49450
 Alpha virt. eigenvalues --    2.49680   2.50600   2.52061   2.53760   2.53876
 Alpha virt. eigenvalues --    2.54264   2.55881   2.56780   2.58122   2.58479
 Alpha virt. eigenvalues --    2.59822   2.61217   2.61440   2.61663   2.63508
 Alpha virt. eigenvalues --    2.64399   2.65617   2.66045   2.67715   2.68774
 Alpha virt. eigenvalues --    2.69956   2.70513   2.71135   2.74725   2.76977
 Alpha virt. eigenvalues --    2.78058   2.80916   2.81444   2.81899   2.83039
 Alpha virt. eigenvalues --    2.86476   2.86936   2.90015   2.91458   2.91933
 Alpha virt. eigenvalues --    2.93986   2.95189   2.95502   2.99469   3.01537
 Alpha virt. eigenvalues --    3.05280   3.06639   3.10412   3.14828   3.18080
 Alpha virt. eigenvalues --    3.65496   3.71544   3.79310   3.80810   3.91861
 Alpha virt. eigenvalues --    3.92476   3.94904   3.97701   3.99114   3.99832
 Alpha virt. eigenvalues --    4.04647   4.05348   4.08300   4.09716   4.10976
 Alpha virt. eigenvalues --    4.13692   4.14506   4.17272   4.17927   4.20132
 Alpha virt. eigenvalues --    4.24711   4.25429   4.26117   4.26547   4.27249
 Alpha virt. eigenvalues --    4.32240   4.34931   4.37176   4.39168   4.41157
 Alpha virt. eigenvalues --    4.44710   4.51871   4.53010   4.54493   4.55685
 Alpha virt. eigenvalues --    4.57232   4.60205   4.62878
          Condensed to atoms (all electrons):
 Mulliken charges:
               1
     1  N   -0.759843
     2  H    0.415260
     3  H    0.435889
     4  H    0.410525
     5  C   -0.110717
     6  H    0.202240
     7  C    0.663587
     8  C   -0.115352
     9  H    0.211624
    10  O   -0.531462
    11  C   -0.502122
    12  H    0.150706
    13  H    0.199605
    14  H    0.190805
    15  C   -0.480863
    16  H    0.171089
    17  H    0.140202
    18  H    0.204760
    19  N   -0.583228
    20  H    0.359023
    21  C   -0.063379
    22  H    0.191455
    23  C    0.647330
    24  C   -0.478851
    25  H    0.191832
    26  H    0.174416
    27  H    0.184694
    28  O   -0.567939
    29  N   -0.582914
    30  H    0.369276
    31  C   -0.116294
    32  H    0.185245
    33  C    0.628483
    34  C    0.004055
    35  H    0.154417
    36  H    0.148917
    37  O   -0.545732
    38  O   -0.655072
    39  H    0.424007
    40  N   -0.622736
    41  H    0.355925
    42  C   -0.052116
    43  H    0.177120
    44  C    0.609941
    45  C   -0.256866
    46  H    0.140367
    47  H    0.158357
    48  O   -0.564945
    49  C   -0.094801
    50  H    0.149495
    51  C   -0.447189
    52  H    0.143085
    53  H    0.140803
    54  H    0.161127
    55  C   -0.445140
    56  H    0.139042
    57  H    0.140341
    58  H    0.153771
    59  N   -0.626018
    60  H    0.372459
    61  C   -0.053176
    62  H    0.159265
    63  C    0.608886
    64  C   -0.292216
    65  H    0.160546
    66  H    0.165036
    67  O   -0.641834
    68  C   -0.276131
    69  H    0.172650
    70  H    0.147669
    71  C   -0.153518
    72  H    0.174797
    73  H    0.138001
    74  N   -0.618923
    75  H    0.447343
    76  N   -0.757024
    77  H    0.363747
    78  H    0.364922
    79  N   -0.774750
    80  H    0.402771
    81  H    0.351112
    82  C    0.749301
    83  O   -0.536167
 Sum of Mulliken charges =   1.00000
 Mulliken charges with hydrogens summed into heavy atoms:
               1
     1  N    0.501831
     5  C    0.091522
     7  C    0.663587
     8  C    0.096272
    10  O   -0.531462
    11  C    0.038993
    15  C    0.035187
    19  N   -0.224205
    21  C    0.128076
    23  C    0.647330
    24  C    0.072092
    28  O   -0.567939
    29  N   -0.213638
    31  C    0.068950
    33  C    0.628483
    34  C    0.307389
    37  O   -0.545732
    38  O   -0.231065
    40  N   -0.266811
    42  C    0.125004
    44  C    0.609941
    45  C    0.041858
    48  O   -0.564945
    49  C    0.054694
    51  C   -0.002173
    55  C   -0.011986
    59  N   -0.253559
    61  C    0.106089
    63  C    0.608886
    64  C    0.033366
    67  O   -0.641834
    68  C    0.044187
    71  C    0.159279
    74  N   -0.171580
    76  N   -0.028355
    79  N   -0.020867
    82  C    0.749301
    83  O   -0.536167
 Electronic spatial extent (au):  <R**2>=          42282.9808
 Charge=              1.0000 electrons
 Dipole moment (field-independent basis, Debye):
    X=            -27.7393    Y=              7.3245    Z=              4.2831  Tot=             29.0080
 Quadrupole moment (field-independent basis, Debye-Ang):
   XX=             -1.6568   YY=           -198.2525   ZZ=             12.6924
   XY=            -88.3756   XZ=           -173.4003   YZ=             30.3689
 Traceless Quadrupole moment (field-independent basis, Debye-Ang):
   XX=             60.7488   YY=           -135.8469   ZZ=             75.0980
   XY=            -88.3756   XZ=           -173.4003   YZ=             30.3689
 Octapole moment (field-independent basis, Debye-Ang**2):
  XXX=           -634.0577  YYY=           -788.0575  ZZZ=           -587.2129  XYY=            -12.5771
  XXY=            221.5084  XXZ=           1001.7648  XZZ=             48.0561  YZZ=             41.0936
  YYZ=            305.6095  XYZ=           -313.5329
 Hexadecapole moment (field-independent basis, Debye-Ang**3):
 XXXX=         -12365.8959 YYYY=          -4844.9667 ZZZZ=          -7890.4223 XXXY=          -4153.8065
 XXXZ=           -471.8201 YYYX=           -805.4319 YYYZ=           2896.4231 ZZZX=            880.4421
 ZZZY=           1899.1117 XXYY=          -3457.6251 XXZZ=          -1521.4284 YYZZ=          -3582.4977
 XXYZ=           3463.0548 YYXZ=           1515.7740 ZZXY=          -1388.5987
 N-N= 4.449509565370D+03 E-N=-1.322820846018D+04  KE= 1.850617925365D+03
 Unable to Open any file for archive entry.
 1\1\GINC-QML-002\SP\RB3LYP\6-31G(d)\C23H45N8O7(1+)\KENGMITH\30-Jun-202
 2\0\\# B3LYP/6-31G* guess=read geom=check nosymm integral(ultrafinegri
 d)\\Candidate Structure: Conf:34 Charge calc in gas phase\\1,1\N,0,-7.
 052224981,3.410056344,4.8406322692\H,0,-7.2826899448,3.6124465354,5.81
 74301526\H,0,-5.9965477806,3.4173365803,4.7322449971\H,0,-7.4961328907
 ,4.1160971365,4.2479403032\C,0,-7.4050858327,1.9917145985,4.4234434649
 \H,0,-8.1287656939,1.6003701034,5.1445659205\C,0,-6.025191651,1.284281
 6489,4.5406351246\C,0,-8.0074873587,1.9765196876,2.9891886919\H,0,-7.2
 198821127,2.2944546412,2.2928982281\O,0,-5.0190485586,2.0042091548,4.5
 774076815\C,0,-8.4279254652,0.550322584,2.5882481994\H,0,-9.1251901069
 ,0.113846414,3.3163448027\H,0,-7.5735992846,-0.1171938008,2.451984232\
 H,0,-8.9511830479,0.590332249,1.6285648393\C,0,-9.2186950715,2.9221725
 475,2.8812756942\H,0,-10.009365094,2.6501251412,3.5912418755\H,0,-8.98
 13949335,3.9856139904,3.0276767913\H,0,-9.6398763414,2.8539131652,1.87
 43866518\N,0,-6.000051348,-0.0527289493,4.6023673406\H,0,-6.8626088205
 ,-0.5588416867,4.4407450097\C,0,-4.7537779383,-0.8063854832,4.33452299
 25\H,0,-3.9581906008,-0.3106033348,4.8949897509\C,0,-4.5230698301,-0.6
 91104447,2.8131615589\C,0,-4.9155551509,-2.2571852839,4.7766524311\H,0
 ,-3.9759917853,-2.7965379159,4.6259651213\H,0,-5.1782359035,-2.3143821
 725,5.8372410558\H,0,-5.6855629357,-2.7543499498,4.1782649577\O,0,-5.3
 481208804,-1.1914120616,2.0348641335\N,0,-3.4588998785,0.0261535101,2.
 4325392858\H,0,-2.8121192668,0.4502680219,3.0950653907\C,0,-3.16681651
 32,0.3556311853,1.0467496316\H,0,-3.3299163895,-0.5364194549,0.4316757
 249\C,0,-1.6874647613,0.7957577741,1.0176315564\C,0,-4.0667367512,1.51
 01034235,0.5362949696\H,0,-3.7592669324,2.4452632849,1.0171106669\H,0,
 -3.9093367168,1.6189673758,-0.5470331794\O,0,-1.1534649371,1.190182684
 6,2.0576166099\O,0,-5.4415262625,1.3257132128,0.8434160121\H,0,-5.6281
 531636,0.368650497,0.8071955071\N,0,-1.0968461004,0.7614932106,-0.1850
 302547\H,0,-1.5639847969,0.4101777262,-1.0188079742\C,0,0.2697308564,1
 .2114239504,-0.441064348\H,0,0.4316022391,2.146536681,0.1028869918\C,0
 ,0.3277622737,1.4466571209,-1.9630790144\C,0,1.2955773733,0.145035731,
 0.0251136636\H,0,1.147597689,-0.7493575075,-0.5947973844\H,0,1.0188379
 277,-0.1259420033,1.0517010952\O,0,-0.4618173563,0.8514608896,-2.70993
 17669\C,0,2.7847745382,0.5498447534,0.0086777658\H,0,3.0654002185,0.85
 84838009,-1.0066237671\C,0,3.0861280642,1.7201605168,0.9585438226\H,0,
 2.8010871652,1.4725072986,1.9892485485\H,0,2.5567841925,2.638805199,0.
 6798328671\H,0,4.1555421395,1.9555512409,0.9490384528\C,0,3.6449250224
 ,-0.6707210851,0.3729717954\H,0,3.4184303187,-1.0246342306,1.387295147
 5\H,0,3.4727470352,-1.5042139413,-0.3184866472\H,0,4.7109084246,-0.420
 4075167,0.3378690791\N,0,1.2667657981,2.3008984101,-2.3949143047\H,0,1
 .9966631448,2.668190271,-1.7810324303\C,0,1.6389765032,2.4408264536,-3
 .7957700126\H,0,1.7041990592,1.4338458679,-4.230615991\C,0,3.092388959
 8,3.0298675404,-3.7980679339\C,0,0.5889911861,3.2565356155,-4.61557844
 86\H,0,1.0158593925,4.2188616537,-4.9261299232\H,0,-0.2341369597,3.491
 1503887,-3.935872064\O,0,3.5845017698,3.2624865039,-4.9604546195\C,0,-
 0.0061528463,2.5107324693,-5.8331005258\H,0,-0.0989101514,1.4481818862
 ,-5.5810252223\H,0,-1.0239549514,2.874038736,-6.0205739943\C,0,0.76292
 25494,2.6759857332,-7.1581153189\H,0,0.5931829624,3.6827137756,-7.5629
 892705\H,0,0.3770172019,1.9601010482,-7.8951408029\N,0,2.1948452594,2.
 4905239258,-6.9656931378\H,0,2.6590126297,2.929826403,-6.0842540668\N,
 0,2.7762581006,1.3201165561,-8.929195546\H,0,3.3004318881,0.52080429,-
 9.2562159325\H,0,1.8429951674,1.4172965408,-9.2997757739\N,0,4.2929255
 826,1.5984192032,-7.18441795\H,0,4.4786876321,2.0703066754,-6.29279540
 27\H,0,5.0681564506,1.5276293726,-7.8293449683\C,0,3.0541760626,1.8149
 965405,-7.6948402628\O,0,3.6465655299,3.1958721732,-2.7066149869\\Vers
 ion=ES64L-G16RevC.01\HF=-1868.0138416\RMSD=5.004e-09\Dipole=-7.9050553
 ,0.3750507,2.4893253\Quadrupole=45.1652683,-100.9988239,55.8335556,-65
 .7050757,-128.918891,22.5785185\PG=C01 [X(C23H45N8O7)]\\@
 The archive entry for this job was punched.


 Everywhere is walking distance if you have the time.
                                    -- Steven Wright
 Job cpu time:       0 days  0 hours  2 minutes 43.2 seconds.
 Elapsed time:       0 days  0 hours  0 minutes 44.8 seconds.
 File lengths (MBytes):  RWF=    344 Int=      0 D2E=      0 Chk=     48 Scr=     16
 Normal termination of Gaussian 16 at Thu Jun 30 14:15:40 2022.
