 Entering Gaussian System, Link 0=/opt/software/Gaussian/g16-AVX2-C.01/g16/g16
 Input=charge-conf-966.com
 Output=charge-conf-966.log
 Initial command:
 /opt/software/Gaussian/g16-AVX2-C.01/g16/l1.exe "/mnt/gs18/scratch/users/kengmith/Gau-36483.inp" -scrdir="/mnt/gs18/scratch/users/kengmith/"
 Entering Link 1 = /opt/software/Gaussian/g16-AVX2-C.01/g16/l1.exe PID=     36493.
  
 Copyright (c) 1988-2019, Gaussian, Inc.  All Rights Reserved.
  
 This is part of the Gaussian(R) 16 program.  It is based on
 the Gaussian(R) 09 system (copyright 2009, Gaussian, Inc.),
 the Gaussian(R) 03 system (copyright 2003, Gaussian, Inc.),
 the Gaussian(R) 98 system (copyright 1998, Gaussian, Inc.),
 the Gaussian(R) 94 system (copyright 1995, Gaussian, Inc.),
 the Gaussian 92(TM) system (copyright 1992, Gaussian, Inc.),
 the Gaussian 90(TM) system (copyright 1990, Gaussian, Inc.),
 the Gaussian 88(TM) system (copyright 1988, Gaussian, Inc.),
 the Gaussian 86(TM) system (copyright 1986, Carnegie Mellon
 University), and the Gaussian 82(TM) system (copyright 1983,
 Carnegie Mellon University). Gaussian is a federally registered
 trademark of Gaussian, Inc.
  
 This software contains proprietary and confidential information,
 including trade secrets, belonging to Gaussian, Inc.
  
 This software is provided under written license and may be
 used, copied, transmitted, or stored only in accord with that
 written license.
  
 The following legend is applicable only to US Government
 contracts under FAR:
  
                    RESTRICTED RIGHTS LEGEND
  
 Use, reproduction and disclosure by the US Government is
 subject to restrictions as set forth in subparagraphs (a)
 and (c) of the Commercial Computer Software - Restricted
 Rights clause in FAR 52.227-19.
  
 Gaussian, Inc.
 340 Quinnipiac St., Bldg. 40, Wallingford CT 06492
  
  
 ---------------------------------------------------------------
 Warning -- This program may not be used in any manner that
 competes with the business of Gaussian, Inc. or will provide
 assistance to any competitor of Gaussian, Inc.  The licensee
 of this program is prohibited from giving any competitor of
 Gaussian, Inc. access to this program.  By using this program,
 the user acknowledges that Gaussian, Inc. is engaged in the
 business of creating and licensing software in the field of
 computational chemistry and represents and warrants to the
 licensee that it is not a competitor of Gaussian, Inc. and that
 it will not use this program in any manner prohibited above.
 ---------------------------------------------------------------
  

 Cite this work as:
 Gaussian 16, Revision C.01,
 M. J. Frisch, G. W. Trucks, H. B. Schlegel, G. E. Scuseria, 
 M. A. Robb, J. R. Cheeseman, G. Scalmani, V. Barone, 
 G. A. Petersson, H. Nakatsuji, X. Li, M. Caricato, A. V. Marenich, 
 J. Bloino, B. G. Janesko, R. Gomperts, B. Mennucci, H. P. Hratchian, 
 J. V. Ortiz, A. F. Izmaylov, J. L. Sonnenberg, D. Williams-Young, 
 F. Ding, F. Lipparini, F. Egidi, J. Goings, B. Peng, A. Petrone, 
 T. Henderson, D. Ranasinghe, V. G. Zakrzewski, J. Gao, N. Rega, 
 G. Zheng, W. Liang, M. Hada, M. Ehara, K. Toyota, R. Fukuda, 
 J. Hasegawa, M. Ishida, T. Nakajima, Y. Honda, O. Kitao, H. Nakai, 
 T. Vreven, K. Throssell, J. A. Montgomery, Jr., J. E. Peralta, 
 F. Ogliaro, M. J. Bearpark, J. J. Heyd, E. N. Brothers, K. N. Kudin, 
 V. N. Staroverov, T. A. Keith, R. Kobayashi, J. Normand, 
 K. Raghavachari, A. P. Rendell, J. C. Burant, S. S. Iyengar, 
 J. Tomasi, M. Cossi, J. M. Millam, M. Klene, C. Adamo, R. Cammi, 
 J. W. Ochterski, R. L. Martin, K. Morokuma, O. Farkas, 
 J. B. Foresman, and D. J. Fox, Gaussian, Inc., Wallingford CT, 2019.
 
 ******************************************
 Gaussian 16:  ES64L-G16RevC.01  3-Jul-2019
                30-Jun-2022 
 ******************************************
 %mem=8gb
 %nproc=4
 Will use up to    4 processors via shared memory.
 %chk=conf-966.chk
 -------------------------------------------------------------------
 # B3LYP/6-31G* guess=read geom=check nosymm integral(ultrafinegrid)
 -------------------------------------------------------------------
 1/29=2,38=1,172=1/1;
 2/12=2,15=1,40=1/2;
 3/5=1,6=6,7=1,11=2,14=-4,25=1,30=1,74=-5,75=-5,116=-2/1,2,3;
 4/5=1/1;
 5/5=2,38=6/2;
 6/7=2,8=2,9=2,10=2,28=1/1;
 99/5=1,9=1/99;
 ------------------------------------------------------
 Candidate Structure: Conf:966 Charge calc in gas phase
 ------------------------------------------------------
 Structure from the checkpoint file:  "conf-966.chk"
 Charge =  1 Multiplicity = 1
 Redundant internal coordinates found in file.  (old form).
 N,0,-8.9873091974,0.9528385425,6.0056138143
 H,0,-9.3276360704,0.104676168,6.4640876065
 H,0,-8.1131544186,1.3214902197,6.507829955
 H,0,-9.7310819479,1.6555727422,6.0233650564
 C,0,-8.4373204118,0.7124163132,4.6118182062
 H,0,-8.5593029655,-0.351635848,4.391949637
 C,0,-6.9271470572,1.048742649,4.7925277257
 C,0,-9.1651028409,1.559035478,3.5430660527
 H,0,-8.6357728846,1.3396034002,2.6069118399
 O,0,-6.5705317853,1.4906504699,5.8998403449
 C,0,-10.6240734863,1.1073749695,3.3685907875
 H,0,-11.23455839,1.31429062,4.2583846126
 H,0,-10.6959114458,0.0363158454,3.1493572473
 H,0,-11.0871316462,1.6489714252,2.5386510695
 C,0,-9.0533130036,3.0708953788,3.8007939632
 H,0,-9.5996171435,3.3887795993,4.7000412247
 H,0,-8.0144021024,3.3995480883,3.9028874644
 H,0,-9.4954751816,3.6191084718,2.964123052
 N,0,-6.1436847295,0.834407163,3.7498371114
 H,0,-6.4897433478,0.5204688839,2.8359125773
 C,0,-4.7112510245,1.1345003488,3.6865169411
 H,0,-4.5485067293,2.1540002338,4.0541477507
 C,0,-4.3905885579,1.0683278732,2.1709716702
 C,0,-3.8722522516,0.1467704655,4.5114588248
 H,0,-2.8092559039,0.3956443267,4.4411657495
 H,0,-4.1637724783,0.1948332499,5.5639842809
 H,0,-4.0101616129,-0.8759106591,4.1462721422
 O,0,-5.2552416001,0.6621967459,1.3815564581
 N,0,-3.1623346523,1.4553553523,1.8269183149
 H,0,-2.4574450253,1.7354616211,2.5100262336
 C,0,-2.6179369858,1.3873535834,0.4799884116
 H,0,-2.8800841328,0.4212542611,0.031422898
 C,0,-1.0803555851,1.4805209616,0.6691487014
 C,0,-3.1649953241,2.4944676287,-0.4296915448
 H,0,-2.7395150345,2.3640737611,-1.4361507098
 H,0,-4.255162024,2.3754113228,-0.5071820796
 O,0,-0.608607046,1.6865448381,1.7908296089
 O,0,-2.8068333248,3.7422774887,0.1402135711
 H,0,-3.0109172668,4.4387693055,-0.5013828865
 N,0,-0.354056449,1.307949379,-0.4426783062
 H,0,-0.772200777,1.1697005843,-1.3608450635
 C,0,1.1004654227,1.413591167,-0.4990516984
 H,0,1.4095591775,2.2529496799,0.1314916331
 C,0,1.4116724219,1.7060730043,-1.983132356
 C,0,1.761310582,0.1037910433,0.005618478
 H,0,1.4951401538,-0.6957396189,-0.6985644843
 H,0,1.2775475998,-0.1366058265,0.9608865857
 O,0,0.5745097905,1.4370325015,-2.8536542567
 C,0,3.2889148628,0.1161532142,0.222588939
 H,0,3.7855049421,0.3734823524,-0.7217482512
 C,0,3.72392444,1.1383858076,1.2850885285
 H,0,3.2307706801,0.9400090526,2.2454366705
 H,0,3.4881545785,2.1708900122,1.0013755847
 H,0,4.8066685532,1.0903032962,1.4437730162
 C,0,3.755959976,-1.2946776639,0.6148768266
 H,0,3.2993221924,-1.612173753,1.5616022505
 H,0,3.4883077077,-2.0326060206,-0.150557797
 H,0,4.8437340669,-1.3242007145,0.7429362142
 N,0,2.6164930678,2.2392799012,-2.2396442293
 H,0,3.3048855407,2.4006245739,-1.5070895253
 C,0,3.1847978443,2.3967648425,-3.5726666599
 H,0,2.8101439313,1.5999263601,-4.2192876995
 C,0,4.7197450972,2.2719753512,-3.4350617735
 C,0,2.7913418794,3.7737597387,-4.1832633286
 H,0,2.841739424,4.5250207286,-3.383255341
 H,0,1.7402079956,3.7115426851,-4.4837212645
 O,0,5.3133220043,1.968110595,-4.5293752342
 C,0,3.6609220836,4.2267224544,-5.3760475809
 H,0,3.9682605783,3.3555576675,-5.9598107486
 H,0,3.0750270569,4.8825395284,-6.0333524057
 C,0,4.9170882022,4.9869455791,-4.903836995
 H,0,5.3593067499,4.5263187489,-4.0198314638
 H,0,4.6451217643,6.010577067,-4.6181974217
 N,0,5.977707337,5.0942677861,-5.9148573319
 H,0,5.7841563809,5.6595646516,-6.7309770349
 N,0,7.3313093754,3.3413969175,-5.1733746335
 H,0,8.272376032,2.9710616559,-5.1369003993
 H,0,6.4947107801,2.6946586412,-4.7744203269
 N,0,8.0579961574,4.8019716529,-6.8581269922
 H,0,8.1472045774,5.7920266674,-7.0410932068
 H,0,8.9096271147,4.267143095,-6.9494769563
 C,0,7.1216057842,4.3824712146,-5.9509634716
 O,0,5.2341859253,2.5576190803,-2.3411903038
 Recover connectivity data from disk.
                           ----------------------------
                           !    Current Parameters    !
                           ! (Angstroms and Degrees)  !
 --------------------------                            --------------------------
 ! Name  Definition              Value                                          !
 --------------------------------------------------------------------------------
 ! R1    R(1,2)                  1.0224                                         !
 ! R2    R(1,3)                  1.0734                                         !
 ! R3    R(1,4)                  1.0234                                         !
 ! R4    R(1,5)                  1.5175                                         !
 ! R5    R(5,6)                  1.0934                                         !
 ! R6    R(5,7)                  1.5577                                         !
 ! R7    R(5,8)                  1.5455                                         !
 ! R8    R(7,10)                 1.2444                                         !
 ! R9    R(7,19)                 1.3217                                         !
 ! R10   R(8,9)                  1.0976                                         !
 ! R11   R(8,11)                 1.5372                                         !
 ! R12   R(8,15)                 1.5377                                         !
 ! R13   R(11,12)                1.0987                                         !
 ! R14   R(11,13)                1.0956                                         !
 ! R15   R(11,14)                1.0939                                         !
 ! R16   R(15,16)                1.0992                                         !
 ! R17   R(15,17)                1.0944                                         !
 ! R18   R(15,18)                1.0936                                         !
 ! R19   R(19,20)                1.0264                                         !
 ! R20   R(19,21)                1.4649                                         !
 ! R21   R(21,22)                1.0959                                         !
 ! R22   R(21,23)                1.5505                                         !
 ! R23   R(21,24)                1.5362                                         !
 ! R24   R(23,28)                1.2393                                         !
 ! R25   R(23,29)                1.333                                          !
 ! R26   R(24,25)                1.094                                          !
 ! R27   R(24,26)                1.0932                                         !
 ! R28   R(24,27)                1.0946                                         !
 ! R29   R(29,30)                1.0208                                         !
 ! R30   R(29,31)                1.4544                                         !
 ! R31   R(31,32)                1.0969                                         !
 ! R32   R(31,33)                1.552                                          !
 ! R33   R(31,34)                1.5338                                         !
 ! R34   R(33,37)                1.2342                                         !
 ! R35   R(33,40)                1.3392                                         !
 ! R36   R(34,35)                1.1005                                         !
 ! R37   R(34,36)                1.0994                                         !
 ! R38   R(34,38)                1.4178                                         !
 ! R39   R(38,39)                0.9687                                         !
 ! R40   R(40,41)                1.0183                                         !
 ! R41   R(40,42)                1.4594                                         !
 ! R42   R(42,43)                1.0944                                         !
 ! R43   R(42,44)                1.5443                                         !
 ! R44   R(42,45)                1.5514                                         !
 ! R45   R(44,48)                1.2373                                         !
 ! R46   R(44,59)                1.3423                                         !
 ! R47   R(45,46)                1.0982                                         !
 ! R48   R(45,47)                1.0974                                         !
 ! R49   R(45,49)                1.543                                          !
 ! R50   R(49,50)                1.0975                                         !
 ! R51   R(49,51)                1.5372                                         !
 ! R52   R(49,55)                1.537                                          !
 ! R53   R(51,52)                1.0976                                         !
 ! R54   R(51,53)                1.0964                                         !
 ! R55   R(51,54)                1.0954                                         !
 ! R56   R(55,56)                1.098                                          !
 ! R57   R(55,57)                1.0964                                         !
 ! R58   R(55,58)                1.0957                                         !
 ! R59   R(59,60)                1.0181                                         !
 ! R60   R(59,61)                1.4576                                         !
 ! R61   R(61,62)                1.0924                                         !
 ! R62   R(61,63)                1.5461                                         !
 ! R63   R(61,64)                1.5568                                         !
 ! R64   R(63,67)                1.2815                                         !
 ! R65   R(63,83)                1.2421                                         !
 ! R66   R(64,65)                1.0986                                         !
 ! R67   R(64,66)                1.095                                          !
 ! R68   R(64,68)                1.544                                          !
 ! R69   R(68,69)                1.0928                                         !
 ! R70   R(68,70)                1.0979                                         !
 ! R71   R(68,71)                1.5424                                         !
 ! R72   R(71,72)                1.0905                                         !
 ! R73   R(71,73)                1.097                                          !
 ! R74   R(71,74)                1.4692                                         !
 ! R75   R(74,75)                1.0115                                         !
 ! R76   R(74,82)                1.3478                                         !
 ! R77   R(76,77)                1.012                                          !
 ! R78   R(76,78)                1.1302                                         !
 ! R79   R(76,82)                1.3162                                         !
 ! R80   R(79,80)                1.0108                                         !
 ! R81   R(79,81)                1.0098                                         !
 ! R82   R(79,82)                1.3696                                         !
 ! A1    A(2,1,3)              110.2526                                         !
 ! A2    A(2,1,4)              108.6588                                         !
 ! A3    A(2,1,5)              113.6439                                         !
 ! A4    A(3,1,4)              110.3592                                         !
 ! A5    A(3,1,5)              100.8931                                         !
 ! A6    A(4,1,5)              112.8371                                         !
 ! A7    A(1,5,6)              107.3641                                         !
 ! A8    A(1,5,7)              102.1579                                         !
 ! A9    A(1,5,8)              112.1897                                         !
 ! A10   A(6,5,7)              109.9756                                         !
 ! A11   A(6,5,8)              109.9688                                         !
 ! A12   A(7,5,8)              114.7386                                         !
 ! A13   A(5,7,10)             117.2407                                         !
 ! A14   A(5,7,19)             116.6246                                         !
 ! A15   A(10,7,19)            126.1346                                         !
 ! A16   A(5,8,9)              104.6663                                         !
 ! A17   A(5,8,11)             111.3746                                         !
 ! A18   A(5,8,15)             112.8572                                         !
 ! A19   A(9,8,11)             107.5879                                         !
 ! A20   A(9,8,15)             107.7248                                         !
 ! A21   A(11,8,15)            112.1413                                         !
 ! A22   A(8,11,12)            112.3393                                         !
 ! A23   A(8,11,13)            111.8496                                         !
 ! A24   A(8,11,14)            110.024                                          !
 ! A25   A(12,11,13)           108.0419                                         !
 ! A26   A(12,11,14)           106.6177                                         !
 ! A27   A(13,11,14)           107.7247                                         !
 ! A28   A(8,15,16)            112.6641                                         !
 ! A29   A(8,15,17)            112.3267                                         !
 ! A30   A(8,15,18)            109.5861                                         !
 ! A31   A(16,15,17)           107.9774                                         !
 ! A32   A(16,15,18)           106.2585                                         !
 ! A33   A(17,15,18)           107.7358                                         !
 ! A34   A(7,19,20)            123.5157                                         !
 ! A35   A(7,19,21)            125.4857                                         !
 ! A36   A(20,19,21)           110.7225                                         !
 ! A37   A(19,21,22)           108.7405                                         !
 ! A38   A(19,21,23)           103.6349                                         !
 ! A39   A(19,21,24)           112.2784                                         !
 ! A40   A(22,21,23)           109.6871                                         !
 ! A41   A(22,21,24)           109.6871                                         !
 ! A42   A(23,21,24)           112.612                                          !
 ! A43   A(21,23,28)           119.4942                                         !
 ! A44   A(21,23,29)           115.4972                                         !
 ! A45   A(28,23,29)           125.0053                                         !
 ! A46   A(21,24,25)           110.4806                                         !
 ! A47   A(21,24,26)           110.0658                                         !
 ! A48   A(21,24,27)           110.6544                                         !
 ! A49   A(25,24,26)           108.1176                                         !
 ! A50   A(25,24,27)           108.271                                          !
 ! A51   A(26,24,27)           109.1883                                         !
 ! A52   A(23,29,30)           122.9052                                         !
 ! A53   A(23,29,31)           124.7769                                         !
 ! A54   A(30,29,31)           111.9697                                         !
 ! A55   A(29,31,32)           109.2954                                         !
 ! A56   A(29,31,33)           104.783                                          !
 ! A57   A(29,31,34)           112.4589                                         !
 ! A58   A(32,31,33)           109.845                                          !
 ! A59   A(32,31,34)           107.9359                                         !
 ! A60   A(33,31,34)           112.4776                                         !
 ! A61   A(31,33,37)           119.9665                                         !
 ! A62   A(31,33,40)           115.365                                          !
 ! A63   A(37,33,40)           124.6637                                         !
 ! A64   A(31,34,35)           108.6027                                         !
 ! A65   A(31,34,36)           108.5008                                         !
 ! A66   A(31,34,38)           107.8649                                         !
 ! A67   A(35,34,36)           107.8245                                         !
 ! A68   A(35,34,38)           111.9779                                         !
 ! A69   A(36,34,38)           111.9717                                         !
 ! A70   A(34,38,39)           108.2606                                         !
 ! A71   A(33,40,41)           122.9127                                         !
 ! A72   A(33,40,42)           124.281                                          !
 ! A73   A(41,40,42)           112.5962                                         !
 ! A74   A(40,42,43)           108.3457                                         !
 ! A75   A(40,42,44)           104.5763                                         !
 ! A76   A(40,42,45)           110.5389                                         !
 ! A77   A(43,42,44)           110.5804                                         !
 ! A78   A(43,42,45)           109.864                                          !
 ! A79   A(44,42,45)           112.7469                                         !
 ! A80   A(42,44,48)           119.9059                                         !
 ! A81   A(42,44,59)           116.089                                          !
 ! A82   A(48,44,59)           124.0018                                         !
 ! A83   A(42,45,46)           107.6277                                         !
 ! A84   A(42,45,47)           106.2793                                         !
 ! A85   A(42,45,49)           117.4314                                         !
 ! A86   A(46,45,47)           106.9682                                         !
 ! A87   A(46,45,49)           109.6311                                         !
 ! A88   A(47,45,49)           108.4075                                         !
 ! A89   A(45,49,50)           109.1982                                         !
 ! A90   A(45,49,51)           112.4998                                         !
 ! A91   A(45,49,55)           109.2304                                         !
 ! A92   A(50,49,51)           108.1043                                         !
 ! A93   A(50,49,55)           107.2969                                         !
 ! A94   A(51,49,55)           110.3644                                         !
 ! A95   A(49,51,52)           110.9406                                         !
 ! A96   A(49,51,53)           112.7377                                         !
 ! A97   A(49,51,54)           110.5277                                         !
 ! A98   A(52,51,53)           107.4562                                         !
 ! A99   A(52,51,54)           108.0246                                         !
 ! A100  A(53,51,54)           106.9407                                         !
 ! A101  A(49,55,56)           111.0453                                         !
 ! A102  A(49,55,57)           111.434                                          !
 ! A103  A(49,55,58)           110.8689                                         !
 ! A104  A(56,55,57)           107.807                                          !
 ! A105  A(56,55,58)           107.7168                                         !
 ! A106  A(57,55,58)           107.8075                                         !
 ! A107  A(44,59,60)           122.1648                                         !
 ! A108  A(44,59,61)           124.5856                                         !
 ! A109  A(60,59,61)           112.1647                                         !
 ! A110  A(59,61,62)           109.195                                          !
 ! A111  A(59,61,63)           107.2742                                         !
 ! A112  A(59,61,64)           110.8363                                         !
 ! A113  A(62,61,63)           109.5284                                         !
 ! A114  A(62,61,64)           109.0461                                         !
 ! A115  A(63,61,64)           110.9276                                         !
 ! A116  A(61,63,67)           113.7646                                         !
 ! A117  A(61,63,83)           118.0985                                         !
 ! A118  A(67,63,83)           127.9322                                         !
 ! A119  A(61,64,65)           107.9169                                         !
 ! A120  A(61,64,66)           107.4554                                         !
 ! A121  A(61,64,68)           114.8421                                         !
 ! A122  A(65,64,66)           106.4215                                         !
 ! A123  A(65,64,68)           109.6391                                         !
 ! A124  A(66,64,68)           110.2014                                         !
 ! A125  A(64,68,69)           109.7062                                         !
 ! A126  A(64,68,70)           109.7052                                         !
 ! A127  A(64,68,71)           111.5163                                         !
 ! A128  A(69,68,70)           107.8459                                         !
 ! A129  A(69,68,71)           109.1129                                         !
 ! A130  A(70,68,71)           108.8744                                         !
 ! A131  A(68,71,72)           111.7316                                         !
 ! A132  A(68,71,73)           109.7391                                         !
 ! A133  A(68,71,74)           114.4102                                         !
 ! A134  A(72,71,73)           106.4758                                         !
 ! A135  A(72,71,74)           107.2142                                         !
 ! A136  A(73,71,74)           106.8575                                         !
 ! A137  A(71,74,75)           117.2529                                         !
 ! A138  A(71,74,82)           126.3387                                         !
 ! A139  A(75,74,82)           115.8465                                         !
 ! A140  A(77,76,78)           117.7897                                         !
 ! A141  A(77,76,82)           117.3164                                         !
 ! A142  A(78,76,82)           122.9031                                         !
 ! A143  A(80,79,81)           115.3397                                         !
 ! A144  A(80,79,82)           118.7027                                         !
 ! A145  A(81,79,82)           118.3147                                         !
 ! A146  A(74,82,76)           122.4881                                         !
 ! A147  A(74,82,79)           115.8659                                         !
 ! A148  A(76,82,79)           121.6443                                         !
 ! D1    D(2,1,5,6)              1.6142                                         !
 ! D2    D(2,1,5,7)           -114.0764                                         !
 ! D3    D(2,1,5,8)            122.5433                                         !
 ! D4    D(3,1,5,6)            119.5879                                         !
 ! D5    D(3,1,5,7)              3.8974                                         !
 ! D6    D(3,1,5,8)           -119.483                                          !
 ! D7    D(4,1,5,6)           -122.6718                                         !
 ! D8    D(4,1,5,7)            121.6377                                         !
 ! D9    D(4,1,5,8)             -1.7427                                         !
 ! D10   D(1,5,7,10)            -4.8358                                         !
 ! D11   D(1,5,7,19)           175.079                                          !
 ! D12   D(6,5,7,10)          -118.6106                                         !
 ! D13   D(6,5,7,19)            61.3042                                         !
 ! D14   D(8,5,7,10)           116.8085                                         !
 ! D15   D(8,5,7,19)           -63.2767                                         !
 ! D16   D(1,5,8,9)            176.595                                          !
 ! D17   D(1,5,8,11)           -67.4383                                         !
 ! D18   D(1,5,8,15)            59.7332                                         !
 ! D19   D(6,5,8,9)            -63.9896                                         !
 ! D20   D(6,5,8,11)            51.9771                                         !
 ! D21   D(6,5,8,15)           179.1486                                         !
 ! D22   D(7,5,8,9)             60.5949                                         !
 ! D23   D(7,5,8,11)           176.5616                                         !
 ! D24   D(7,5,8,15)           -56.2669                                         !
 ! D25   D(5,7,19,20)            3.8518                                         !
 ! D26   D(5,7,19,21)          177.2493                                         !
 ! D27   D(10,7,19,20)        -176.2421                                         !
 ! D28   D(10,7,19,21)          -2.8445                                         !
 ! D29   D(5,8,11,12)           67.203                                          !
 ! D30   D(5,8,11,13)          -54.5011                                         !
 ! D31   D(5,8,11,14)         -174.187                                          !
 ! D32   D(9,8,11,12)         -178.637                                          !
 ! D33   D(9,8,11,13)           59.6589                                         !
 ! D34   D(9,8,11,14)          -60.0269                                         !
 ! D35   D(15,8,11,12)         -60.3569                                         !
 ! D36   D(15,8,11,13)         177.939                                          !
 ! D37   D(15,8,11,14)          58.2532                                         !
 ! D38   D(5,8,15,16)          -67.6789                                         !
 ! D39   D(5,8,15,17)           54.5338                                         !
 ! D40   D(5,8,15,18)          174.2472                                         !
 ! D41   D(9,8,15,16)          177.285                                          !
 ! D42   D(9,8,15,17)          -60.5023                                         !
 ! D43   D(9,8,15,18)           59.2111                                         !
 ! D44   D(11,8,15,16)          59.0861                                         !
 ! D45   D(11,8,15,17)        -178.7012                                         !
 ! D46   D(11,8,15,18)         -58.9878                                         !
 ! D47   D(7,19,21,22)         -48.1983                                         !
 ! D48   D(7,19,21,23)        -164.8367                                         !
 ! D49   D(7,19,21,24)          73.3648                                         !
 ! D50   D(20,19,21,22)        125.9189                                         !
 ! D51   D(20,19,21,23)          9.2806                                         !
 ! D52   D(20,19,21,24)       -112.518                                          !
 ! D53   D(19,21,23,28)         -7.8641                                         !
 ! D54   D(19,21,23,29)        172.7684                                         !
 ! D55   D(22,21,23,28)       -123.8351                                         !
 ! D56   D(22,21,23,29)         56.7974                                         !
 ! D57   D(24,21,23,28)        113.7112                                         !
 ! D58   D(24,21,23,29)        -65.6563                                         !
 ! D59   D(19,21,24,25)        179.8251                                         !
 ! D60   D(19,21,24,26)        -60.8455                                         !
 ! D61   D(19,21,24,27)         59.9278                                         !
 ! D62   D(22,21,24,25)        -59.1546                                         !
 ! D63   D(22,21,24,26)         60.1748                                         !
 ! D64   D(22,21,24,27)       -179.0519                                         !
 ! D65   D(23,21,24,25)         63.2991                                         !
 ! D66   D(23,21,24,26)       -177.3715                                         !
 ! D67   D(23,21,24,27)        -56.5982                                         !
 ! D68   D(21,23,29,30)          2.843                                          !
 ! D69   D(21,23,29,31)        175.5176                                         !
 ! D70   D(28,23,29,30)       -176.4849                                         !
 ! D71   D(28,23,29,31)         -3.8103                                         !
 ! D72   D(23,29,31,32)        -43.8727                                         !
 ! D73   D(23,29,31,33)       -161.5431                                         !
 ! D74   D(23,29,31,34)         75.9807                                         !
 ! D75   D(30,29,31,32)        129.4988                                         !
 ! D76   D(30,29,31,33)         11.8284                                         !
 ! D77   D(30,29,31,34)       -110.6478                                         !
 ! D78   D(29,31,33,37)         -5.4246                                         !
 ! D79   D(29,31,33,40)        173.8195                                         !
 ! D80   D(32,31,33,37)       -122.7194                                         !
 ! D81   D(32,31,33,40)         56.5247                                         !
 ! D82   D(34,31,33,37)        117.0394                                         !
 ! D83   D(34,31,33,40)        -63.7165                                         !
 ! D84   D(29,31,34,35)       -178.1604                                         !
 ! D85   D(29,31,34,36)        -61.2109                                         !
 ! D86   D(29,31,34,38)         60.2809                                         !
 ! D87   D(32,31,34,35)        -57.5217                                         !
 ! D88   D(32,31,34,36)         59.4279                                         !
 ! D89   D(32,31,34,38)       -179.0804                                         !
 ! D90   D(33,31,34,35)         63.8159                                         !
 ! D91   D(33,31,34,36)       -179.2346                                         !
 ! D92   D(33,31,34,38)        -57.7428                                         !
 ! D93   D(31,33,40,41)          2.8594                                         !
 ! D94   D(31,33,40,42)        177.1984                                         !
 ! D95   D(37,33,40,41)       -177.9368                                         !
 ! D96   D(37,33,40,42)         -3.5978                                         !
 ! D97   D(31,34,38,39)        170.258                                          !
 ! D98   D(35,34,38,39)         50.8182                                         !
 ! D99   D(36,34,38,39)        -70.4314                                         !
 ! D100  D(33,40,42,43)        -39.9447                                         !
 ! D101  D(33,40,42,44)       -157.9071                                         !
 ! D102  D(33,40,42,45)         80.4877                                         !
 ! D103  D(41,40,42,43)        134.9092                                         !
 ! D104  D(41,40,42,44)         16.9469                                         !
 ! D105  D(41,40,42,45)       -104.6584                                         !
 ! D106  D(40,42,44,48)        -20.0028                                         !
 ! D107  D(40,42,44,59)        160.6351                                         !
 ! D108  D(43,42,44,48)       -136.428                                          !
 ! D109  D(43,42,44,59)         44.21                                           !
 ! D110  D(45,42,44,48)        100.1369                                         !
 ! D111  D(45,42,44,59)        -79.2252                                         !
 ! D112  D(40,42,45,46)         65.1015                                         !
 ! D113  D(40,42,45,47)        -49.2166                                         !
 ! D114  D(40,42,45,49)       -170.6974                                         !
 ! D115  D(43,42,45,46)       -175.3779                                         !
 ! D116  D(43,42,45,47)         70.304                                          !
 ! D117  D(43,42,45,49)        -51.1768                                         !
 ! D118  D(44,42,45,46)        -51.546                                          !
 ! D119  D(44,42,45,47)       -165.8642                                         !
 ! D120  D(44,42,45,49)         72.6551                                         !
 ! D121  D(42,44,59,60)          2.89                                           !
 ! D122  D(42,44,59,61)        170.0352                                         !
 ! D123  D(48,44,59,60)       -176.443                                          !
 ! D124  D(48,44,59,61)         -9.2978                                         !
 ! D125  D(42,45,49,50)        -58.6098                                         !
 ! D126  D(42,45,49,51)         61.4157                                         !
 ! D127  D(42,45,49,55)       -175.6683                                         !
 ! D128  D(46,45,49,50)         64.5784                                         !
 ! D129  D(46,45,49,51)       -175.3961                                         !
 ! D130  D(46,45,49,55)        -52.4801                                         !
 ! D131  D(47,45,49,50)       -178.9811                                         !
 ! D132  D(47,45,49,51)        -58.9556                                         !
 ! D133  D(47,45,49,55)         63.9604                                         !
 ! D134  D(45,49,51,52)         57.7846                                         !
 ! D135  D(45,49,51,53)        -62.788                                          !
 ! D136  D(45,49,51,54)        177.5901                                         !
 ! D137  D(50,49,51,52)        178.4409                                         !
 ! D138  D(50,49,51,53)         57.8684                                         !
 ! D139  D(50,49,51,54)        -61.7536                                         !
 ! D140  D(55,49,51,52)        -64.493                                          !
 ! D141  D(55,49,51,53)        174.9344                                         !
 ! D142  D(55,49,51,54)         55.3125                                         !
 ! D143  D(45,49,55,56)        -62.1929                                         !
 ! D144  D(45,49,55,57)         58.0103                                         !
 ! D145  D(45,49,55,58)        178.0948                                         !
 ! D146  D(50,49,55,56)        179.5523                                         !
 ! D147  D(50,49,55,57)        -60.2446                                         !
 ! D148  D(50,49,55,58)         59.8399                                         !
 ! D149  D(51,49,55,56)         61.9873                                         !
 ! D150  D(51,49,55,57)       -177.8096                                         !
 ! D151  D(51,49,55,58)        -57.7251                                         !
 ! D152  D(44,59,61,62)        -30.3293                                         !
 ! D153  D(44,59,61,63)       -148.9449                                         !
 ! D154  D(44,59,61,64)         89.8174                                         !
 ! D155  D(60,59,61,62)        137.9371                                         !
 ! D156  D(60,59,61,63)         19.3214                                         !
 ! D157  D(60,59,61,64)       -101.9162                                         !
 ! D158  D(59,61,63,67)        159.0669                                         !
 ! D159  D(59,61,63,83)        -25.7174                                         !
 ! D160  D(62,61,63,67)         40.667                                          !
 ! D161  D(62,61,63,83)       -144.1174                                         !
 ! D162  D(64,61,63,67)        -79.753                                          !
 ! D163  D(64,61,63,83)         95.4626                                         !
 ! D164  D(59,61,64,65)         39.7611                                         !
 ! D165  D(59,61,64,66)        -74.6397                                         !
 ! D166  D(59,61,64,68)        162.3715                                         !
 ! D167  D(62,61,64,65)        159.9965                                         !
 ! D168  D(62,61,64,66)         45.5957                                         !
 ! D169  D(62,61,64,68)        -77.3931                                         !
 ! D170  D(63,61,64,65)        -79.2977                                         !
 ! D171  D(63,61,64,66)        166.3014                                         !
 ! D172  D(63,61,64,68)         43.3126                                         !
 ! D173  D(61,64,68,69)         33.9915                                         !
 ! D174  D(61,64,68,70)        152.2893                                         !
 ! D175  D(61,64,68,71)        -87.0099                                         !
 ! D176  D(65,64,68,69)        155.67                                           !
 ! D177  D(65,64,68,70)        -86.0323                                         !
 ! D178  D(65,64,68,71)         34.6686                                         !
 ! D179  D(66,64,68,69)        -87.5129                                         !
 ! D180  D(66,64,68,70)         30.7848                                         !
 ! D181  D(66,64,68,71)        151.4857                                         !
 ! D182  D(64,68,71,72)         40.4574                                         !
 ! D183  D(64,68,71,73)        -77.4077                                         !
 ! D184  D(64,68,71,74)        162.5138                                         !
 ! D185  D(69,68,71,72)        -80.8896                                         !
 ! D186  D(69,68,71,73)        161.2453                                         !
 ! D187  D(69,68,71,74)         41.1668                                         !
 ! D188  D(70,68,71,72)        161.6432                                         !
 ! D189  D(70,68,71,73)         43.7781                                         !
 ! D190  D(70,68,71,74)        -76.3004                                         !
 ! D191  D(68,71,74,75)         66.9737                                         !
 ! D192  D(68,71,74,82)       -104.0318                                         !
 ! D193  D(72,71,74,75)       -168.5349                                         !
 ! D194  D(72,71,74,82)         20.4596                                         !
 ! D195  D(73,71,74,75)        -54.6988                                         !
 ! D196  D(73,71,74,82)        134.2957                                         !
 ! D197  D(71,74,82,76)         10.7368                                         !
 ! D198  D(71,74,82,79)       -169.7332                                         !
 ! D199  D(75,74,82,76)       -160.3792                                         !
 ! D200  D(75,74,82,79)         19.1508                                         !
 ! D201  D(77,76,82,74)       -168.7696                                         !
 ! D202  D(77,76,82,79)         11.7271                                         !
 ! D203  D(78,76,82,74)         27.6579                                         !
 ! D204  D(78,76,82,79)       -151.8454                                         !
 ! D205  D(80,79,82,74)         34.9289                                         !
 ! D206  D(80,79,82,76)       -145.5367                                         !
 ! D207  D(81,79,82,74)       -176.9399                                         !
 ! D208  D(81,79,82,76)          2.5944                                         !
 --------------------------------------------------------------------------------
 Symmetry turned off by external request.
 Stoichiometry    C23H45N8O7(1+)
 Framework group  C1[X(C23H45N8O7)]
 Deg. of freedom   243
 Full point group                 C1      NOp   1
                          Input orientation:                          
 ---------------------------------------------------------------------
 Center     Atomic      Atomic             Coordinates (Angstroms)
 Number     Number       Type             X           Y           Z
 ---------------------------------------------------------------------
      1          7           0       -8.987309    0.952839    6.005614
      2          1           0       -9.327636    0.104676    6.464088
      3          1           0       -8.113154    1.321490    6.507830
      4          1           0       -9.731082    1.655573    6.023365
      5          6           0       -8.437320    0.712416    4.611818
      6          1           0       -8.559303   -0.351636    4.391950
      7          6           0       -6.927147    1.048743    4.792528
      8          6           0       -9.165103    1.559035    3.543066
      9          1           0       -8.635773    1.339603    2.606912
     10          8           0       -6.570532    1.490650    5.899840
     11          6           0      -10.624073    1.107375    3.368591
     12          1           0      -11.234558    1.314291    4.258385
     13          1           0      -10.695911    0.036316    3.149357
     14          1           0      -11.087132    1.648971    2.538651
     15          6           0       -9.053313    3.070895    3.800794
     16          1           0       -9.599617    3.388780    4.700041
     17          1           0       -8.014402    3.399548    3.902887
     18          1           0       -9.495475    3.619108    2.964123
     19          7           0       -6.143685    0.834407    3.749837
     20          1           0       -6.489743    0.520469    2.835913
     21          6           0       -4.711251    1.134500    3.686517
     22          1           0       -4.548507    2.154000    4.054148
     23          6           0       -4.390589    1.068328    2.170972
     24          6           0       -3.872252    0.146770    4.511459
     25          1           0       -2.809256    0.395644    4.441166
     26          1           0       -4.163772    0.194833    5.563984
     27          1           0       -4.010162   -0.875911    4.146272
     28          8           0       -5.255242    0.662197    1.381556
     29          7           0       -3.162335    1.455355    1.826918
     30          1           0       -2.457445    1.735462    2.510026
     31          6           0       -2.617937    1.387354    0.479988
     32          1           0       -2.880084    0.421254    0.031423
     33          6           0       -1.080356    1.480521    0.669149
     34          6           0       -3.164995    2.494468   -0.429692
     35          1           0       -2.739515    2.364074   -1.436151
     36          1           0       -4.255162    2.375411   -0.507182
     37          8           0       -0.608607    1.686545    1.790830
     38          8           0       -2.806833    3.742277    0.140214
     39          1           0       -3.010917    4.438769   -0.501383
     40          7           0       -0.354056    1.307949   -0.442678
     41          1           0       -0.772201    1.169701   -1.360845
     42          6           0        1.100465    1.413591   -0.499052
     43          1           0        1.409559    2.252950    0.131492
     44          6           0        1.411672    1.706073   -1.983132
     45          6           0        1.761311    0.103791    0.005618
     46          1           0        1.495140   -0.695740   -0.698564
     47          1           0        1.277548   -0.136606    0.960887
     48          8           0        0.574510    1.437033   -2.853654
     49          6           0        3.288915    0.116153    0.222589
     50          1           0        3.785505    0.373482   -0.721748
     51          6           0        3.723924    1.138386    1.285089
     52          1           0        3.230771    0.940009    2.245437
     53          1           0        3.488155    2.170890    1.001376
     54          1           0        4.806669    1.090303    1.443773
     55          6           0        3.755960   -1.294678    0.614877
     56          1           0        3.299322   -1.612174    1.561602
     57          1           0        3.488308   -2.032606   -0.150558
     58          1           0        4.843734   -1.324201    0.742936
     59          7           0        2.616493    2.239280   -2.239644
     60          1           0        3.304886    2.400625   -1.507090
     61          6           0        3.184798    2.396765   -3.572667
     62          1           0        2.810144    1.599926   -4.219288
     63          6           0        4.719745    2.271975   -3.435062
     64          6           0        2.791342    3.773760   -4.183263
     65          1           0        2.841739    4.525021   -3.383255
     66          1           0        1.740208    3.711543   -4.483721
     67          8           0        5.313322    1.968111   -4.529375
     68          6           0        3.660922    4.226722   -5.376048
     69          1           0        3.968261    3.355558   -5.959811
     70          1           0        3.075027    4.882540   -6.033352
     71          6           0        4.917088    4.986946   -4.903837
     72          1           0        5.359307    4.526319   -4.019831
     73          1           0        4.645122    6.010577   -4.618197
     74          7           0        5.977707    5.094268   -5.914857
     75          1           0        5.784156    5.659565   -6.730977
     76          7           0        7.331309    3.341397   -5.173375
     77          1           0        8.272376    2.971062   -5.136900
     78          1           0        6.494711    2.694659   -4.774420
     79          7           0        8.057996    4.801972   -6.858127
     80          1           0        8.147205    5.792027   -7.041093
     81          1           0        8.909627    4.267143   -6.949477
     82          6           0        7.121606    4.382471   -5.950963
     83          8           0        5.234186    2.557619   -2.341190
 ---------------------------------------------------------------------
 Rotational constants (GHZ):           0.2520448           0.0225739           0.0213655
 Standard basis: 6-31G(d) (6D, 7F)
   660 basis functions,  1244 primitive gaussians,   660 cartesian basis functions
   147 alpha electrons      147 beta electrons
       nuclear repulsion energy      4273.7592331834 Hartrees.
 NAtoms=   83 NActive=   83 NUniq=   83 SFac= 1.00D+00 NAtFMM=   60 NAOKFM=T Big=T
 Integral buffers will be    131072 words long.
 Raffenetti 2 integral format.
 Two-electron integral symmetry is turned off.
 One-electron integrals computed using PRISM.
 NBasis=   660 RedAO= T EigKep=  1.81D-03  NBF=   660
 NBsUse=   660 1.00D-06 EigRej= -1.00D+00 NBFU=   660
 Initial guess from the checkpoint file:  "conf-966.chk"
 B after Tr=     0.000000    0.000000    0.000000
         Rot=    1.000000    0.000000    0.000000    0.000000 Ang=   0.00 deg.
 Requested convergence on RMS density matrix=1.00D-08 within 128 cycles.
 Requested convergence on MAX density matrix=1.00D-06.
 Requested convergence on             energy=1.00D-06.
 No special actions if energy rises.
 SCF Done:  E(RB3LYP) =  -1868.00992105     A.U. after    2 cycles
            NFock=  2  Conv=0.70D-08     -V/T= 2.0094

 **********************************************************************

            Population analysis using the SCF Density.

 **********************************************************************

 Alpha  occ. eigenvalues --  -19.26561 -19.21306 -19.21069 -19.17792 -19.15777
 Alpha  occ. eigenvalues --  -19.13213 -19.12551 -14.59312 -14.48742 -14.45055
 Alpha  occ. eigenvalues --  -14.44793 -14.44067 -14.41373 -14.41237 -14.39333
 Alpha  occ. eigenvalues --  -10.43112 -10.40238 -10.40218 -10.37997 -10.34998
 Alpha  occ. eigenvalues --  -10.34442 -10.34028 -10.32833 -10.30801 -10.30705
 Alpha  occ. eigenvalues --  -10.30703 -10.30597 -10.30552 -10.28421 -10.27916
 Alpha  occ. eigenvalues --  -10.27564 -10.25381 -10.23405 -10.22994 -10.22677
 Alpha  occ. eigenvalues --  -10.22551 -10.20768 -10.20719  -1.18886  -1.13375
 Alpha  occ. eigenvalues --   -1.12777  -1.09872  -1.08707  -1.08584  -1.07552
 Alpha  occ. eigenvalues --   -1.06210  -1.05441  -1.00744  -0.98518  -0.98131
 Alpha  occ. eigenvalues --   -0.97878  -0.95825  -0.95608  -0.95114  -0.88764
 Alpha  occ. eigenvalues --   -0.85662  -0.84938  -0.84136  -0.82914  -0.81844
 Alpha  occ. eigenvalues --   -0.79585  -0.77550  -0.76630  -0.73950  -0.73515
 Alpha  occ. eigenvalues --   -0.73116  -0.72664  -0.71614  -0.71186  -0.70268
 Alpha  occ. eigenvalues --   -0.69611  -0.68864  -0.66255  -0.65901  -0.65712
 Alpha  occ. eigenvalues --   -0.64532  -0.63495  -0.62915  -0.62246  -0.61834
 Alpha  occ. eigenvalues --   -0.60876  -0.60052  -0.59661  -0.59234  -0.58428
 Alpha  occ. eigenvalues --   -0.58307  -0.57602  -0.57279  -0.56282  -0.55218
 Alpha  occ. eigenvalues --   -0.54718  -0.54271  -0.53531  -0.53075  -0.52640
 Alpha  occ. eigenvalues --   -0.52281  -0.51898  -0.51660  -0.51139  -0.50898
 Alpha  occ. eigenvalues --   -0.50405  -0.50376  -0.49900  -0.49589  -0.48810
 Alpha  occ. eigenvalues --   -0.48706  -0.48055  -0.48005  -0.47782  -0.47489
 Alpha  occ. eigenvalues --   -0.47247  -0.46629  -0.46398  -0.46091  -0.45773
 Alpha  occ. eigenvalues --   -0.45607  -0.45174  -0.44268  -0.43915  -0.43056
 Alpha  occ. eigenvalues --   -0.42713  -0.42162  -0.41606  -0.41167  -0.41066
 Alpha  occ. eigenvalues --   -0.40951  -0.40775  -0.40212  -0.39543  -0.38757
 Alpha  occ. eigenvalues --   -0.38702  -0.37446  -0.36873  -0.36240  -0.36031
 Alpha  occ. eigenvalues --   -0.35634  -0.35587  -0.34497  -0.33415  -0.32879
 Alpha  occ. eigenvalues --   -0.31945  -0.30927  -0.30077  -0.29847  -0.28652
 Alpha  occ. eigenvalues --   -0.27267  -0.26566
 Alpha virt. eigenvalues --   -0.11981  -0.10966  -0.06747  -0.06393  -0.05216
 Alpha virt. eigenvalues --   -0.03769  -0.03390  -0.02124  -0.02046  -0.01509
 Alpha virt. eigenvalues --   -0.00331   0.00551   0.00863   0.01472   0.01564
 Alpha virt. eigenvalues --    0.02145   0.02442   0.02720   0.03093   0.03176
 Alpha virt. eigenvalues --    0.03790   0.04655   0.04760   0.04981   0.06006
 Alpha virt. eigenvalues --    0.06206   0.06295   0.06962   0.07156   0.07472
 Alpha virt. eigenvalues --    0.07697   0.08018   0.08858   0.08999   0.09198
 Alpha virt. eigenvalues --    0.09264   0.09631   0.09919   0.10139   0.10272
 Alpha virt. eigenvalues --    0.10555   0.10603   0.11265   0.11641   0.11788
 Alpha virt. eigenvalues --    0.11862   0.12183   0.12426   0.12630   0.13075
 Alpha virt. eigenvalues --    0.13641   0.14073   0.14149   0.14709   0.15429
 Alpha virt. eigenvalues --    0.15701   0.16270   0.16332   0.16835   0.17577
 Alpha virt. eigenvalues --    0.17770   0.18028   0.18467   0.19208   0.19537
 Alpha virt. eigenvalues --    0.19641   0.20281   0.20591   0.21417   0.22294
 Alpha virt. eigenvalues --    0.22434   0.22795   0.23615   0.24169   0.24431
 Alpha virt. eigenvalues --    0.24927   0.26377   0.28097   0.29972   0.30201
 Alpha virt. eigenvalues --    0.30489   0.32382   0.33077   0.34418   0.34996
 Alpha virt. eigenvalues --    0.35868   0.36092   0.37147   0.37691   0.38871
 Alpha virt. eigenvalues --    0.39806   0.40940   0.41669   0.42777   0.43414
 Alpha virt. eigenvalues --    0.44344   0.45114   0.45197   0.45426   0.46143
 Alpha virt. eigenvalues --    0.46368   0.47074   0.47280   0.47709   0.48124
 Alpha virt. eigenvalues --    0.48260   0.48859   0.49228   0.49374   0.49845
 Alpha virt. eigenvalues --    0.50210   0.50533   0.50860   0.51548   0.52161
 Alpha virt. eigenvalues --    0.52448   0.52951   0.53437   0.53734   0.54166
 Alpha virt. eigenvalues --    0.54467   0.54661   0.56235   0.57041   0.57252
 Alpha virt. eigenvalues --    0.57624   0.58070   0.58255   0.58436   0.59142
 Alpha virt. eigenvalues --    0.59531   0.59726   0.59892   0.60712   0.60880
 Alpha virt. eigenvalues --    0.60924   0.61252   0.61714   0.62406   0.62690
 Alpha virt. eigenvalues --    0.63765   0.64093   0.64607   0.64774   0.65094
 Alpha virt. eigenvalues --    0.65988   0.66705   0.67475   0.67670   0.67964
 Alpha virt. eigenvalues --    0.68430   0.68956   0.69075   0.69450   0.69495
 Alpha virt. eigenvalues --    0.70087   0.70178   0.71020   0.72044   0.72640
 Alpha virt. eigenvalues --    0.72931   0.73547   0.73878   0.74403   0.74938
 Alpha virt. eigenvalues --    0.75293   0.75469   0.75924   0.76572   0.77270
 Alpha virt. eigenvalues --    0.77915   0.78227   0.78599   0.78706   0.78953
 Alpha virt. eigenvalues --    0.79150   0.79363   0.79439   0.79962   0.80311
 Alpha virt. eigenvalues --    0.80618   0.80744   0.80977   0.81578   0.81689
 Alpha virt. eigenvalues --    0.81909   0.82218   0.82337   0.82866   0.83629
 Alpha virt. eigenvalues --    0.84057   0.84091   0.84373   0.84520   0.84851
 Alpha virt. eigenvalues --    0.85381   0.85578   0.86064   0.86534   0.86970
 Alpha virt. eigenvalues --    0.87390   0.87739   0.87948   0.88124   0.88315
 Alpha virt. eigenvalues --    0.88659   0.88802   0.89048   0.89806   0.90665
 Alpha virt. eigenvalues --    0.90831   0.91460   0.91595   0.91616   0.92276
 Alpha virt. eigenvalues --    0.92407   0.92730   0.93235   0.93451   0.94415
 Alpha virt. eigenvalues --    0.94780   0.95720   0.96302   0.96514   0.97683
 Alpha virt. eigenvalues --    0.98505   0.99314   0.99701   1.00402   1.00547
 Alpha virt. eigenvalues --    1.01231   1.01875   1.03485   1.04021   1.04804
 Alpha virt. eigenvalues --    1.05715   1.07223   1.07944   1.08112   1.09066
 Alpha virt. eigenvalues --    1.09363   1.11157   1.12184   1.14217   1.14943
 Alpha virt. eigenvalues --    1.15419   1.16762   1.17610   1.18406   1.19420
 Alpha virt. eigenvalues --    1.19744   1.21414   1.21570   1.21769   1.22727
 Alpha virt. eigenvalues --    1.24459   1.24565   1.25263   1.25960   1.26335
 Alpha virt. eigenvalues --    1.27892   1.28819   1.29561   1.30239   1.31977
 Alpha virt. eigenvalues --    1.32526   1.34016   1.35282   1.35761   1.35961
 Alpha virt. eigenvalues --    1.37451   1.37844   1.39384   1.40618   1.41324
 Alpha virt. eigenvalues --    1.41607   1.42714   1.43391   1.44007   1.44561
 Alpha virt. eigenvalues --    1.45504   1.46465   1.47112   1.48540   1.48963
 Alpha virt. eigenvalues --    1.50514   1.51422   1.52253   1.52411   1.53914
 Alpha virt. eigenvalues --    1.54644   1.55472   1.56136   1.56625   1.58153
 Alpha virt. eigenvalues --    1.58851   1.59244   1.60017   1.61144   1.62332
 Alpha virt. eigenvalues --    1.62492   1.63599   1.63976   1.64387   1.64725
 Alpha virt. eigenvalues --    1.66118   1.66660   1.67430   1.67980   1.68374
 Alpha virt. eigenvalues --    1.68861   1.69781   1.69927   1.70632   1.71970
 Alpha virt. eigenvalues --    1.72707   1.73338   1.73439   1.74296   1.74978
 Alpha virt. eigenvalues --    1.75446   1.75534   1.76146   1.77008   1.77645
 Alpha virt. eigenvalues --    1.77959   1.78684   1.78945   1.79490   1.79755
 Alpha virt. eigenvalues --    1.80067   1.80235   1.80805   1.82062   1.82210
 Alpha virt. eigenvalues --    1.82894   1.83388   1.83722   1.84243   1.85607
 Alpha virt. eigenvalues --    1.85764   1.85998   1.86671   1.87000   1.87497
 Alpha virt. eigenvalues --    1.88838   1.89284   1.89773   1.90046   1.90463
 Alpha virt. eigenvalues --    1.91290   1.91637   1.92044   1.92287   1.93341
 Alpha virt. eigenvalues --    1.94509   1.94672   1.95031   1.95214   1.95701
 Alpha virt. eigenvalues --    1.96651   1.96812   1.97655   1.98626   1.98881
 Alpha virt. eigenvalues --    1.98931   2.00101   2.00565   2.01004   2.01261
 Alpha virt. eigenvalues --    2.02462   2.03336   2.04278   2.04600   2.05218
 Alpha virt. eigenvalues --    2.06257   2.07076   2.07974   2.08431   2.08809
 Alpha virt. eigenvalues --    2.08923   2.11034   2.12584   2.13115   2.14141
 Alpha virt. eigenvalues --    2.15127   2.15567   2.17135   2.17212   2.17394
 Alpha virt. eigenvalues --    2.19216   2.19931   2.20325   2.20986   2.21347
 Alpha virt. eigenvalues --    2.22476   2.22597   2.23837   2.24462   2.25442
 Alpha virt. eigenvalues --    2.26205   2.26673   2.27211   2.28010   2.29250
 Alpha virt. eigenvalues --    2.29733   2.30286   2.30675   2.31874   2.32241
 Alpha virt. eigenvalues --    2.33665   2.34352   2.34439   2.34899   2.36191
 Alpha virt. eigenvalues --    2.37608   2.38059   2.38820   2.39403   2.41840
 Alpha virt. eigenvalues --    2.42530   2.43569   2.44673   2.45558   2.46411
 Alpha virt. eigenvalues --    2.46965   2.48107   2.48181   2.48849   2.49223
 Alpha virt. eigenvalues --    2.51276   2.52215   2.52853   2.53656   2.54448
 Alpha virt. eigenvalues --    2.57203   2.57807   2.57998   2.58320   2.59594
 Alpha virt. eigenvalues --    2.60214   2.60312   2.62206   2.64311   2.64739
 Alpha virt. eigenvalues --    2.66027   2.66568   2.67660   2.69499   2.70461
 Alpha virt. eigenvalues --    2.71636   2.73781   2.74880   2.75557   2.76034
 Alpha virt. eigenvalues --    2.78965   2.80254   2.81285   2.83297   2.84604
 Alpha virt. eigenvalues --    2.87279   2.88710   2.90370   2.91635   2.93411
 Alpha virt. eigenvalues --    2.94129   2.95822   2.96340   3.00555   3.03759
 Alpha virt. eigenvalues --    3.05785   3.09753   3.13688   3.16678   3.19131
 Alpha virt. eigenvalues --    3.64898   3.69038   3.71461   3.85685   3.90340
 Alpha virt. eigenvalues --    3.91556   3.96325   3.98953   4.00289   4.01492
 Alpha virt. eigenvalues --    4.03770   4.05443   4.07221   4.08219   4.11727
 Alpha virt. eigenvalues --    4.13187   4.15568   4.16229   4.18234   4.18429
 Alpha virt. eigenvalues --    4.24346   4.25433   4.25706   4.27023   4.29333
 Alpha virt. eigenvalues --    4.31952   4.34363   4.37051   4.37155   4.39333
 Alpha virt. eigenvalues --    4.45970   4.48240   4.51597   4.52323   4.55654
 Alpha virt. eigenvalues --    4.59116   4.62035   4.66963
          Condensed to atoms (all electrons):
 Mulliken charges:
               1
     1  N   -0.765260
     2  H    0.414774
     3  H    0.436570
     4  H    0.408352
     5  C   -0.099000
     6  H    0.214742
     7  C    0.655240
     8  C   -0.125353
     9  H    0.192167
    10  O   -0.551611
    11  C   -0.461618
    12  H    0.139065
    13  H    0.172706
    14  H    0.198154
    15  C   -0.477539
    16  H    0.142042
    17  H    0.188227
    18  H    0.198784
    19  N   -0.614199
    20  H    0.378468
    21  C   -0.054291
    22  H    0.198850
    23  C    0.632601
    24  C   -0.459035
    25  H    0.187942
    26  H    0.185779
    27  H    0.169817
    28  O   -0.559377
    29  N   -0.609868
    30  H    0.373089
    31  C   -0.069629
    32  H    0.186669
    33  C    0.648365
    34  C   -0.041720
    35  H    0.145558
    36  H    0.156213
    37  O   -0.551715
    38  O   -0.612115
    39  H    0.405960
    40  N   -0.629611
    41  H    0.358137
    42  C   -0.055060
    43  H    0.177271
    44  C    0.613199
    45  C   -0.253602
    46  H    0.141284
    47  H    0.155513
    48  O   -0.559242
    49  C   -0.094290
    50  H    0.149661
    51  C   -0.447691
    52  H    0.144514
    53  H    0.139016
    54  H    0.155822
    55  C   -0.444454
    56  H    0.136958
    57  H    0.143605
    58  H    0.150697
    59  N   -0.616479
    60  H    0.360741
    61  C   -0.019443
    62  H    0.174061
    63  C    0.589437
    64  C   -0.280818
    65  H    0.139139
    66  H    0.162757
    67  O   -0.635450
    68  C   -0.268583
    69  H    0.183465
    70  H    0.128197
    71  C   -0.172934
    72  H    0.215227
    73  H    0.159032
    74  N   -0.597213
    75  H    0.343403
    76  N   -0.766303
    77  H    0.336948
    78  H    0.460511
    79  N   -0.761981
    80  H    0.355512
    81  H    0.357233
    82  C    0.761679
    83  O   -0.567668
 Sum of Mulliken charges =   1.00000
 Mulliken charges with hydrogens summed into heavy atoms:
               1
     1  N    0.494437
     5  C    0.115742
     7  C    0.655240
     8  C    0.066814
    10  O   -0.551611
    11  C    0.048307
    15  C    0.051514
    19  N   -0.235731
    21  C    0.144559
    23  C    0.632601
    24  C    0.084503
    28  O   -0.559377
    29  N   -0.236779
    31  C    0.117040
    33  C    0.648365
    34  C    0.260050
    37  O   -0.551715
    38  O   -0.206155
    40  N   -0.271473
    42  C    0.122211
    44  C    0.613199
    45  C    0.043195
    48  O   -0.559242
    49  C    0.055370
    51  C   -0.008340
    55  C   -0.013195
    59  N   -0.255738
    61  C    0.154618
    63  C    0.589437
    64  C    0.021078
    67  O   -0.635450
    68  C    0.043079
    71  C    0.201325
    74  N   -0.253811
    76  N    0.031156
    79  N   -0.049236
    82  C    0.761679
    83  O   -0.567668
 Electronic spatial extent (au):  <R**2>=          51772.6733
 Charge=              1.0000 electrons
 Dipole moment (field-independent basis, Debye):
    X=            -23.9811    Y=             13.0294    Z=              8.1512  Tot=             28.4833
 Quadrupole moment (field-independent basis, Debye-Ang):
   XX=            194.6608   YY=           -154.6605   ZZ=            -49.7890
   XY=             33.0531   XZ=           -264.7926   YZ=            -63.5073
 Traceless Quadrupole moment (field-independent basis, Debye-Ang):
   XX=            197.9237   YY=           -151.3976   ZZ=            -46.5261
   XY=             33.0531   XZ=           -264.7926   YZ=            -63.5073
 Octapole moment (field-independent basis, Debye-Ang**2):
  XXX=          -1619.5945  YYY=           -914.3525  ZZZ=            155.5461  XYY=            445.4900
  XXY=            473.3703  XXZ=            888.1946  XZZ=           -207.5838  YZZ=            106.6986
  YYZ=           -385.8247  XYZ=           -655.6755
 Hexadecapole moment (field-independent basis, Debye-Ang**3):
 XXXX=          -1984.0412 YYYY=          -6254.9119 ZZZZ=         -11351.2838 XXXY=             80.1207
 XXXZ=         -11369.1293 YYYX=            484.1097 YYYZ=            296.5338 ZZZX=           1444.2108
 ZZZY=           -201.0045 XXYY=          -4092.1520 XXZZ=           5286.4388 YYZZ=          -1533.9772
 XXYZ=          -1920.1397 YYXZ=            664.3393 ZZXY=           2420.3908
 N-N= 4.273759233183D+03 E-N=-1.287913248431D+04  KE= 1.850634976769D+03
 Unable to Open any file for archive entry.
 1\1\GINC-SKL-158\SP\RB3LYP\6-31G(d)\C23H45N8O7(1+)\KENGMITH\30-Jun-202
 2\0\\# B3LYP/6-31G* guess=read geom=check nosymm integral(ultrafinegri
 d)\\Candidate Structure: Conf:966 Charge calc in gas phase\\1,1\N,0,-8
 .9873091974,0.9528385425,6.0056138143\H,0,-9.3276360704,0.104676168,6.
 4640876065\H,0,-8.1131544186,1.3214902197,6.507829955\H,0,-9.731081947
 9,1.6555727422,6.0233650564\C,0,-8.4373204118,0.7124163132,4.611818206
 2\H,0,-8.5593029655,-0.351635848,4.391949637\C,0,-6.9271470572,1.04874
 2649,4.7925277257\C,0,-9.1651028409,1.559035478,3.5430660527\H,0,-8.63
 57728846,1.3396034002,2.6069118399\O,0,-6.5705317853,1.4906504699,5.89
 98403449\C,0,-10.6240734863,1.1073749695,3.3685907875\H,0,-11.23455839
 ,1.31429062,4.2583846126\H,0,-10.6959114458,0.0363158454,3.1493572473\
 H,0,-11.0871316462,1.6489714252,2.5386510695\C,0,-9.0533130036,3.07089
 53788,3.8007939632\H,0,-9.5996171435,3.3887795993,4.7000412247\H,0,-8.
 0144021024,3.3995480883,3.9028874644\H,0,-9.4954751816,3.6191084718,2.
 964123052\N,0,-6.1436847295,0.834407163,3.7498371114\H,0,-6.4897433478
 ,0.5204688839,2.8359125773\C,0,-4.7112510245,1.1345003488,3.6865169411
 \H,0,-4.5485067293,2.1540002338,4.0541477507\C,0,-4.3905885579,1.06832
 78732,2.1709716702\C,0,-3.8722522516,0.1467704655,4.5114588248\H,0,-2.
 8092559039,0.3956443267,4.4411657495\H,0,-4.1637724783,0.1948332499,5.
 5639842809\H,0,-4.0101616129,-0.8759106591,4.1462721422\O,0,-5.2552416
 001,0.6621967459,1.3815564581\N,0,-3.1623346523,1.4553553523,1.8269183
 149\H,0,-2.4574450253,1.7354616211,2.5100262336\C,0,-2.6179369858,1.38
 73535834,0.4799884116\H,0,-2.8800841328,0.4212542611,0.031422898\C,0,-
 1.0803555851,1.4805209616,0.6691487014\C,0,-3.1649953241,2.4944676287,
 -0.4296915448\H,0,-2.7395150345,2.3640737611,-1.4361507098\H,0,-4.2551
 62024,2.3754113228,-0.5071820796\O,0,-0.608607046,1.6865448381,1.79082
 96089\O,0,-2.8068333248,3.7422774887,0.1402135711\H,0,-3.0109172668,4.
 4387693055,-0.5013828865\N,0,-0.354056449,1.307949379,-0.4426783062\H,
 0,-0.772200777,1.1697005843,-1.3608450635\C,0,1.1004654227,1.413591167
 ,-0.4990516984\H,0,1.4095591775,2.2529496799,0.1314916331\C,0,1.411672
 4219,1.7060730043,-1.983132356\C,0,1.761310582,0.1037910433,0.00561847
 8\H,0,1.4951401538,-0.6957396189,-0.6985644843\H,0,1.2775475998,-0.136
 6058265,0.9608865857\O,0,0.5745097905,1.4370325015,-2.8536542567\C,0,3
 .2889148628,0.1161532142,0.222588939\H,0,3.7855049421,0.3734823524,-0.
 7217482512\C,0,3.72392444,1.1383858076,1.2850885285\H,0,3.2307706801,0
 .9400090526,2.2454366705\H,0,3.4881545785,2.1708900122,1.0013755847\H,
 0,4.8066685532,1.0903032962,1.4437730162\C,0,3.755959976,-1.2946776639
 ,0.6148768266\H,0,3.2993221924,-1.612173753,1.5616022505\H,0,3.4883077
 077,-2.0326060206,-0.150557797\H,0,4.8437340669,-1.3242007145,0.742936
 2142\N,0,2.6164930678,2.2392799012,-2.2396442293\H,0,3.3048855407,2.40
 06245739,-1.5070895253\C,0,3.1847978443,2.3967648425,-3.5726666599\H,0
 ,2.8101439313,1.5999263601,-4.2192876995\C,0,4.7197450972,2.2719753512
 ,-3.4350617735\C,0,2.7913418794,3.7737597387,-4.1832633286\H,0,2.84173
 9424,4.5250207286,-3.383255341\H,0,1.7402079956,3.7115426851,-4.483721
 2645\O,0,5.3133220043,1.968110595,-4.5293752342\C,0,3.6609220836,4.226
 7224544,-5.3760475809\H,0,3.9682605783,3.3555576675,-5.9598107486\H,0,
 3.0750270569,4.8825395284,-6.0333524057\C,0,4.9170882022,4.9869455791,
 -4.903836995\H,0,5.3593067499,4.5263187489,-4.0198314638\H,0,4.6451217
 643,6.010577067,-4.6181974217\N,0,5.977707337,5.0942677861,-5.91485733
 19\H,0,5.7841563809,5.6595646516,-6.7309770349\N,0,7.3313093754,3.3413
 969175,-5.1733746335\H,0,8.272376032,2.9710616559,-5.1369003993\H,0,6.
 4947107801,2.6946586412,-4.7744203269\N,0,8.0579961574,4.8019716529,-6
 .8581269922\H,0,8.1472045774,5.7920266674,-7.0410932068\H,0,8.90962711
 47,4.267143095,-6.9494769563\C,0,7.1216057842,4.3824712146,-5.95096347
 16\O,0,5.2341859253,2.5576190803,-2.3411903038\\Version=ES64L-G16RevC.
 01\HF=-1868.0099211\RMSD=7.021e-09\Dipole=-8.2985348,1.4303958,3.44971
 41\Quadrupole=147.1514036,-112.5603985,-34.591005,24.5741462,-196.8668
 268,-47.2161381\PG=C01 [X(C23H45N8O7)]\\@
 The archive entry for this job was punched.



 WE LOSE BECAUSE WE WIN

 GAMBLERS,

 RECOLLECTING WHICH,

 TOSS THEIR DICE AGAIN....


                          EMILY DICKINSON  BOLTS OF MELODY NO. 533
 Job cpu time:       0 days  0 hours  2 minutes 27.4 seconds.
 Elapsed time:       0 days  0 hours  0 minutes 40.2 seconds.
 File lengths (MBytes):  RWF=    344 Int=      0 D2E=      0 Chk=     48 Scr=     16
 Normal termination of Gaussian 16 at Thu Jun 30 14:28:49 2022.
