 Entering Gaussian System, Link 0=/opt/software/Gaussian/g16-AVX2-C.01/g16/g16
 Input=charge-conf-121.com
 Output=charge-conf-121.log
 Initial command:
 /opt/software/Gaussian/g16-AVX2-C.01/g16/l1.exe "/mnt/gs18/scratch/users/kengmith/Gau-49161.inp" -scrdir="/mnt/gs18/scratch/users/kengmith/"
 Entering Link 1 = /opt/software/Gaussian/g16-AVX2-C.01/g16/l1.exe PID=     49171.
  
 Copyright (c) 1988-2019, Gaussian, Inc.  All Rights Reserved.
  
 This is part of the Gaussian(R) 16 program.  It is based on
 the Gaussian(R) 09 system (copyright 2009, Gaussian, Inc.),
 the Gaussian(R) 03 system (copyright 2003, Gaussian, Inc.),
 the Gaussian(R) 98 system (copyright 1998, Gaussian, Inc.),
 the Gaussian(R) 94 system (copyright 1995, Gaussian, Inc.),
 the Gaussian 92(TM) system (copyright 1992, Gaussian, Inc.),
 the Gaussian 90(TM) system (copyright 1990, Gaussian, Inc.),
 the Gaussian 88(TM) system (copyright 1988, Gaussian, Inc.),
 the Gaussian 86(TM) system (copyright 1986, Carnegie Mellon
 University), and the Gaussian 82(TM) system (copyright 1983,
 Carnegie Mellon University). Gaussian is a federally registered
 trademark of Gaussian, Inc.
  
 This software contains proprietary and confidential information,
 including trade secrets, belonging to Gaussian, Inc.
  
 This software is provided under written license and may be
 used, copied, transmitted, or stored only in accord with that
 written license.
  
 The following legend is applicable only to US Government
 contracts under FAR:
  
                    RESTRICTED RIGHTS LEGEND
  
 Use, reproduction and disclosure by the US Government is
 subject to restrictions as set forth in subparagraphs (a)
 and (c) of the Commercial Computer Software - Restricted
 Rights clause in FAR 52.227-19.
  
 Gaussian, Inc.
 340 Quinnipiac St., Bldg. 40, Wallingford CT 06492
  
  
 ---------------------------------------------------------------
 Warning -- This program may not be used in any manner that
 competes with the business of Gaussian, Inc. or will provide
 assistance to any competitor of Gaussian, Inc.  The licensee
 of this program is prohibited from giving any competitor of
 Gaussian, Inc. access to this program.  By using this program,
 the user acknowledges that Gaussian, Inc. is engaged in the
 business of creating and licensing software in the field of
 computational chemistry and represents and warrants to the
 licensee that it is not a competitor of Gaussian, Inc. and that
 it will not use this program in any manner prohibited above.
 ---------------------------------------------------------------
  

 Cite this work as:
 Gaussian 16, Revision C.01,
 M. J. Frisch, G. W. Trucks, H. B. Schlegel, G. E. Scuseria, 
 M. A. Robb, J. R. Cheeseman, G. Scalmani, V. Barone, 
 G. A. Petersson, H. Nakatsuji, X. Li, M. Caricato, A. V. Marenich, 
 J. Bloino, B. G. Janesko, R. Gomperts, B. Mennucci, H. P. Hratchian, 
 J. V. Ortiz, A. F. Izmaylov, J. L. Sonnenberg, D. Williams-Young, 
 F. Ding, F. Lipparini, F. Egidi, J. Goings, B. Peng, A. Petrone, 
 T. Henderson, D. Ranasinghe, V. G. Zakrzewski, J. Gao, N. Rega, 
 G. Zheng, W. Liang, M. Hada, M. Ehara, K. Toyota, R. Fukuda, 
 J. Hasegawa, M. Ishida, T. Nakajima, Y. Honda, O. Kitao, H. Nakai, 
 T. Vreven, K. Throssell, J. A. Montgomery, Jr., J. E. Peralta, 
 F. Ogliaro, M. J. Bearpark, J. J. Heyd, E. N. Brothers, K. N. Kudin, 
 V. N. Staroverov, T. A. Keith, R. Kobayashi, J. Normand, 
 K. Raghavachari, A. P. Rendell, J. C. Burant, S. S. Iyengar, 
 J. Tomasi, M. Cossi, J. M. Millam, M. Klene, C. Adamo, R. Cammi, 
 J. W. Ochterski, R. L. Martin, K. Morokuma, O. Farkas, 
 J. B. Foresman, and D. J. Fox, Gaussian, Inc., Wallingford CT, 2019.
 
 ******************************************
 Gaussian 16:  ES64L-G16RevC.01  3-Jul-2019
                 6-Jun-2022 
 ******************************************
 %mem=8gb
 %nproc=4
 Will use up to    4 processors via shared memory.
 %chk=conf-121.chk
 ----------------------------------------------------------------------
 # B3LYP/6-31G* empiricaldispersion=gd3 guess=read geom=check nosymm in
 tegral(ultrafinegrid)
 ----------------------------------------------------------------------
 1/29=2,38=1,172=1/1;
 2/12=2,15=1,40=1/2;
 3/5=1,6=6,7=1,11=2,14=-4,25=1,30=1,74=-5,75=-5,116=-2,124=31/1,2,3;
 4/5=1/1;
 5/5=2,38=6/2;
 6/7=2,8=2,9=2,10=2,28=1/1;
 99/5=1,9=1/99;
 ------------------------------------------------------
 Candidate Structure: Conf:121 Charge calc in gas phase
 ------------------------------------------------------
 Structure from the checkpoint file:  "conf-121.chk"
 Charge =  1 Multiplicity = 1
 Redundant internal coordinates found in file.  (old form).
 N,0,-1.4978408198,1.1823567791,5.2465745907
 H,0,-2.2942928602,0.5873002956,5.0105932637
 H,0,-1.8890360449,1.9775580481,5.7499797481
 C,0,-0.8930229316,1.635461541,3.9945928622
 H,0,-0.2147926635,2.4670445977,4.2247957749
 C,0,-1.9209556446,2.072225258,2.9383789336
 C,0,-0.0819760219,0.4891628918,3.3429161362
 H,0,-0.725788215,-0.3992503208,3.2936453336
 H,0,0.1602699601,0.7482535662,2.3122149066
 O,0,-3.0387121804,1.5775339971,2.877813189
 C,0,1.2296930919,0.1166555308,4.0310417572
 N,0,1.1917140666,0.1072247225,5.3805852469
 H,0,2.0234052422,-0.1541338922,5.8917376869
 H,0,0.3214695818,0.3392791973,5.8584927263
 O,0,2.2301401854,-0.1675834453,3.3681600892
 N,0,-1.4629805923,2.985471978,2.0232637975
 H,0,-0.470680521,3.1849955202,2.0429092651
 C,0,-2.0968154794,3.0879982043,0.7188036461
 H,0,-3.1560844441,3.3141480443,0.8743653837
 C,0,-1.9775555669,1.7324850327,0.0006644724
 C,0,-1.4308844196,4.2232838528,-0.1077067506
 H,0,-0.3794068256,3.9272021246,-0.2540923323
 O,0,-1.0187709797,0.9731955682,0.2089442523
 C,0,-1.4326593024,5.5622664827,0.6682218757
 H,0,-0.921744974,6.3020390248,0.0386621364
 H,0,-0.8240238775,5.4652406682,1.5748181386
 C,0,-2.0596300429,4.3720952552,-1.5032117065
 H,0,-3.1441807162,4.5278469976,-1.4423015184
 H,0,-1.6381657728,5.2487258452,-2.0063532982
 H,0,-1.863805005,3.4987362641,-2.1300296188
 C,0,-2.8174857763,6.0913523898,1.0576575817
 H,0,-2.7263510944,7.0670723766,1.5456631349
 H,0,-3.4675133186,6.2215494586,0.1856047201
 H,0,-3.322062383,5.4217287713,1.7630873223
 N,0,-2.9364556226,1.4151411969,-0.8874685621
 H,0,-3.6834121477,2.0744360453,-1.0590259904
 C,0,-2.8097292852,0.2675096451,-1.7745009568
 H,0,-2.9057098237,-0.646404608,-1.1755025712
 C,0,-1.4159965729,0.2851534902,-2.4460803244
 C,0,-3.9039567234,0.315103828,-2.8461727312
 H,0,-3.8353139795,-0.5603890417,-3.4975374297
 H,0,-4.8972787952,0.3198836417,-2.3852927568
 H,0,-3.7896519044,1.2116322147,-3.4647737863
 O,0,-0.8504668361,1.3403107712,-2.7250181268
 N,0,-0.9248324176,-0.9453783532,-2.7286539476
 H,0,-1.4403397239,-1.7704977693,-2.4452243061
 C,0,0.3972105617,-1.2574609559,-3.2771707905
 H,0,1.0619058812,-1.5425251371,-2.4547748678
 C,0,1.0138758912,-0.0583272439,-3.9754899779
 C,0,0.2737041821,-2.4851352615,-4.1976305409
 H,0,-0.3889679997,-2.2190928428,-5.0321603622
 O,0,0.4379920856,0.1869267937,-5.151429532
 C,0,1.6288576866,-2.9507933174,-4.7212534921
 H,0,2.0824248841,-2.1932879304,-5.3688610747
 H,0,1.5109106918,-3.865415375,-5.3123495392
 H,0,2.3087902768,-3.1672415573,-3.890264267
 O,0,-0.3400794591,-3.4739800517,-3.3625970107
 H,0,-0.5604471609,-4.2446455575,-3.9079618347
 N,0,1.9924937844,0.5352920205,-3.3968755134
 H,0,1.751030105,0.5218224833,-1.5316624089
 C,0,2.6467982473,1.7117225012,-3.9636401914
 H,0,3.1595512929,1.4514422666,-4.9045998958
 C,0,3.6573874042,2.2108320327,-2.9200739837
 C,0,1.6936754309,2.903511861,-4.2521182272
 H,0,2.2528385724,3.8465168918,-4.2663499513
 H,0,0.9352065638,2.9473265607,-3.4697799104
 O,0,3.3100865901,2.4049380772,-1.7555175751
 O,0,0.985307635,2.7405976419,-5.491841327
 H,0,1.567325534,2.9921237883,-6.2265627003
 N,0,4.9113260562,2.4977197838,-3.3478615787
 H,0,5.1749018544,2.3159166812,-4.3059883399
 C,0,5.8937697893,3.0421867751,-2.4110738939
 H,0,6.789881195,3.3144137253,-2.9763879408
 H,0,5.4944984039,3.9352120823,-1.9268139791
 C,0,6.2670033761,2.0683205607,-1.2749618439
 O,0,6.3736640335,2.4538403221,-0.1226088264
 N,0,6.4572450035,0.7777512004,-1.6721653544
 H,0,6.5083737347,0.5499188983,-2.6563621216
 C,0,6.8148664764,-0.2847974167,-0.7520784615
 H,0,7.0932890097,0.1754887532,0.1992612279
 C,0,7.9992436387,-1.0460303991,-1.3321141642
 C,0,5.6371389408,-1.2700827319,-0.5464158833
 H,0,5.4182390096,-1.7285699989,-1.5219195161
 H,0,5.9581376153,-2.0782190221,0.1202302957
 O,0,8.3073783681,-1.0341292793,-2.5049017316
 C,0,4.3759891192,-0.5826504194,-0.0090324094
 H,0,4.4754832755,-0.3793809667,1.0643980822
 H,0,4.2765454183,0.3870446064,-0.5075964608
 C,0,3.1153427643,-1.4173980979,-0.2707873586
 H,0,3.1835149194,-2.382636659,0.2457242917
 H,0,3.046478643,-1.6384816658,-1.3455766934
 C,0,1.8302207793,-0.7419398051,0.1989991734
 H,0,0.9470661868,-1.3449195108,-0.0296719451
 H,0,1.8595594099,-0.5482637769,1.275594931
 N,0,1.617650226,0.5784037378,-0.4927050973
 H,0,2.2956093025,1.2876367478,-0.201879159
 H,0,0.6577108034,0.9235885267,-0.3006127919
 O,0,8.6189361128,-1.7869690256,-0.3960635537
 H,0,9.3328582699,-2.2827968384,-0.8413502496
 H,0,0.6133412319,1.1197441475,-5.4539576812
 Recover connectivity data from disk.
                           ----------------------------
                           !    Current Parameters    !
                           ! (Angstroms and Degrees)  !
 --------------------------                            --------------------------
 ! Name  Definition              Value                                          !
 --------------------------------------------------------------------------------
 ! R1    R(1,2)                  1.0218                                         !
 ! R2    R(1,3)                  1.0192                                         !
 ! R3    R(1,4)                  1.4624                                         !
 ! R4    R(4,5)                  1.0975                                         !
 ! R5    R(4,6)                  1.5372                                         !
 ! R6    R(4,7)                  1.5481                                         !
 ! R7    R(6,10)                 1.2238                                         !
 ! R8    R(6,16)                 1.3716                                         !
 ! R9    R(7,8)                  1.0983                                         !
 ! R10   R(7,9)                  1.09                                           !
 ! R11   R(7,11)                 1.5273                                         !
 ! R12   R(11,12)                1.3501                                         !
 ! R13   R(11,15)                1.2333                                         !
 ! R14   R(12,13)                1.0106                                         !
 ! R15   R(12,14)                1.0196                                         !
 ! R16   R(16,17)                1.0124                                         !
 ! R17   R(16,18)                1.4539                                         !
 ! R18   R(18,19)                1.0943                                         !
 ! R19   R(18,20)                1.5386                                         !
 ! R20   R(18,21)                1.5542                                         !
 ! R21   R(20,23)                1.2406                                         !
 ! R22   R(20,35)                1.345                                          !
 ! R23   R(21,22)                1.1021                                         !
 ! R24   R(21,24)                1.5476                                         !
 ! R25   R(21,27)                1.5378                                         !
 ! R26   R(24,25)                1.0976                                         !
 ! R27   R(24,26)                1.0963                                         !
 ! R28   R(24,31)                1.5328                                         !
 ! R29   R(27,28)                1.0974                                         !
 ! R30   R(27,29)                1.0951                                         !
 ! R31   R(27,30)                1.0927                                         !
 ! R32   R(31,32)                1.0948                                         !
 ! R33   R(31,33)                1.0954                                         !
 ! R34   R(31,34)                1.0957                                         !
 ! R35   R(35,36)                1.011                                          !
 ! R36   R(35,37)                1.456                                          !
 ! R37   R(37,38)                1.0969                                         !
 ! R38   R(37,39)                1.5472                                         !
 ! R39   R(37,40)                1.5323                                         !
 ! R40   R(39,44)                1.2292                                         !
 ! R41   R(39,45)                1.3547                                         !
 ! R42   R(40,41)                1.0934                                         !
 ! R43   R(40,42)                1.095                                          !
 ! R44   R(40,43)                1.0952                                         !
 ! R45   R(45,46)                1.0134                                         !
 ! R46   R(45,47)                1.4649                                         !
 ! R47   R(47,48)                1.0952                                         !
 ! R48   R(47,49)                1.5185                                         !
 ! R49   R(47,50)                1.5394                                         !
 ! R50   R(49,52)                1.3322                                         !
 ! R51   R(49,59)                1.2825                                         !
 ! R52   R(50,51)                1.0983                                         !
 ! R53   R(50,53)                1.5256                                         !
 ! R54   R(50,57)                1.4324                                         !
 ! R55   R(53,54)                1.095                                          !
 ! R56   R(53,55)                1.0954                                         !
 ! R57   R(53,56)                1.0953                                         !
 ! R58   R(57,58)                0.9695                                         !
 ! R59   R(59,60)                1.8808                                         !
 ! R60   R(59,61)                1.4606                                         !
 ! R61   R(61,62)                1.1028                                         !
 ! R62   R(61,63)                1.536                                          !
 ! R63   R(61,64)                1.5531                                         !
 ! R64   R(63,67)                1.2306                                         !
 ! R65   R(63,70)                1.3556                                         !
 ! R66   R(64,65)                1.0964                                         !
 ! R67   R(64,66)                1.0905                                         !
 ! R68   R(64,68)                1.4371                                         !
 ! R69   R(68,69)                0.9705                                         !
 ! R70   R(68,100)               1.6634                                         !
 ! R71   R(70,71)                1.0102                                         !
 ! R72   R(70,72)                1.4626                                         !
 ! R73   R(72,73)                1.0939                                         !
 ! R74   R(72,74)                1.0915                                         !
 ! R75   R(72,75)                1.5422                                         !
 ! R76   R(75,76)                1.2198                                         !
 ! R77   R(75,77)                1.3636                                         !
 ! R78   R(77,78)                1.0115                                         !
 ! R79   R(77,79)                1.4503                                         !
 ! R80   R(79,80)                1.0929                                         !
 ! R81   R(79,81)                1.5227                                         !
 ! R82   R(79,82)                1.5492                                         !
 ! R83   R(81,85)                1.2126                                         !
 ! R84   R(81,98)                1.3451                                         !
 ! R85   R(82,83)                1.0999                                         !
 ! R86   R(82,84)                1.0957                                         !
 ! R87   R(82,86)                1.5336                                         !
 ! R88   R(86,87)                1.097                                          !
 ! R89   R(86,88)                1.0949                                         !
 ! R90   R(86,89)                1.5345                                         !
 ! R91   R(89,90)                1.0969                                         !
 ! R92   R(89,91)                1.0995                                         !
 ! R93   R(89,92)                1.5259                                         !
 ! R94   R(92,93)                1.0935                                         !
 ! R95   R(92,94)                1.0943                                         !
 ! R96   R(92,95)                1.5056                                         !
 ! R97   R(95,96)                1.0233                                         !
 ! R98   R(95,97)                1.038                                          !
 ! R99   R(98,99)                0.9766                                         !
 ! A1    A(2,1,3)              105.6199                                         !
 ! A2    A(2,1,4)              107.7633                                         !
 ! A3    A(3,1,4)              109.868                                          !
 ! A4    A(1,4,5)              108.1061                                         !
 ! A5    A(1,4,6)              113.5602                                         !
 ! A6    A(1,4,7)              110.3437                                         !
 ! A7    A(5,4,6)              110.0034                                         !
 ! A8    A(5,4,7)              109.0015                                         !
 ! A9    A(6,4,7)              105.7528                                         !
 ! A10   A(4,6,10)             121.9985                                         !
 ! A11   A(4,6,16)             115.1087                                         !
 ! A12   A(10,6,16)            122.7578                                         !
 ! A13   A(4,7,8)              108.1045                                         !
 ! A14   A(4,7,9)              109.7844                                         !
 ! A15   A(4,7,11)             116.1594                                         !
 ! A16   A(8,7,9)              106.268                                          !
 ! A17   A(8,7,11)             109.0475                                         !
 ! A18   A(9,7,11)             107.0456                                         !
 ! A19   A(7,11,12)            115.3341                                         !
 ! A20   A(7,11,15)            120.7098                                         !
 ! A21   A(12,11,15)           123.9491                                         !
 ! A22   A(11,12,13)           118.9626                                         !
 ! A23   A(11,12,14)           119.4028                                         !
 ! A24   A(13,12,14)           121.615                                          !
 ! A25   A(6,16,17)            116.4602                                         !
 ! A26   A(6,16,18)            120.0003                                         !
 ! A27   A(17,16,18)           115.5201                                         !
 ! A28   A(16,18,19)           108.0012                                         !
 ! A29   A(16,18,20)           108.8351                                         !
 ! A30   A(16,18,21)           109.9896                                         !
 ! A31   A(19,18,20)           108.8723                                         !
 ! A32   A(19,18,21)           109.8412                                         !
 ! A33   A(20,18,21)           111.2303                                         !
 ! A34   A(18,20,23)           121.381                                          !
 ! A35   A(18,20,35)           117.4393                                         !
 ! A36   A(23,20,35)           121.1602                                         !
 ! A37   A(18,21,22)           106.4502                                         !
 ! A38   A(18,21,24)           111.401                                          !
 ! A39   A(18,21,27)           112.2152                                         !
 ! A40   A(22,21,24)           107.4651                                         !
 ! A41   A(22,21,27)           107.1893                                         !
 ! A42   A(24,21,27)           111.7645                                         !
 ! A43   A(21,24,25)           107.1601                                         !
 ! A44   A(21,24,26)           109.7205                                         !
 ! A45   A(21,24,31)           115.283                                          !
 ! A46   A(25,24,26)           105.9963                                         !
 ! A47   A(25,24,31)           109.4905                                         !
 ! A48   A(26,24,31)           108.7867                                         !
 ! A49   A(21,27,28)           111.5581                                         !
 ! A50   A(21,27,29)           109.6963                                         !
 ! A51   A(21,27,30)           111.7117                                         !
 ! A52   A(28,27,29)           106.9927                                         !
 ! A53   A(28,27,30)           108.8081                                         !
 ! A54   A(29,27,30)           107.8954                                         !
 ! A55   A(24,31,32)           110.2245                                         !
 ! A56   A(24,31,33)           112.0176                                         !
 ! A57   A(24,31,34)           111.6338                                         !
 ! A58   A(32,31,33)           107.3576                                         !
 ! A59   A(32,31,34)           107.2189                                         !
 ! A60   A(33,31,34)           108.1735                                         !
 ! A61   A(20,35,36)           119.0092                                         !
 ! A62   A(20,35,37)           121.7498                                         !
 ! A63   A(36,35,37)           118.3561                                         !
 ! A64   A(35,37,38)           108.4458                                         !
 ! A65   A(35,37,39)           109.503                                          !
 ! A66   A(35,37,40)           109.8426                                         !
 ! A67   A(38,37,39)           108.9867                                         !
 ! A68   A(38,37,40)           110.2                                            !
 ! A69   A(39,37,40)           109.8363                                         !
 ! A70   A(37,39,44)           121.5152                                         !
 ! A71   A(37,39,45)           114.0023                                         !
 ! A72   A(44,39,45)           124.4415                                         !
 ! A73   A(37,40,41)           110.3001                                         !
 ! A74   A(37,40,42)           110.704                                          !
 ! A75   A(37,40,43)           110.2377                                         !
 ! A76   A(41,40,42)           108.1301                                         !
 ! A77   A(41,40,43)           108.2054                                         !
 ! A78   A(42,40,43)           109.1972                                         !
 ! A79   A(39,45,46)           119.7896                                         !
 ! A80   A(39,45,47)           126.7833                                         !
 ! A81   A(46,45,47)           112.9763                                         !
 ! A82   A(45,47,48)           108.7844                                         !
 ! A83   A(45,47,49)           111.7432                                         !
 ! A84   A(45,47,50)           108.7463                                         !
 ! A85   A(48,47,49)           107.7222                                         !
 ! A86   A(48,47,50)           106.8651                                         !
 ! A87   A(49,47,50)           112.7919                                         !
 ! A88   A(47,49,52)           112.0722                                         !
 ! A89   A(47,49,59)           117.8983                                         !
 ! A90   A(52,49,59)           130.0081                                         !
 ! A91   A(47,50,51)           108.0323                                         !
 ! A92   A(47,50,53)           112.1718                                         !
 ! A93   A(47,50,57)           103.6715                                         !
 ! A94   A(51,50,53)           110.431                                          !
 ! A95   A(51,50,57)           110.5864                                         !
 ! A96   A(53,50,57)           111.7153                                         !
 ! A97   A(50,53,54)           111.0873                                         !
 ! A98   A(50,53,55)           110.147                                          !
 ! A99   A(50,53,56)           110.5689                                         !
 ! A100  A(54,53,55)           107.6437                                         !
 ! A101  A(54,53,56)           109.1649                                         !
 ! A102  A(55,53,56)           108.1343                                         !
 ! A103  A(50,57,58)           108.5558                                         !
 ! A104  A(49,59,60)           110.2509                                         !
 ! A105  A(49,59,61)           122.6537                                         !
 ! A106  A(60,59,61)           116.6216                                         !
 ! A107  A(59,61,62)           110.4441                                         !
 ! A108  A(59,61,63)           107.0267                                         !
 ! A109  A(59,61,64)           114.5343                                         !
 ! A110  A(62,61,63)           110.517                                          !
 ! A111  A(62,61,64)           107.9378                                         !
 ! A112  A(63,61,64)           106.2969                                         !
 ! A113  A(61,63,67)           120.5627                                         !
 ! A114  A(61,63,70)           117.5774                                         !
 ! A115  A(67,63,70)           121.755                                          !
 ! A116  A(61,64,65)           110.4527                                         !
 ! A117  A(61,64,66)           108.9299                                         !
 ! A118  A(61,64,68)           112.0706                                         !
 ! A119  A(65,64,66)           109.236                                          !
 ! A120  A(65,64,68)           109.7361                                         !
 ! A121  A(66,64,68)           106.2957                                         !
 ! A122  A(64,68,69)           109.1535                                         !
 ! A123  A(64,68,100)          101.5978                                         !
 ! A124  A(69,68,100)          113.8219                                         !
 ! A125  A(63,70,71)           120.1692                                         !
 ! A126  A(63,70,72)           119.8673                                         !
 ! A127  A(71,70,72)           119.9475                                         !
 ! A128  A(70,72,73)           108.173                                          !
 ! A129  A(70,72,74)           110.0606                                         !
 ! A130  A(70,72,75)           113.5358                                         !
 ! A131  A(73,72,74)           108.9847                                         !
 ! A132  A(73,72,75)           109.8515                                         !
 ! A133  A(74,72,75)           106.1606                                         !
 ! A134  A(72,75,76)           121.1661                                         !
 ! A135  A(72,75,77)           114.6335                                         !
 ! A136  A(76,75,77)           124.2004                                         !
 ! A137  A(75,77,78)           120.2407                                         !
 ! A138  A(75,77,79)           122.8865                                         !
 ! A139  A(78,77,79)           116.0901                                         !
 ! A140  A(77,79,80)           107.8479                                         !
 ! A141  A(77,79,81)           108.4445                                         !
 ! A142  A(77,79,82)           111.2663                                         !
 ! A143  A(80,79,81)           110.1194                                         !
 ! A144  A(80,79,82)           110.2404                                         !
 ! A145  A(81,79,82)           108.8999                                         !
 ! A146  A(79,81,85)           124.1343                                         !
 ! A147  A(79,81,98)           111.6318                                         !
 ! A148  A(85,81,98)           124.1511                                         !
 ! A149  A(79,82,83)           107.3776                                         !
 ! A150  A(79,82,84)           109.0947                                         !
 ! A151  A(79,82,86)           112.7427                                         !
 ! A152  A(83,82,84)           106.8865                                         !
 ! A153  A(83,82,86)           109.5103                                         !
 ! A154  A(84,82,86)           110.9981                                         !
 ! A155  A(82,86,87)           110.5699                                         !
 ! A156  A(82,86,88)           108.1877                                         !
 ! A157  A(82,86,89)           111.8385                                         !
 ! A158  A(87,86,88)           106.8398                                         !
 ! A159  A(87,86,89)           110.0125                                         !
 ! A160  A(88,86,89)           109.2388                                         !
 ! A161  A(86,89,90)           110.3242                                         !
 ! A162  A(86,89,91)           109.1237                                         !
 ! A163  A(86,89,92)           113.4897                                         !
 ! A164  A(90,89,91)           106.6948                                         !
 ! A165  A(90,89,92)           107.2716                                         !
 ! A166  A(91,89,92)           109.7077                                         !
 ! A167  A(89,92,93)           111.8205                                         !
 ! A168  A(89,92,94)           111.0179                                         !
 ! A169  A(89,92,95)           111.447                                          !
 ! A170  A(93,92,94)           108.9643                                         !
 ! A171  A(93,92,95)           105.8698                                         !
 ! A172  A(94,92,95)           107.4915                                         !
 ! A173  A(92,95,96)           112.5613                                         !
 ! A174  A(92,95,97)           109.7036                                         !
 ! A175  A(96,95,97)           109.2441                                         !
 ! A176  A(81,98,99)           107.4068                                         !
 ! D1    D(2,1,4,5)            165.5543                                         !
 ! D2    D(2,1,4,6)             43.1965                                         !
 ! D3    D(2,1,4,7)            -75.3298                                         !
 ! D4    D(3,1,4,5)             50.9472                                         !
 ! D5    D(3,1,4,6)            -71.4106                                         !
 ! D6    D(3,1,4,7)            170.063                                          !
 ! D7    D(1,4,6,10)           -30.1183                                         !
 ! D8    D(1,4,6,16)           153.9969                                         !
 ! D9    D(5,4,6,10)          -151.4203                                         !
 ! D10   D(5,4,6,16)            32.6948                                         !
 ! D11   D(7,4,6,10)            91.0178                                         !
 ! D12   D(7,4,6,16)           -84.8671                                         !
 ! D13   D(1,4,7,8)             50.8466                                         !
 ! D14   D(1,4,7,9)            166.3658                                         !
 ! D15   D(1,4,7,11)           -72.0496                                         !
 ! D16   D(5,4,7,8)            169.4167                                         !
 ! D17   D(5,4,7,9)            -75.0641                                         !
 ! D18   D(5,4,7,11)            46.5205                                         !
 ! D19   D(6,4,7,8)            -72.3511                                         !
 ! D20   D(6,4,7,9)             43.1681                                         !
 ! D21   D(6,4,7,11)           164.7527                                         !
 ! D22   D(4,6,16,17)            8.4405                                         !
 ! D23   D(4,6,16,18)          155.9041                                         !
 ! D24   D(10,6,16,17)        -167.4095                                         !
 ! D25   D(10,6,16,18)         -19.946                                          !
 ! D26   D(4,7,11,12)           40.2689                                         !
 ! D27   D(4,7,11,15)         -140.6504                                         !
 ! D28   D(8,7,11,12)          -82.1327                                         !
 ! D29   D(8,7,11,15)           96.9481                                         !
 ! D30   D(9,7,11,12)          163.2958                                         !
 ! D31   D(9,7,11,15)          -17.6235                                         !
 ! D32   D(7,11,12,13)         178.4973                                         !
 ! D33   D(7,11,12,14)           0.0806                                         !
 ! D34   D(15,11,12,13)         -0.5499                                         !
 ! D35   D(15,11,12,14)       -178.9667                                         !
 ! D36   D(6,16,18,19)          58.1202                                         !
 ! D37   D(6,16,18,20)         -59.9267                                         !
 ! D38   D(6,16,18,21)         177.9856                                         !
 ! D39   D(17,16,18,19)       -154.1255                                         !
 ! D40   D(17,16,18,20)         87.8277                                         !
 ! D41   D(17,16,18,21)        -34.2601                                         !
 ! D42   D(16,18,20,23)        -30.1342                                         !
 ! D43   D(16,18,20,35)        151.4525                                         !
 ! D44   D(19,18,20,23)       -147.6295                                         !
 ! D45   D(19,18,20,35)         33.9571                                         !
 ! D46   D(21,18,20,23)         91.1984                                         !
 ! D47   D(21,18,20,35)        -87.215                                          !
 ! D48   D(16,18,21,22)         62.7629                                         !
 ! D49   D(16,18,21,24)        -54.0983                                         !
 ! D50   D(16,18,21,27)        179.7274                                         !
 ! D51   D(19,18,21,22)       -178.4955                                         !
 ! D52   D(19,18,21,24)         64.6433                                         !
 ! D53   D(19,18,21,27)        -61.531                                          !
 ! D54   D(20,18,21,22)        -57.8924                                         !
 ! D55   D(20,18,21,24)       -174.7536                                         !
 ! D56   D(20,18,21,27)         59.0721                                         !
 ! D57   D(18,20,35,36)          0.8577                                         !
 ! D58   D(18,20,35,37)        169.9101                                         !
 ! D59   D(23,20,35,36)       -177.5594                                         !
 ! D60   D(23,20,35,37)         -8.507                                          !
 ! D61   D(18,21,24,25)        178.2506                                         !
 ! D62   D(18,21,24,26)         63.6009                                         !
 ! D63   D(18,21,24,31)        -59.606                                          !
 ! D64   D(22,21,24,25)         62.0088                                         !
 ! D65   D(22,21,24,26)        -52.6409                                         !
 ! D66   D(22,21,24,31)       -175.8478                                         !
 ! D67   D(27,21,24,25)        -55.3273                                         !
 ! D68   D(27,21,24,26)       -169.9771                                         !
 ! D69   D(27,21,24,31)         66.8161                                         !
 ! D70   D(18,21,27,28)         55.4549                                         !
 ! D71   D(18,21,27,29)        173.8267                                         !
 ! D72   D(18,21,27,30)        -66.58                                           !
 ! D73   D(22,21,27,28)        171.976                                          !
 ! D74   D(22,21,27,29)        -69.6522                                         !
 ! D75   D(22,21,27,30)         49.9411                                         !
 ! D76   D(24,21,27,28)        -70.522                                          !
 ! D77   D(24,21,27,29)         47.8498                                         !
 ! D78   D(24,21,27,30)        167.4431                                         !
 ! D79   D(21,24,31,32)       -176.5334                                         !
 ! D80   D(21,24,31,33)        -57.0658                                         !
 ! D81   D(21,24,31,34)         64.4215                                         !
 ! D82   D(25,24,31,32)        -55.649                                          !
 ! D83   D(25,24,31,33)         63.8186                                         !
 ! D84   D(25,24,31,34)       -174.6941                                         !
 ! D85   D(26,24,31,32)         59.7661                                         !
 ! D86   D(26,24,31,33)        179.2336                                         !
 ! D87   D(26,24,31,34)        -59.279                                          !
 ! D88   D(20,35,37,38)         70.5867                                         !
 ! D89   D(20,35,37,39)        -48.2281                                         !
 ! D90   D(20,35,37,40)       -168.9266                                         !
 ! D91   D(36,35,37,38)       -120.292                                          !
 ! D92   D(36,35,37,39)        120.8932                                         !
 ! D93   D(36,35,37,40)          0.1947                                         !
 ! D94   D(35,37,39,44)        -33.1475                                         !
 ! D95   D(35,37,39,45)        149.0843                                         !
 ! D96   D(38,37,39,44)       -151.6267                                         !
 ! D97   D(38,37,39,45)         30.605                                          !
 ! D98   D(40,37,39,44)         87.5549                                         !
 ! D99   D(40,37,39,45)        -90.2133                                         !
 ! D100  D(35,37,40,41)       -178.2077                                         !
 ! D101  D(35,37,40,42)        -58.571                                          !
 ! D102  D(35,37,40,43)         62.359                                          !
 ! D103  D(38,37,40,41)        -58.7885                                         !
 ! D104  D(38,37,40,42)         60.8482                                         !
 ! D105  D(38,37,40,43)       -178.2218                                         !
 ! D106  D(39,37,40,41)         61.2953                                         !
 ! D107  D(39,37,40,42)       -179.0681                                         !
 ! D108  D(39,37,40,43)        -58.1381                                         !
 ! D109  D(37,39,45,46)         -3.8391                                         !
 ! D110  D(37,39,45,47)       -175.5678                                         !
 ! D111  D(44,39,45,46)        178.4679                                         !
 ! D112  D(44,39,45,47)          6.7392                                         !
 ! D113  D(39,45,47,48)         98.1144                                         !
 ! D114  D(39,45,47,49)        -20.6889                                         !
 ! D115  D(39,45,47,50)       -145.8429                                         !
 ! D116  D(46,45,47,48)        -74.0917                                         !
 ! D117  D(46,45,47,49)        167.1049                                         !
 ! D118  D(46,45,47,50)         41.9509                                         !
 ! D119  D(45,47,49,52)        -73.9468                                         !
 ! D120  D(45,47,49,59)        107.5656                                         !
 ! D121  D(48,47,49,52)        166.6209                                         !
 ! D122  D(48,47,49,59)        -11.8667                                         !
 ! D123  D(50,47,49,52)         48.9333                                         !
 ! D124  D(50,47,49,59)       -129.5543                                         !
 ! D125  D(45,47,50,51)         62.8366                                         !
 ! D126  D(45,47,50,53)       -175.2194                                         !
 ! D127  D(45,47,50,57)        -54.5345                                         !
 ! D128  D(48,47,50,51)       -179.8913                                         !
 ! D129  D(48,47,50,53)        -57.9474                                         !
 ! D130  D(48,47,50,57)         62.7375                                         !
 ! D131  D(49,47,50,51)        -61.7005                                         !
 ! D132  D(49,47,50,53)         60.2434                                         !
 ! D133  D(49,47,50,57)       -179.0717                                         !
 ! D134  D(47,49,59,60)        -35.4069                                         !
 ! D135  D(47,49,59,61)       -178.8931                                         !
 ! D136  D(52,49,59,60)        146.423                                          !
 ! D137  D(52,49,59,61)          2.9368                                         !
 ! D138  D(47,50,53,54)        -64.8585                                         !
 ! D139  D(47,50,53,55)        175.9654                                         !
 ! D140  D(47,50,53,56)         56.508                                          !
 ! D141  D(51,50,53,54)         55.7066                                         !
 ! D142  D(51,50,53,55)        -63.4695                                         !
 ! D143  D(51,50,53,56)        177.073                                          !
 ! D144  D(57,50,53,54)        179.2276                                         !
 ! D145  D(57,50,53,55)         60.0514                                         !
 ! D146  D(57,50,53,56)        -59.406                                          !
 ! D147  D(47,50,57,58)        172.5317                                         !
 ! D148  D(51,50,57,58)         56.9578                                         !
 ! D149  D(53,50,57,58)        -66.4753                                         !
 ! D150  D(49,59,61,62)        -65.4427                                         !
 ! D151  D(49,59,61,63)        174.2028                                         !
 ! D152  D(49,59,61,64)         56.6615                                         !
 ! D153  D(60,59,61,62)        153.1981                                         !
 ! D154  D(60,59,61,63)         32.8435                                         !
 ! D155  D(60,59,61,64)        -84.6978                                         !
 ! D156  D(59,61,63,67)        -51.2384                                         !
 ! D157  D(59,61,63,70)        132.4213                                         !
 ! D158  D(62,61,63,67)       -171.5464                                         !
 ! D159  D(62,61,63,70)         12.1132                                         !
 ! D160  D(64,61,63,67)         71.5804                                         !
 ! D161  D(64,61,63,70)       -104.7599                                         !
 ! D162  D(59,61,64,65)        156.4128                                         !
 ! D163  D(59,61,64,66)         36.4369                                         !
 ! D164  D(59,61,64,68)        -80.8954                                         !
 ! D165  D(62,61,64,65)        -80.1283                                         !
 ! D166  D(62,61,64,66)        159.8958                                         !
 ! D167  D(62,61,64,68)         42.5635                                         !
 ! D168  D(63,61,64,65)         38.4563                                         !
 ! D169  D(63,61,64,66)        -81.5195                                         !
 ! D170  D(63,61,64,68)        161.1481                                         !
 ! D171  D(61,63,70,71)         -4.6195                                         !
 ! D172  D(61,63,70,72)        176.8345                                         !
 ! D173  D(67,63,70,71)        179.0866                                         !
 ! D174  D(67,63,70,72)          0.5406                                         !
 ! D175  D(61,64,68,69)        -80.0127                                         !
 ! D176  D(61,64,68,100)        40.5019                                         !
 ! D177  D(65,64,68,69)         43.0844                                         !
 ! D178  D(65,64,68,100)       163.599                                          !
 ! D179  D(66,64,68,69)        161.0896                                         !
 ! D180  D(66,64,68,100)       -78.3959                                         !
 ! D181  D(63,70,72,73)       -173.2109                                         !
 ! D182  D(63,70,72,74)        -54.2391                                         !
 ! D183  D(63,70,72,75)         64.593                                          !
 ! D184  D(71,70,72,73)          8.2399                                         !
 ! D185  D(71,70,72,74)        127.2116                                         !
 ! D186  D(71,70,72,75)       -113.9562                                         !
 ! D187  D(70,72,75,76)       -137.1145                                         !
 ! D188  D(70,72,75,77)         42.7865                                         !
 ! D189  D(73,72,75,76)        101.6249                                         !
 ! D190  D(73,72,75,77)        -78.4741                                         !
 ! D191  D(74,72,75,76)        -16.0671                                         !
 ! D192  D(74,72,75,77)        163.8339                                         !
 ! D193  D(72,75,77,78)         10.466                                          !
 ! D194  D(72,75,77,79)        179.9314                                         !
 ! D195  D(76,75,77,78)       -169.6365                                         !
 ! D196  D(76,75,77,79)         -0.171                                          !
 ! D197  D(75,77,79,80)        -11.5961                                         !
 ! D198  D(75,77,79,81)       -130.8267                                         !
 ! D199  D(75,77,79,82)        109.4233                                         !
 ! D200  D(78,77,79,80)        158.2746                                         !
 ! D201  D(78,77,79,81)         39.044                                          !
 ! D202  D(78,77,79,82)        -80.706                                          !
 ! D203  D(77,79,81,85)        -20.4721                                         !
 ! D204  D(77,79,81,98)        162.722                                          !
 ! D205  D(80,79,81,85)       -138.2641                                         !
 ! D206  D(80,79,81,98)         44.93                                           !
 ! D207  D(82,79,81,85)        100.7477                                         !
 ! D208  D(82,79,81,98)        -76.0582                                         !
 ! D209  D(77,79,82,83)         62.2091                                         !
 ! D210  D(77,79,82,84)        177.7038                                         !
 ! D211  D(77,79,82,86)        -58.4971                                         !
 ! D212  D(80,79,82,83)       -178.1842                                         !
 ! D213  D(80,79,82,84)        -62.6895                                         !
 ! D214  D(80,79,82,86)         61.1096                                         !
 ! D215  D(81,79,82,83)        -57.2701                                         !
 ! D216  D(81,79,82,84)         58.2246                                         !
 ! D217  D(81,79,82,86)       -177.9763                                         !
 ! D218  D(79,81,98,99)        176.9924                                         !
 ! D219  D(85,81,98,99)          0.1872                                         !
 ! D220  D(79,82,86,87)        -77.103                                          !
 ! D221  D(79,82,86,88)         39.576                                          !
 ! D222  D(79,82,86,89)        159.9282                                         !
 ! D223  D(83,82,86,87)        163.4183                                         !
 ! D224  D(83,82,86,88)        -79.9027                                         !
 ! D225  D(83,82,86,89)         40.4495                                         !
 ! D226  D(84,82,86,87)         45.6375                                         !
 ! D227  D(84,82,86,88)        162.3165                                         !
 ! D228  D(84,82,86,89)        -77.3313                                         !
 ! D229  D(82,86,89,90)         61.9165                                         !
 ! D230  D(82,86,89,91)        -54.9986                                         !
 ! D231  D(82,86,89,92)       -177.673                                          !
 ! D232  D(87,86,89,90)        -61.3681                                         !
 ! D233  D(87,86,89,91)       -178.2832                                         !
 ! D234  D(87,86,89,92)         59.0424                                         !
 ! D235  D(88,86,89,90)       -178.3469                                         !
 ! D236  D(88,86,89,91)         64.738                                          !
 ! D237  D(88,86,89,92)        -57.9364                                         !
 ! D238  D(86,89,92,93)        178.1529                                         !
 ! D239  D(86,89,92,94)        -59.9196                                         !
 ! D240  D(86,89,92,95)         59.8743                                         !
 ! D241  D(90,89,92,93)        -59.7251                                         !
 ! D242  D(90,89,92,94)         62.2024                                         !
 ! D243  D(90,89,92,95)       -178.0037                                         !
 ! D244  D(91,89,92,93)         55.8015                                         !
 ! D245  D(91,89,92,94)        177.729                                          !
 ! D246  D(91,89,92,95)        -62.4772                                         !
 ! D247  D(89,92,95,96)        -69.2904                                         !
 ! D248  D(89,92,95,97)        168.8463                                         !
 ! D249  D(93,92,95,96)        168.9162                                         !
 ! D250  D(93,92,95,97)         47.0529                                         !
 ! D251  D(94,92,95,96)         52.5681                                         !
 ! D252  D(94,92,95,97)        -69.2952                                         !
 --------------------------------------------------------------------------------
 Symmetry turned off by external request.
 Stoichiometry    C28H52N9O11(1+)
 Framework group  C1[X(C28H52N9O11)]
 Deg. of freedom   294
 Full point group                 C1      NOp   1
                          Input orientation:                          
 ---------------------------------------------------------------------
 Center     Atomic      Atomic             Coordinates (Angstroms)
 Number     Number       Type             X           Y           Z
 ---------------------------------------------------------------------
      1          7           0       -1.497841    1.182357    5.246575
      2          1           0       -2.294293    0.587300    5.010593
      3          1           0       -1.889036    1.977558    5.749980
      4          6           0       -0.893023    1.635462    3.994593
      5          1           0       -0.214793    2.467045    4.224796
      6          6           0       -1.920956    2.072225    2.938379
      7          6           0       -0.081976    0.489163    3.342916
      8          1           0       -0.725788   -0.399250    3.293645
      9          1           0        0.160270    0.748254    2.312215
     10          8           0       -3.038712    1.577534    2.877813
     11          6           0        1.229693    0.116656    4.031042
     12          7           0        1.191714    0.107225    5.380585
     13          1           0        2.023405   -0.154134    5.891738
     14          1           0        0.321470    0.339279    5.858493
     15          8           0        2.230140   -0.167583    3.368160
     16          7           0       -1.462981    2.985472    2.023264
     17          1           0       -0.470681    3.184996    2.042909
     18          6           0       -2.096815    3.087998    0.718804
     19          1           0       -3.156084    3.314148    0.874365
     20          6           0       -1.977556    1.732485    0.000664
     21          6           0       -1.430884    4.223284   -0.107707
     22          1           0       -0.379407    3.927202   -0.254092
     23          8           0       -1.018771    0.973196    0.208944
     24          6           0       -1.432659    5.562266    0.668222
     25          1           0       -0.921745    6.302039    0.038662
     26          1           0       -0.824024    5.465241    1.574818
     27          6           0       -2.059630    4.372095   -1.503212
     28          1           0       -3.144181    4.527847   -1.442302
     29          1           0       -1.638166    5.248726   -2.006353
     30          1           0       -1.863805    3.498736   -2.130030
     31          6           0       -2.817486    6.091352    1.057658
     32          1           0       -2.726351    7.067072    1.545663
     33          1           0       -3.467513    6.221549    0.185605
     34          1           0       -3.322062    5.421729    1.763087
     35          7           0       -2.936456    1.415141   -0.887469
     36          1           0       -3.683412    2.074436   -1.059026
     37          6           0       -2.809729    0.267510   -1.774501
     38          1           0       -2.905710   -0.646405   -1.175503
     39          6           0       -1.415997    0.285153   -2.446080
     40          6           0       -3.903957    0.315104   -2.846173
     41          1           0       -3.835314   -0.560389   -3.497537
     42          1           0       -4.897279    0.319884   -2.385293
     43          1           0       -3.789652    1.211632   -3.464774
     44          8           0       -0.850467    1.340311   -2.725018
     45          7           0       -0.924832   -0.945378   -2.728654
     46          1           0       -1.440340   -1.770498   -2.445224
     47          6           0        0.397211   -1.257461   -3.277171
     48          1           0        1.061906   -1.542525   -2.454775
     49          6           0        1.013876   -0.058327   -3.975490
     50          6           0        0.273704   -2.485135   -4.197631
     51          1           0       -0.388968   -2.219093   -5.032160
     52          8           0        0.437992    0.186927   -5.151430
     53          6           0        1.628858   -2.950793   -4.721253
     54          1           0        2.082425   -2.193288   -5.368861
     55          1           0        1.510911   -3.865415   -5.312350
     56          1           0        2.308790   -3.167242   -3.890264
     57          8           0       -0.340079   -3.473980   -3.362597
     58          1           0       -0.560447   -4.244646   -3.907962
     59          7           0        1.992494    0.535292   -3.396876
     60          1           0        1.751030    0.521822   -1.531662
     61          6           0        2.646798    1.711723   -3.963640
     62          1           0        3.159551    1.451442   -4.904600
     63          6           0        3.657387    2.210832   -2.920074
     64          6           0        1.693675    2.903512   -4.252118
     65          1           0        2.252839    3.846517   -4.266350
     66          1           0        0.935207    2.947327   -3.469780
     67          8           0        3.310087    2.404938   -1.755518
     68          8           0        0.985308    2.740598   -5.491841
     69          1           0        1.567326    2.992124   -6.226563
     70          7           0        4.911326    2.497720   -3.347862
     71          1           0        5.174902    2.315917   -4.305988
     72          6           0        5.893770    3.042187   -2.411074
     73          1           0        6.789881    3.314414   -2.976388
     74          1           0        5.494498    3.935212   -1.926814
     75          6           0        6.267003    2.068321   -1.274962
     76          8           0        6.373664    2.453840   -0.122609
     77          7           0        6.457245    0.777751   -1.672165
     78          1           0        6.508374    0.549919   -2.656362
     79          6           0        6.814866   -0.284797   -0.752078
     80          1           0        7.093289    0.175489    0.199261
     81          6           0        7.999244   -1.046030   -1.332114
     82          6           0        5.637139   -1.270083   -0.546416
     83          1           0        5.418239   -1.728570   -1.521920
     84          1           0        5.958138   -2.078219    0.120230
     85          8           0        8.307378   -1.034129   -2.504902
     86          6           0        4.375989   -0.582650   -0.009032
     87          1           0        4.475483   -0.379381    1.064398
     88          1           0        4.276545    0.387045   -0.507596
     89          6           0        3.115343   -1.417398   -0.270787
     90          1           0        3.183515   -2.382637    0.245724
     91          1           0        3.046479   -1.638482   -1.345577
     92          6           0        1.830221   -0.741940    0.198999
     93          1           0        0.947066   -1.344920   -0.029672
     94          1           0        1.859559   -0.548264    1.275595
     95          7           0        1.617650    0.578404   -0.492705
     96          1           0        2.295609    1.287637   -0.201879
     97          1           0        0.657711    0.923589   -0.300613
     98          8           0        8.618936   -1.786969   -0.396064
     99          1           0        9.332858   -2.282797   -0.841350
    100          1           0        0.613341    1.119744   -5.453958
 ---------------------------------------------------------------------
 Rotational constants (GHZ):           0.0685766           0.0446661           0.0371056
 Standard basis: 6-31G(d) (6D, 7F)
   824 basis functions,  1552 primitive gaussians,   824 cartesian basis functions
   185 alpha electrons      185 beta electrons
       nuclear repulsion energy      7168.3196102355 Hartrees.
 NAtoms=  100 NActive=  100 NUniq=  100 SFac= 1.00D+00 NAtFMM=   60 NAOKFM=T Big=T
 Integral buffers will be    131072 words long.
 Raffenetti 2 integral format.
 Two-electron integral symmetry is turned off.
 Nuclear repulsion after empirical dispersion term =     7168.1698232691 Hartrees.
 One-electron integrals computed using PRISM.
 NBasis=   824 RedAO= T EigKep=  1.47D-03  NBF=   824
 NBsUse=   824 1.00D-06 EigRej= -1.00D+00 NBFU=   824
 Initial guess from the checkpoint file:  "conf-121.chk"
 B after Tr=     0.000000    0.000000    0.000000
         Rot=    1.000000    0.000000    0.000000    0.000000 Ang=   0.00 deg.
 Requested convergence on RMS density matrix=1.00D-08 within 128 cycles.
 Requested convergence on MAX density matrix=1.00D-06.
 Requested convergence on             energy=1.00D-06.
 No special actions if energy rises.
 SCF Done:  E(RB3LYP) =  -2418.59960149     A.U. after    1 cycles
            NFock=  1  Conv=0.85D-08     -V/T= 2.0092

 **********************************************************************

            Population analysis using the SCF Density.

 **********************************************************************

 Alpha  occ. eigenvalues --  -19.28661 -19.27789 -19.27706 -19.24974 -19.22840
 Alpha  occ. eigenvalues --  -19.22748 -19.22150 -19.21855 -19.20276 -19.19200
 Alpha  occ. eigenvalues --  -19.18112 -14.50356 -14.47888 -14.46879 -14.46544
 Alpha  occ. eigenvalues --  -14.44631 -14.44024 -14.42861 -14.41486 -14.40641
 Alpha  occ. eigenvalues --  -10.40094 -10.39911 -10.39813 -10.39284 -10.39244
 Alpha  occ. eigenvalues --  -10.36936 -10.36751 -10.35773 -10.35176 -10.34419
 Alpha  occ. eigenvalues --  -10.34200 -10.34038 -10.33954 -10.32586 -10.32344
 Alpha  occ. eigenvalues --  -10.31760 -10.31669 -10.31306 -10.28925 -10.28648
 Alpha  occ. eigenvalues --  -10.27864 -10.27354 -10.27240 -10.27114 -10.26423
 Alpha  occ. eigenvalues --  -10.26314 -10.25782 -10.24719  -1.18653  -1.17938
 Alpha  occ. eigenvalues --   -1.15114  -1.14969  -1.14748  -1.13404  -1.12298
 Alpha  occ. eigenvalues --   -1.11995  -1.11339  -1.09755  -1.09551  -1.06103
 Alpha  occ. eigenvalues --   -1.03480  -1.03247  -1.03028  -1.01506  -1.01461
 Alpha  occ. eigenvalues --   -1.00598  -0.98179  -0.96104  -0.90417  -0.89701
 Alpha  occ. eigenvalues --   -0.89182  -0.87583  -0.86562  -0.85488  -0.84299
 Alpha  occ. eigenvalues --   -0.82161  -0.81689  -0.80953  -0.79266  -0.79111
 Alpha  occ. eigenvalues --   -0.76952  -0.75352  -0.73673  -0.73100  -0.72715
 Alpha  occ. eigenvalues --   -0.72427  -0.70665  -0.70109  -0.69482  -0.69178
 Alpha  occ. eigenvalues --   -0.68053  -0.67597  -0.66720  -0.66575  -0.65378
 Alpha  occ. eigenvalues --   -0.65220  -0.64640  -0.64357  -0.64169  -0.63267
 Alpha  occ. eigenvalues --   -0.62669  -0.62088  -0.61869  -0.61283  -0.60871
 Alpha  occ. eigenvalues --   -0.60048  -0.59658  -0.59070  -0.58567  -0.58328
 Alpha  occ. eigenvalues --   -0.57762  -0.57200  -0.56810  -0.56475  -0.55932
 Alpha  occ. eigenvalues --   -0.55253  -0.55035  -0.54713  -0.54558  -0.54085
 Alpha  occ. eigenvalues --   -0.53859  -0.53495  -0.53383  -0.53221  -0.52828
 Alpha  occ. eigenvalues --   -0.52705  -0.52436  -0.52268  -0.51695  -0.51572
 Alpha  occ. eigenvalues --   -0.50887  -0.50758  -0.50507  -0.50013  -0.49517
 Alpha  occ. eigenvalues --   -0.49388  -0.49321  -0.49176  -0.48739  -0.48528
 Alpha  occ. eigenvalues --   -0.48347  -0.48173  -0.48102  -0.47696  -0.47450
 Alpha  occ. eigenvalues --   -0.47117  -0.46980  -0.46816  -0.46582  -0.46503
 Alpha  occ. eigenvalues --   -0.46104  -0.46002  -0.45742  -0.45471  -0.44851
 Alpha  occ. eigenvalues --   -0.44507  -0.44336  -0.43827  -0.43184  -0.42559
 Alpha  occ. eigenvalues --   -0.42419  -0.42207  -0.41884  -0.41549  -0.41007
 Alpha  occ. eigenvalues --   -0.40940  -0.40613  -0.39723  -0.38205  -0.37815
 Alpha  occ. eigenvalues --   -0.37739  -0.37426  -0.37148  -0.36809  -0.35961
 Alpha  occ. eigenvalues --   -0.35791  -0.35617  -0.35456  -0.34666  -0.34474
 Alpha  occ. eigenvalues --   -0.33512  -0.33172  -0.32920  -0.32578  -0.31564
 Alpha virt. eigenvalues --   -0.10315  -0.09138  -0.08836  -0.07707  -0.07068
 Alpha virt. eigenvalues --   -0.06509  -0.06053  -0.04705  -0.03809  -0.03184
 Alpha virt. eigenvalues --   -0.03088  -0.02491  -0.01972  -0.01622   0.00030
 Alpha virt. eigenvalues --    0.00278   0.00642   0.01025   0.01645   0.01869
 Alpha virt. eigenvalues --    0.02655   0.02965   0.03335   0.03581   0.03778
 Alpha virt. eigenvalues --    0.03936   0.04132   0.04569   0.04627   0.04854
 Alpha virt. eigenvalues --    0.05077   0.05457   0.05681   0.06106   0.06235
 Alpha virt. eigenvalues --    0.06560   0.06718   0.06777   0.07022   0.07322
 Alpha virt. eigenvalues --    0.07434   0.07540   0.07976   0.08331   0.08579
 Alpha virt. eigenvalues --    0.08774   0.08973   0.09149   0.09390   0.09768
 Alpha virt. eigenvalues --    0.10074   0.10274   0.10522   0.10559   0.10756
 Alpha virt. eigenvalues --    0.11055   0.11132   0.11480   0.11734   0.11849
 Alpha virt. eigenvalues --    0.12197   0.12459   0.12590   0.12726   0.12950
 Alpha virt. eigenvalues --    0.13507   0.13778   0.13901   0.14260   0.14681
 Alpha virt. eigenvalues --    0.14883   0.15029   0.15425   0.15482   0.15902
 Alpha virt. eigenvalues --    0.16029   0.16478   0.17114   0.17349   0.17828
 Alpha virt. eigenvalues --    0.18216   0.18442   0.18745   0.19120   0.19345
 Alpha virt. eigenvalues --    0.20080   0.20266   0.20528   0.21108   0.21481
 Alpha virt. eigenvalues --    0.23090   0.23699   0.25236   0.26024   0.26892
 Alpha virt. eigenvalues --    0.27260   0.27616   0.28923   0.29891   0.30458
 Alpha virt. eigenvalues --    0.30862   0.31307   0.31879   0.32852   0.33690
 Alpha virt. eigenvalues --    0.33773   0.37491   0.38933   0.40399   0.40539
 Alpha virt. eigenvalues --    0.40969   0.41586   0.41983   0.42190   0.42519
 Alpha virt. eigenvalues --    0.42715   0.43184   0.43333   0.43675   0.43930
 Alpha virt. eigenvalues --    0.44399   0.44775   0.44811   0.45274   0.45858
 Alpha virt. eigenvalues --    0.45894   0.45990   0.46658   0.47030   0.47126
 Alpha virt. eigenvalues --    0.47694   0.47863   0.48071   0.48278   0.48522
 Alpha virt. eigenvalues --    0.49080   0.49606   0.50023   0.50155   0.50392
 Alpha virt. eigenvalues --    0.50993   0.51637   0.51942   0.52707   0.52881
 Alpha virt. eigenvalues --    0.53176   0.53610   0.54023   0.54444   0.55108
 Alpha virt. eigenvalues --    0.55320   0.55723   0.55800   0.56488   0.56686
 Alpha virt. eigenvalues --    0.56919   0.57146   0.57200   0.58141   0.58597
 Alpha virt. eigenvalues --    0.59201   0.59279   0.59635   0.59761   0.59811
 Alpha virt. eigenvalues --    0.60495   0.60848   0.61146   0.61192   0.61427
 Alpha virt. eigenvalues --    0.61883   0.62390   0.63707   0.64116   0.64491
 Alpha virt. eigenvalues --    0.65232   0.65714   0.66306   0.66640   0.66860
 Alpha virt. eigenvalues --    0.67373   0.67842   0.68206   0.68328   0.68545
 Alpha virt. eigenvalues --    0.69064   0.69435   0.69919   0.70141   0.70605
 Alpha virt. eigenvalues --    0.70840   0.71236   0.71747   0.72146   0.72384
 Alpha virt. eigenvalues --    0.72790   0.72965   0.73336   0.74007   0.74400
 Alpha virt. eigenvalues --    0.74579   0.74733   0.74971   0.75608   0.75764
 Alpha virt. eigenvalues --    0.75934   0.76582   0.76629   0.76921   0.77302
 Alpha virt. eigenvalues --    0.77368   0.77809   0.77948   0.78442   0.78633
 Alpha virt. eigenvalues --    0.78923   0.79077   0.79351   0.79846   0.80058
 Alpha virt. eigenvalues --    0.80161   0.80691   0.80838   0.81108   0.81439
 Alpha virt. eigenvalues --    0.81529   0.82098   0.82270   0.82512   0.82571
 Alpha virt. eigenvalues --    0.82852   0.83181   0.83297   0.83646   0.84093
 Alpha virt. eigenvalues --    0.84444   0.84490   0.84838   0.85108   0.85382
 Alpha virt. eigenvalues --    0.85651   0.85710   0.86224   0.86752   0.86841
 Alpha virt. eigenvalues --    0.87560   0.87983   0.88143   0.88752   0.88973
 Alpha virt. eigenvalues --    0.89288   0.89743   0.90045   0.90275   0.90653
 Alpha virt. eigenvalues --    0.91104   0.91390   0.91477   0.91903   0.92721
 Alpha virt. eigenvalues --    0.93196   0.93708   0.94267   0.94854   0.94914
 Alpha virt. eigenvalues --    0.95351   0.95724   0.96387   0.96625   0.97201
 Alpha virt. eigenvalues --    0.97451   0.98062   0.98550   0.99004   0.99421
 Alpha virt. eigenvalues --    0.99995   1.00416   1.00821   1.01689   1.02291
 Alpha virt. eigenvalues --    1.02630   1.03555   1.03910   1.04243   1.05015
 Alpha virt. eigenvalues --    1.05393   1.05952   1.06564   1.07265   1.08050
 Alpha virt. eigenvalues --    1.08978   1.09253   1.10368   1.11468   1.11982
 Alpha virt. eigenvalues --    1.12309   1.12835   1.13162   1.13678   1.14727
 Alpha virt. eigenvalues --    1.15075   1.15961   1.16748   1.17130   1.17602
 Alpha virt. eigenvalues --    1.19511   1.20353   1.20938   1.21613   1.22080
 Alpha virt. eigenvalues --    1.22790   1.23726   1.24435   1.24994   1.25600
 Alpha virt. eigenvalues --    1.26483   1.27574   1.27942   1.28701   1.29442
 Alpha virt. eigenvalues --    1.29912   1.30434   1.30688   1.31263   1.32051
 Alpha virt. eigenvalues --    1.32537   1.33285   1.33434   1.34355   1.35050
 Alpha virt. eigenvalues --    1.35333   1.35934   1.36211   1.37066   1.38185
 Alpha virt. eigenvalues --    1.38400   1.39041   1.39295   1.40037   1.40702
 Alpha virt. eigenvalues --    1.42519   1.43234   1.43476   1.44247   1.44943
 Alpha virt. eigenvalues --    1.45592   1.46127   1.47451   1.47772   1.48703
 Alpha virt. eigenvalues --    1.49312   1.50564   1.51089   1.51194   1.51789
 Alpha virt. eigenvalues --    1.52503   1.52751   1.53809   1.54187   1.55075
 Alpha virt. eigenvalues --    1.55342   1.56110   1.57122   1.57234   1.57894
 Alpha virt. eigenvalues --    1.58156   1.59241   1.59617   1.59980   1.60528
 Alpha virt. eigenvalues --    1.60839   1.61132   1.61554   1.62267   1.62750
 Alpha virt. eigenvalues --    1.62851   1.63644   1.64152   1.64549   1.65626
 Alpha virt. eigenvalues --    1.66019   1.66997   1.67378   1.67664   1.68058
 Alpha virt. eigenvalues --    1.69550   1.69747   1.70506   1.71071   1.71605
 Alpha virt. eigenvalues --    1.71756   1.72506   1.72726   1.72856   1.73434
 Alpha virt. eigenvalues --    1.73809   1.74323   1.74460   1.74699   1.75031
 Alpha virt. eigenvalues --    1.75704   1.76595   1.76659   1.77061   1.77684
 Alpha virt. eigenvalues --    1.78073   1.78843   1.79215   1.79460   1.79689
 Alpha virt. eigenvalues --    1.79806   1.80575   1.80796   1.81474   1.82240
 Alpha virt. eigenvalues --    1.82630   1.83072   1.83543   1.83777   1.84074
 Alpha virt. eigenvalues --    1.84368   1.84851   1.85577   1.86128   1.86795
 Alpha virt. eigenvalues --    1.87043   1.87358   1.87898   1.88013   1.88472
 Alpha virt. eigenvalues --    1.88668   1.89196   1.89767   1.90175   1.90500
 Alpha virt. eigenvalues --    1.90556   1.91420   1.91524   1.91766   1.92027
 Alpha virt. eigenvalues --    1.93309   1.93704   1.93926   1.94389   1.95083
 Alpha virt. eigenvalues --    1.95864   1.96076   1.96453   1.96828   1.97798
 Alpha virt. eigenvalues --    1.98018   1.98634   1.99328   1.99542   2.00334
 Alpha virt. eigenvalues --    2.00596   2.01261   2.01372   2.01742   2.02404
 Alpha virt. eigenvalues --    2.02917   2.03320   2.03896   2.04389   2.04611
 Alpha virt. eigenvalues --    2.04935   2.06208   2.06539   2.07501   2.07956
 Alpha virt. eigenvalues --    2.08906   2.09278   2.09886   2.10479   2.10761
 Alpha virt. eigenvalues --    2.12981   2.13327   2.14439   2.14742   2.15186
 Alpha virt. eigenvalues --    2.15783   2.16323   2.16660   2.18431   2.18758
 Alpha virt. eigenvalues --    2.20108   2.21205   2.21489   2.22056   2.22721
 Alpha virt. eigenvalues --    2.23491   2.23956   2.23997   2.24490   2.25269
 Alpha virt. eigenvalues --    2.25447   2.25990   2.26620   2.27494   2.27805
 Alpha virt. eigenvalues --    2.29180   2.29219   2.29896   2.30193   2.30910
 Alpha virt. eigenvalues --    2.31480   2.32599   2.33027   2.33651   2.34240
 Alpha virt. eigenvalues --    2.34686   2.35355   2.36050   2.36428   2.36692
 Alpha virt. eigenvalues --    2.37105   2.37666   2.39049   2.39142   2.39364
 Alpha virt. eigenvalues --    2.39994   2.40566   2.41695   2.42879   2.44000
 Alpha virt. eigenvalues --    2.44669   2.45479   2.45911   2.46804   2.47287
 Alpha virt. eigenvalues --    2.47695   2.49307   2.50106   2.51310   2.51398
 Alpha virt. eigenvalues --    2.52091   2.52481   2.52608   2.54138   2.54938
 Alpha virt. eigenvalues --    2.55679   2.55731   2.56105   2.56466   2.56829
 Alpha virt. eigenvalues --    2.57081   2.59057   2.59208   2.59745   2.61189
 Alpha virt. eigenvalues --    2.62124   2.62289   2.63506   2.64580   2.65454
 Alpha virt. eigenvalues --    2.67251   2.68716   2.69532   2.71691   2.73114
 Alpha virt. eigenvalues --    2.73740   2.74466   2.75595   2.76069   2.76427
 Alpha virt. eigenvalues --    2.77161   2.78192   2.79244   2.79694   2.80436
 Alpha virt. eigenvalues --    2.84034   2.85239   2.85627   2.86024   2.88059
 Alpha virt. eigenvalues --    2.90614   2.91840   2.93019   2.93820   2.94803
 Alpha virt. eigenvalues --    2.95424   2.97240   2.99422   3.00701   3.02558
 Alpha virt. eigenvalues --    3.07149   3.07422   3.09329   3.09617   3.11633
 Alpha virt. eigenvalues --    3.13861   3.70497   3.76185   3.76981   3.78161
 Alpha virt. eigenvalues --    3.79216   3.87026   3.89765   3.90801   3.94492
 Alpha virt. eigenvalues --    3.96406   3.99349   3.99922   4.03058   4.03743
 Alpha virt. eigenvalues --    4.06264   4.06364   4.10220   4.12072   4.14547
 Alpha virt. eigenvalues --    4.15625   4.16263   4.18488   4.19276   4.20855
 Alpha virt. eigenvalues --    4.24199   4.24537   4.25104   4.25759   4.27783
 Alpha virt. eigenvalues --    4.28754   4.29870   4.32570   4.34418   4.36071
 Alpha virt. eigenvalues --    4.37072   4.39402   4.40405   4.41856   4.44272
 Alpha virt. eigenvalues --    4.46215   4.49627   4.50852   4.58094   4.59070
 Alpha virt. eigenvalues --    4.60288   4.62439   4.65193   4.69118
          Condensed to atoms (all electrons):
 Mulliken charges:
               1
     1  N   -0.723394
     2  H    0.330366
     3  H    0.323462
     4  C   -0.102400
     5  H    0.156508
     6  C    0.611252
     7  C   -0.363581
     8  H    0.183269
     9  H    0.169063
    10  O   -0.518961
    11  C    0.584504
    12  N   -0.739720
    13  H    0.344750
    14  H    0.383509
    15  O   -0.528236
    16  N   -0.593476
    17  H    0.330142
    18  C   -0.057164
    19  H    0.180859
    20  C    0.680425
    21  C   -0.106094
    22  H    0.126581
    23  O   -0.590559
    24  C   -0.248689
    25  H    0.147424
    26  H    0.137965
    27  C   -0.500810
    28  H    0.141909
    29  H    0.160400
    30  H    0.189915
    31  C   -0.462170
    32  H    0.164679
    33  H    0.152962
    34  H    0.159282
    35  N   -0.588850
    36  H    0.350832
    37  C   -0.025957
    38  H    0.175995
    39  C    0.657399
    40  C   -0.490184
    41  H    0.178627
    42  H    0.182088
    43  H    0.182864
    44  O   -0.549773
    45  N   -0.639659
    46  H    0.358842
    47  C    0.000122
    48  H    0.175482
    49  C    0.580902
    50  C    0.120487
    51  H    0.160971
    52  O   -0.627722
    53  C   -0.472497
    54  H    0.162800
    55  H    0.163709
    56  H    0.164466
    57  O   -0.644243
    58  H    0.412895
    59  N   -0.525480
    60  H    0.448969
    61  C   -0.092525
    62  H    0.138347
    63  C    0.633405
    64  C   -0.070346
    65  H    0.169316
    66  H    0.226017
    67  O   -0.552130
    68  O   -0.625239
    69  H    0.420195
    70  N   -0.606051
    71  H    0.341829
    72  C   -0.238931
    73  H    0.190608
    74  H    0.213634
    75  C    0.614372
    76  O   -0.495211
    77  N   -0.584509
    78  H    0.330542
    79  C   -0.054689
    80  H    0.214200
    81  C    0.587731
    82  C   -0.268676
    83  H    0.135777
    84  H    0.174982
    85  O   -0.468811
    86  C   -0.297543
    87  H    0.183905
    88  H    0.160442
    89  C   -0.287564
    90  H    0.171367
    91  H    0.148384
    92  C   -0.220517
    93  H    0.177236
    94  H    0.249147
    95  N   -0.831850
    96  H    0.413222
    97  H    0.434347
    98  O   -0.555679
    99  H    0.424377
   100  H    0.459835
 Sum of Mulliken charges =   1.00000
 Mulliken charges with hydrogens summed into heavy atoms:
               1
     1  N   -0.069566
     4  C    0.054108
     6  C    0.611252
     7  C   -0.011249
    10  O   -0.518961
    11  C    0.584504
    12  N   -0.011462
    15  O   -0.528236
    16  N   -0.263334
    18  C    0.123694
    20  C    0.680425
    21  C    0.020487
    23  O   -0.590559
    24  C    0.036700
    27  C   -0.008587
    31  C    0.014752
    35  N   -0.238018
    37  C    0.150039
    39  C    0.657399
    40  C    0.053396
    44  O   -0.549773
    45  N   -0.280817
    47  C    0.175604
    49  C    0.580902
    50  C    0.281458
    52  O   -0.167887
    53  C    0.018478
    57  O   -0.231348
    59  N   -0.525480
    61  C    0.045823
    63  C    0.633405
    64  C    0.324987
    67  O   -0.552130
    68  O   -0.205045
    70  N   -0.264223
    72  C    0.165311
    75  C    0.614372
    76  O   -0.495211
    77  N   -0.253967
    79  C    0.159511
    81  C    0.587731
    82  C    0.042083
    85  O   -0.468811
    86  C    0.046804
    89  C    0.032188
    92  C    0.205866
    95  N    0.464689
    98  O   -0.131301
 Electronic spatial extent (au):  <R**2>=          36382.1678
 Charge=              1.0000 electrons
 Dipole moment (field-independent basis, Debye):
    X=              4.3586    Y=              3.5297    Z=            -11.3949  Tot=             12.7004
 Quadrupole moment (field-independent basis, Debye-Ang):
   XX=           -219.6137   YY=           -230.6887   ZZ=           -186.9143
   XY=             -7.0738   XZ=            -33.3151   YZ=             -4.9922
 Traceless Quadrupole moment (field-independent basis, Debye-Ang):
   XX=             -7.2081   YY=            -18.2832   ZZ=             25.4913
   XY=             -7.0738   XZ=            -33.3151   YZ=             -4.9922
 Octapole moment (field-independent basis, Debye-Ang**2):
  XXX=           -801.9219  YYY=           -735.5911  ZZZ=            548.4216  XYY=           -337.3334
  XXY=           -323.2321  XXZ=             14.4661  XZZ=           -219.0398  YZZ=           -150.4457
  YYZ=            105.2960  XYZ=           -132.4857
 Hexadecapole moment (field-independent basis, Debye-Ang**3):
 XXXX=         -18592.1140 YYYY=          -8509.3116 ZZZZ=         -11039.6855 XXXY=           -267.2492
 XXXZ=           1903.6710 YYYX=            649.1932 YYYZ=            -99.8088 ZZZX=           1565.6859
 ZZZY=           -554.1283 XXYY=          -4628.7838 XXZZ=          -5519.5721 YYZZ=          -3097.1915
 XXYZ=           -688.7696 YYXZ=            419.2907 ZZXY=            850.6692
 N-N= 7.168169823269D+03 E-N=-1.994594334277D+04  KE= 2.396470316730D+03
 Unable to Open any file for archive entry.
 1\1\GINC-AMR-069\SP\RB3LYP\6-31G(d)\C28H52N9O11(1+)\KENGMITH\06-Jun-20
 22\0\\# B3LYP/6-31G* empiricaldispersion=gd3 guess=read geom=check nos
 ymm integral(ultrafinegrid)\\Candidate Structure: Conf:121 Charge calc
  in gas phase\\1,1\N,0,-1.4978408198,1.1823567791,5.2465745907\H,0,-2.
 2942928602,0.5873002956,5.0105932637\H,0,-1.8890360449,1.9775580481,5.
 7499797481\C,0,-0.8930229316,1.635461541,3.9945928622\H,0,-0.214792663
 5,2.4670445977,4.2247957749\C,0,-1.9209556446,2.072225258,2.9383789336
 \C,0,-0.0819760219,0.4891628918,3.3429161362\H,0,-0.725788215,-0.39925
 03208,3.2936453336\H,0,0.1602699601,0.7482535662,2.3122149066\O,0,-3.0
 387121804,1.5775339971,2.877813189\C,0,1.2296930919,0.1166555308,4.031
 0417572\N,0,1.1917140666,0.1072247225,5.3805852469\H,0,2.0234052422,-0
 .1541338922,5.8917376869\H,0,0.3214695818,0.3392791973,5.8584927263\O,
 0,2.2301401854,-0.1675834453,3.3681600892\N,0,-1.4629805923,2.98547197
 8,2.0232637975\H,0,-0.470680521,3.1849955202,2.0429092651\C,0,-2.09681
 54794,3.0879982043,0.7188036461\H,0,-3.1560844441,3.3141480443,0.87436
 53837\C,0,-1.9775555669,1.7324850327,0.0006644724\C,0,-1.4308844196,4.
 2232838528,-0.1077067506\H,0,-0.3794068256,3.9272021246,-0.2540923323\
 O,0,-1.0187709797,0.9731955682,0.2089442523\C,0,-1.4326593024,5.562266
 4827,0.6682218757\H,0,-0.921744974,6.3020390248,0.0386621364\H,0,-0.82
 40238775,5.4652406682,1.5748181386\C,0,-2.0596300429,4.3720952552,-1.5
 032117065\H,0,-3.1441807162,4.5278469976,-1.4423015184\H,0,-1.63816577
 28,5.2487258452,-2.0063532982\H,0,-1.863805005,3.4987362641,-2.1300296
 188\C,0,-2.8174857763,6.0913523898,1.0576575817\H,0,-2.7263510944,7.06
 70723766,1.5456631349\H,0,-3.4675133186,6.2215494586,0.1856047201\H,0,
 -3.322062383,5.4217287713,1.7630873223\N,0,-2.9364556226,1.4151411969,
 -0.8874685621\H,0,-3.6834121477,2.0744360453,-1.0590259904\C,0,-2.8097
 292852,0.2675096451,-1.7745009568\H,0,-2.9057098237,-0.646404608,-1.17
 55025712\C,0,-1.4159965729,0.2851534902,-2.4460803244\C,0,-3.903956723
 4,0.315103828,-2.8461727312\H,0,-3.8353139795,-0.5603890417,-3.4975374
 297\H,0,-4.8972787952,0.3198836417,-2.3852927568\H,0,-3.7896519044,1.2
 116322147,-3.4647737863\O,0,-0.8504668361,1.3403107712,-2.7250181268\N
 ,0,-0.9248324176,-0.9453783532,-2.7286539476\H,0,-1.4403397239,-1.7704
 977693,-2.4452243061\C,0,0.3972105617,-1.2574609559,-3.2771707905\H,0,
 1.0619058812,-1.5425251371,-2.4547748678\C,0,1.0138758912,-0.058327243
 9,-3.9754899779\C,0,0.2737041821,-2.4851352615,-4.1976305409\H,0,-0.38
 89679997,-2.2190928428,-5.0321603622\O,0,0.4379920856,0.1869267937,-5.
 151429532\C,0,1.6288576866,-2.9507933174,-4.7212534921\H,0,2.082424884
 1,-2.1932879304,-5.3688610747\H,0,1.5109106918,-3.865415375,-5.3123495
 392\H,0,2.3087902768,-3.1672415573,-3.890264267\O,0,-0.3400794591,-3.4
 739800517,-3.3625970107\H,0,-0.5604471609,-4.2446455575,-3.9079618347\
 N,0,1.9924937844,0.5352920205,-3.3968755134\H,0,1.751030105,0.52182248
 33,-1.5316624089\C,0,2.6467982473,1.7117225012,-3.9636401914\H,0,3.159
 5512929,1.4514422666,-4.9045998958\C,0,3.6573874042,2.2108320327,-2.92
 00739837\C,0,1.6936754309,2.903511861,-4.2521182272\H,0,2.2528385724,3
 .8465168918,-4.2663499513\H,0,0.9352065638,2.9473265607,-3.4697799104\
 O,0,3.3100865901,2.4049380772,-1.7555175751\O,0,0.985307635,2.74059764
 19,-5.491841327\H,0,1.567325534,2.9921237883,-6.2265627003\N,0,4.91132
 60562,2.4977197838,-3.3478615787\H,0,5.1749018544,2.3159166812,-4.3059
 883399\C,0,5.8937697893,3.0421867751,-2.4110738939\H,0,6.789881195,3.3
 144137253,-2.9763879408\H,0,5.4944984039,3.9352120823,-1.9268139791\C,
 0,6.2670033761,2.0683205607,-1.2749618439\O,0,6.3736640335,2.453840322
 1,-0.1226088264\N,0,6.4572450035,0.7777512004,-1.6721653544\H,0,6.5083
 737347,0.5499188983,-2.6563621216\C,0,6.8148664764,-0.2847974167,-0.75
 20784615\H,0,7.0932890097,0.1754887532,0.1992612279\C,0,7.9992436387,-
 1.0460303991,-1.3321141642\C,0,5.6371389408,-1.2700827319,-0.546415883
 3\H,0,5.4182390096,-1.7285699989,-1.5219195161\H,0,5.9581376153,-2.078
 2190221,0.1202302957\O,0,8.3073783681,-1.0341292793,-2.5049017316\C,0,
 4.3759891192,-0.5826504194,-0.0090324094\H,0,4.4754832755,-0.379380966
 7,1.0643980822\H,0,4.2765454183,0.3870446064,-0.5075964608\C,0,3.11534
 27643,-1.4173980979,-0.2707873586\H,0,3.1835149194,-2.382636659,0.2457
 242917\H,0,3.046478643,-1.6384816658,-1.3455766934\C,0,1.8302207793,-0
 .7419398051,0.1989991734\H,0,0.9470661868,-1.3449195108,-0.0296719451\
 H,0,1.8595594099,-0.5482637769,1.275594931\N,0,1.617650226,0.578403737
 8,-0.4927050973\H,0,2.2956093025,1.2876367478,-0.201879159\H,0,0.65771
 08034,0.9235885267,-0.3006127919\O,0,8.6189361128,-1.7869690256,-0.396
 0635537\H,0,9.3328582699,-2.2827968384,-0.8413502496\H,0,0.6133412319,
 1.1197441475,-5.4539576812\\Version=ES64L-G16RevC.01\HF=-2418.5996015\
 RMSD=8.469e-09\Dipole=-0.827363,-0.3570891,-2.8614596\Quadrupole=-5.35
 90663,-13.5930842,18.9521505,-5.2592322,-24.768993,-3.7115777\PG=C01 [
 X(C28H52N9O11)]\\@
 The archive entry for this job was punched.


 NOTHING MAKES A PERSON MORE PRODUCTIVE THAN THE LAST MINUTE.
 Job cpu time:       0 days  0 hours  2 minutes 46.8 seconds.
 Elapsed time:       0 days  0 hours  0 minutes 42.8 seconds.
 File lengths (MBytes):  RWF=    464 Int=      0 D2E=      0 Chk=     72 Scr=     16
 Normal termination of Gaussian 16 at Mon Jun  6 06:22:02 2022.
