 Entering Gaussian System, Link 0=/opt/software/Gaussian/g16-AVX2-C.01/g16/g16
 Input=charge-conf-669.com
 Output=charge-conf-669.log
 Initial command:
 /opt/software/Gaussian/g16-AVX2-C.01/g16/l1.exe "/mnt/gs18/scratch/users/kengmith/Gau-24002.inp" -scrdir="/mnt/gs18/scratch/users/kengmith/"
 Entering Link 1 = /opt/software/Gaussian/g16-AVX2-C.01/g16/l1.exe PID=     24025.
  
 Copyright (c) 1988-2019, Gaussian, Inc.  All Rights Reserved.
  
 This is part of the Gaussian(R) 16 program.  It is based on
 the Gaussian(R) 09 system (copyright 2009, Gaussian, Inc.),
 the Gaussian(R) 03 system (copyright 2003, Gaussian, Inc.),
 the Gaussian(R) 98 system (copyright 1998, Gaussian, Inc.),
 the Gaussian(R) 94 system (copyright 1995, Gaussian, Inc.),
 the Gaussian 92(TM) system (copyright 1992, Gaussian, Inc.),
 the Gaussian 90(TM) system (copyright 1990, Gaussian, Inc.),
 the Gaussian 88(TM) system (copyright 1988, Gaussian, Inc.),
 the Gaussian 86(TM) system (copyright 1986, Carnegie Mellon
 University), and the Gaussian 82(TM) system (copyright 1983,
 Carnegie Mellon University). Gaussian is a federally registered
 trademark of Gaussian, Inc.
  
 This software contains proprietary and confidential information,
 including trade secrets, belonging to Gaussian, Inc.
  
 This software is provided under written license and may be
 used, copied, transmitted, or stored only in accord with that
 written license.
  
 The following legend is applicable only to US Government
 contracts under FAR:
  
                    RESTRICTED RIGHTS LEGEND
  
 Use, reproduction and disclosure by the US Government is
 subject to restrictions as set forth in subparagraphs (a)
 and (c) of the Commercial Computer Software - Restricted
 Rights clause in FAR 52.227-19.
  
 Gaussian, Inc.
 340 Quinnipiac St., Bldg. 40, Wallingford CT 06492
  
  
 ---------------------------------------------------------------
 Warning -- This program may not be used in any manner that
 competes with the business of Gaussian, Inc. or will provide
 assistance to any competitor of Gaussian, Inc.  The licensee
 of this program is prohibited from giving any competitor of
 Gaussian, Inc. access to this program.  By using this program,
 the user acknowledges that Gaussian, Inc. is engaged in the
 business of creating and licensing software in the field of
 computational chemistry and represents and warrants to the
 licensee that it is not a competitor of Gaussian, Inc. and that
 it will not use this program in any manner prohibited above.
 ---------------------------------------------------------------
  

 Cite this work as:
 Gaussian 16, Revision C.01,
 M. J. Frisch, G. W. Trucks, H. B. Schlegel, G. E. Scuseria, 
 M. A. Robb, J. R. Cheeseman, G. Scalmani, V. Barone, 
 G. A. Petersson, H. Nakatsuji, X. Li, M. Caricato, A. V. Marenich, 
 J. Bloino, B. G. Janesko, R. Gomperts, B. Mennucci, H. P. Hratchian, 
 J. V. Ortiz, A. F. Izmaylov, J. L. Sonnenberg, D. Williams-Young, 
 F. Ding, F. Lipparini, F. Egidi, J. Goings, B. Peng, A. Petrone, 
 T. Henderson, D. Ranasinghe, V. G. Zakrzewski, J. Gao, N. Rega, 
 G. Zheng, W. Liang, M. Hada, M. Ehara, K. Toyota, R. Fukuda, 
 J. Hasegawa, M. Ishida, T. Nakajima, Y. Honda, O. Kitao, H. Nakai, 
 T. Vreven, K. Throssell, J. A. Montgomery, Jr., J. E. Peralta, 
 F. Ogliaro, M. J. Bearpark, J. J. Heyd, E. N. Brothers, K. N. Kudin, 
 V. N. Staroverov, T. A. Keith, R. Kobayashi, J. Normand, 
 K. Raghavachari, A. P. Rendell, J. C. Burant, S. S. Iyengar, 
 J. Tomasi, M. Cossi, J. M. Millam, M. Klene, C. Adamo, R. Cammi, 
 J. W. Ochterski, R. L. Martin, K. Morokuma, O. Farkas, 
 J. B. Foresman, and D. J. Fox, Gaussian, Inc., Wallingford CT, 2019.
 
 ******************************************
 Gaussian 16:  ES64L-G16RevC.01  3-Jul-2019
                 6-Jun-2022 
 ******************************************
 %mem=8gb
 %nproc=4
 Will use up to    4 processors via shared memory.
 %chk=conf-669.chk
 ----------------------------------------------------------------------
 # B3LYP/6-31G* empiricaldispersion=gd3 guess=read geom=check nosymm in
 tegral(ultrafinegrid)
 ----------------------------------------------------------------------
 1/29=2,38=1,172=1/1;
 2/12=2,15=1,40=1/2;
 3/5=1,6=6,7=1,11=2,14=-4,25=1,30=1,74=-5,75=-5,116=-2,124=31/1,2,3;
 4/5=1/1;
 5/5=2,38=6/2;
 6/7=2,8=2,9=2,10=2,28=1/1;
 99/5=1,9=1/99;
 ------------------------------------------------------
 Candidate Structure: Conf:669 Charge calc in gas phase
 ------------------------------------------------------
 Structure from the checkpoint file:  "conf-669.chk"
 Charge =  1 Multiplicity = 1
 Redundant internal coordinates found in file.  (old form).
 N,0,-7.9479320437,-0.0291885574,2.86229859
 H,0,-8.1825915245,0.9130923281,3.1798126978
 H,0,-7.6692330462,-0.5181473343,3.7124131885
 C,0,-6.7874892649,0.0794431495,1.9823723852
 H,0,-6.3376887191,-0.9129656025,1.8718771499
 C,0,-5.7233550294,1.0517268734,2.5463160068
 C,0,-7.2603445547,0.534410302,0.5878914518
 H,0,-8.2306787283,0.0554199708,0.4076181735
 H,0,-7.4421164635,1.6178210127,0.5741231491
 O,0,-6.01776804,1.8935789821,3.3949711979
 C,0,-6.3104854044,0.1649402722,-0.5473889921
 N,0,-6.7544769418,0.4966191995,-1.7927900911
 H,0,-6.2198891304,0.1679267595,-2.5852202537
 H,0,-7.7062869864,0.7925988615,-1.9542655736
 O,0,-5.2225839262,-0.3837769858,-0.3788903362
 N,0,-4.4665605022,0.9181498697,2.0494475998
 H,0,-4.3032061951,0.278758581,1.2733187846
 C,0,-3.4041626222,1.8000718478,2.5013450325
 H,0,-3.8532713305,2.7853381996,2.6625952747
 C,0,-2.3685817895,1.8926276488,1.3814885287
 C,0,-2.8133369173,1.3319661803,3.868322545
 H,0,-3.6900593312,1.3228850249,4.5284068149
 O,0,-2.1028045938,0.9195199766,0.6567916038
 C,0,-1.7983290391,2.3276867991,4.4611121039
 H,0,-0.9330357842,2.430757271,3.7925613735
 H,0,-1.4051843708,1.8873953298,5.386129525
 C,0,-2.2552166733,-0.0941681984,3.8012705157
 H,0,-1.3645706617,-0.1667312146,3.1711621289
 H,0,-1.9778072001,-0.4382639655,4.8035974777
 H,0,-3.0007421342,-0.7881333412,3.4017999122
 C,0,-2.3700766752,3.7137034043,4.7886403715
 H,0,-1.6307718131,4.3264832112,5.3147935674
 H,0,-2.6742610716,4.2752046793,3.8954124334
 H,0,-3.2583376475,3.6309313908,5.4246546533
 N,0,-1.7709421473,3.0977461067,1.2179903509
 H,0,-2.0323406094,3.8463111744,1.8466179649
 C,0,-0.9504171328,3.4702151855,0.0530411685
 H,0,-1.4668336237,3.0909073613,-0.8374595033
 C,0,0.4448626005,2.8039875276,0.1283055841
 C,0,-0.8165075029,4.98739095,-0.0116273771
 H,0,-0.2655154014,5.2776145924,-0.9098472731
 H,0,-1.8034781672,5.4597449545,-0.042151813
 H,0,-0.2542405837,5.3555771816,0.8513066186
 O,0,1.4363234682,3.3728920537,0.5596150452
 N,0,0.446606257,1.5184232308,-0.346533907
 H,0,-0.4721553269,1.087283067,-0.4394010181
 C,0,1.5459604168,0.630596936,-0.0630582588
 H,0,2.4456695296,1.2413301181,0.0745012955
 C,0,1.7538007148,-0.328185599,-1.2100677577
 C,0,1.2921289282,-0.2145810449,1.2403943161
 H,0,2.12647791,-0.9197726742,1.3436282296
 O,0,0.8019189024,-0.4771439955,-2.0594327488
 C,0,1.2419494295,0.6769082286,2.4769795313
 H,0,2.1610783102,1.260058965,2.5873812876
 H,0,1.1019239463,0.051515579,3.3625838924
 H,0,0.4069817006,1.3786059326,2.4186251922
 O,0,0.1444648043,-1.0187534364,1.0652425908
 H,0,-0.6598135266,-0.4635464718,1.097301051
 N,0,2.8745405265,-1.0224899306,-1.2588755198
 H,0,3.6556284338,-0.7641870259,-0.6516176641
 C,0,3.1601836389,-2.2207313873,-2.0552519898
 H,0,2.4356947948,-3.0042962118,-1.8015963795
 C,0,4.6122167587,-2.6169463226,-1.7005498352
 C,0,3.1428656528,-1.9706433082,-3.570472769
 H,0,3.4972280965,-2.8684083366,-4.0860991829
 H,0,3.8394149238,-1.1480152495,-3.7878530294
 O,0,5.3486835539,-1.7968168618,-1.1645600339
 O,0,1.8279508581,-1.6576130923,-4.0116287469
 H,0,1.9349776452,-1.2115696576,-4.9359033813
 N,0,4.9921848619,-3.845240955,-2.1322796128
 H,0,4.2997386007,-4.3916473872,-2.6377608125
 C,0,6.3315815842,-4.0469268651,-2.6847714354
 H,0,6.9868773117,-3.2566480827,-2.3139371085
 H,0,6.7324140396,-5.0149977242,-2.3672178346
 C,0,6.1615182236,-4.0429790523,-4.217473875
 O,0,5.1513356467,-4.5501981944,-4.71055525
 N,0,7.1170370441,-3.4277313266,-4.9437791374
 H,0,7.9844649818,-3.1275787435,-4.5094587361
 C,0,7.1366281175,-3.4924829452,-6.4023433871
 H,0,6.6620227786,-4.4303995787,-6.7101110459
 C,0,8.6030601254,-3.5187823431,-6.8234575277
 C,0,6.4076694718,-2.3190054129,-7.1027588234
 H,0,6.911202017,-1.3790661758,-6.8395086227
 H,0,6.5456000557,-2.4615693695,-8.1810380816
 O,0,9.5299196361,-3.2867949042,-6.0775279091
 C,0,4.9075627933,-2.2206898901,-6.7822870301
 H,0,4.4480996369,-3.2123589577,-6.8639575531
 H,0,4.7848238059,-1.9115789497,-5.740552427
 C,0,4.1904322679,-1.240830966,-7.7222302101
 H,0,4.392296419,-1.5430999859,-8.7581525418
 H,0,4.6179999034,-0.2312517497,-7.6214466956
 C,0,2.6648265539,-1.1619326062,-7.5807356144
 H,0,2.2608404928,-0.6727793896,-8.4763139399
 H,0,2.2366354882,-2.1696616955,-7.5392745611
 N,0,2.2069299349,-0.4306600876,-6.3602759985
 H,0,1.2622927788,-0.0824660759,-6.5328880665
 H,0,2.7785830044,0.4075104787,-6.2398777338
 O,0,8.7338663675,-3.7992544414,-8.1298708613
 H,0,9.6870571644,-3.7776927905,-8.3423204053
 H,0,1.1048969382,-1.0017405673,-2.9167062619
 Recover connectivity data from disk.
                           ----------------------------
                           !    Current Parameters    !
                           ! (Angstroms and Degrees)  !
 --------------------------                            --------------------------
 ! Name  Definition              Value                                          !
 --------------------------------------------------------------------------------
 ! R1    R(1,2)                  1.0217                                         !
 ! R2    R(1,3)                  1.0195                                         !
 ! R3    R(1,4)                  1.4604                                         !
 ! R4    R(4,5)                  1.0952                                         !
 ! R5    R(4,6)                  1.5478                                         !
 ! R6    R(4,7)                  1.5412                                         !
 ! R7    R(6,10)                 1.2311                                         !
 ! R8    R(6,16)                 1.358                                          !
 ! R9    R(7,8)                  1.097                                          !
 ! R10   R(7,9)                  1.0986                                         !
 ! R11   R(7,11)                 1.5256                                         !
 ! R12   R(11,12)                1.3631                                         !
 ! R13   R(11,15)                1.23                                           !
 ! R14   R(12,13)                1.0108                                         !
 ! R15   R(12,14)                1.0098                                         !
 ! R16   R(16,17)                1.0188                                         !
 ! R17   R(16,18)                1.4528                                         !
 ! R18   R(18,19)                1.0947                                         !
 ! R19   R(18,20)                1.5281                                         !
 ! R20   R(18,21)                1.561                                          !
 ! R21   R(20,23)                1.2421                                         !
 ! R22   R(20,35)                1.3551                                         !
 ! R23   R(21,22)                1.0975                                         !
 ! R24   R(21,24)                1.5405                                         !
 ! R25   R(21,27)                1.5329                                         !
 ! R26   R(24,25)                1.0983                                         !
 ! R27   R(24,26)                1.0973                                         !
 ! R28   R(24,31)                1.5347                                         !
 ! R29   R(27,28)                1.0934                                         !
 ! R30   R(27,29)                1.0955                                         !
 ! R31   R(27,30)                1.0941                                         !
 ! R32   R(31,32)                1.0949                                         !
 ! R33   R(31,33)                1.098                                          !
 ! R34   R(31,34)                1.0956                                         !
 ! R35   R(35,36)                1.0119                                         !
 ! R36   R(35,37)                1.4728                                         !
 ! R37   R(37,38)                1.0971                                         !
 ! R38   R(37,39)                1.548                                          !
 ! R39   R(37,40)                1.5244                                         !
 ! R40   R(39,44)                1.2218                                         !
 ! R41   R(39,45)                1.3705                                         !
 ! R42   R(40,41)                1.093                                          !
 ! R43   R(40,42)                1.0946                                         !
 ! R44   R(40,43)                1.0938                                         !
 ! R45   R(45,46)                1.0191                                         !
 ! R46   R(45,47)                1.4412                                         !
 ! R47   R(47,48)                1.0961                                         !
 ! R48   R(47,49)                1.5093                                         !
 ! R49   R(47,50)                1.5741                                         !
 ! R50   R(49,52)                1.2844                                         !
 ! R51   R(49,59)                1.3193                                         !
 ! R52   R(50,51)                1.0973                                         !
 ! R53   R(50,53)                1.5253                                         !
 ! R54   R(50,57)                1.4123                                         !
 ! R55   R(53,54)                1.0941                                         !
 ! R56   R(53,55)                1.0932                                         !
 ! R57   R(53,56)                1.0922                                         !
 ! R58   R(57,58)                0.9778                                         !
 ! R59   R(59,60)                1.0225                                         !
 ! R60   R(59,61)                1.4668                                         !
 ! R61   R(61,62)                1.0969                                         !
 ! R62   R(61,63)                1.5464                                         !
 ! R63   R(61,64)                1.5358                                         !
 ! R64   R(63,67)                1.2257                                         !
 ! R65   R(63,70)                1.3563                                         !
 ! R66   R(64,65)                1.0943                                         !
 ! R67   R(64,66)                1.0996                                         !
 ! R68   R(64,68)                1.4218                                         !
 ! R69   R(68,69)                1.0318                                         !
 ! R70   R(68,100)               1.4669                                         !
 ! R71   R(70,71)                1.0166                                         !
 ! R72   R(70,72)                1.4628                                         !
 ! R73   R(72,73)                1.0915                                         !
 ! R74   R(72,74)                1.0948                                         !
 ! R75   R(72,75)                1.5421                                         !
 ! R76   R(75,76)                1.2332                                         !
 ! R77   R(75,77)                1.3487                                         !
 ! R78   R(77,78)                1.0155                                         !
 ! R79   R(77,79)                1.4601                                         !
 ! R80   R(79,80)                1.0953                                         !
 ! R81   R(79,81)                1.5259                                         !
 ! R82   R(79,82)                1.5489                                         !
 ! R83   R(81,85)                1.2121                                         !
 ! R84   R(81,98)                1.3426                                         !
 ! R85   R(82,83)                1.0983                                         !
 ! R86   R(82,84)                1.0964                                         !
 ! R87   R(82,86)                1.5371                                         !
 ! R88   R(86,87)                1.096                                          !
 ! R89   R(86,88)                1.0935                                         !
 ! R90   R(86,89)                1.5355                                         !
 ! R91   R(89,90)                1.0978                                         !
 ! R92   R(89,91)                1.101                                          !
 ! R93   R(89,92)                1.5342                                         !
 ! R94   R(92,93)                1.0975                                         !
 ! R95   R(92,94)                1.0957                                         !
 ! R96   R(92,95)                1.4946                                         !
 ! R97   R(95,96)                1.0215                                         !
 ! R98   R(95,97)                1.0217                                         !
 ! R99   R(98,99)                0.9768                                         !
 ! A1    A(2,1,3)              104.2396                                         !
 ! A2    A(2,1,4)              107.5276                                         !
 ! A3    A(3,1,4)              108.7154                                         !
 ! A4    A(1,4,5)              108.6475                                         !
 ! A5    A(1,4,6)              111.9316                                         !
 ! A6    A(1,4,7)              108.8653                                         !
 ! A7    A(5,4,6)              108.8816                                         !
 ! A8    A(5,4,7)              107.5918                                         !
 ! A9    A(6,4,7)              110.8038                                         !
 ! A10   A(4,6,10)             121.0842                                         !
 ! A11   A(4,6,16)             116.178                                          !
 ! A12   A(10,6,16)            122.7376                                         !
 ! A13   A(4,7,8)              106.9284                                         !
 ! A14   A(4,7,9)              110.6845                                         !
 ! A15   A(4,7,11)             114.2547                                         !
 ! A16   A(8,7,9)              106.3897                                         !
 ! A17   A(8,7,11)             108.8245                                         !
 ! A18   A(9,7,11)             109.4205                                         !
 ! A19   A(7,11,12)            114.7174                                         !
 ! A20   A(7,11,15)            123.8309                                         !
 ! A21   A(12,11,15)           121.451                                          !
 ! A22   A(11,12,13)           117.7007                                         !
 ! A23   A(11,12,14)           121.6306                                         !
 ! A24   A(13,12,14)           117.9344                                         !
 ! A25   A(6,16,17)            119.2656                                         !
 ! A26   A(6,16,18)            120.2145                                         !
 ! A27   A(17,16,18)           120.0463                                         !
 ! A28   A(16,18,19)           106.9872                                         !
 ! A29   A(16,18,20)           107.7216                                         !
 ! A30   A(16,18,21)           111.5381                                         !
 ! A31   A(19,18,20)           109.3569                                         !
 ! A32   A(19,18,21)           107.2276                                         !
 ! A33   A(20,18,21)           113.7915                                         !
 ! A34   A(18,20,23)           121.6777                                         !
 ! A35   A(18,20,35)           116.1792                                         !
 ! A36   A(23,20,35)           122.1396                                         !
 ! A37   A(18,21,22)           103.1098                                         !
 ! A38   A(18,21,24)           113.1116                                         !
 ! A39   A(18,21,27)           112.2394                                         !
 ! A40   A(22,21,24)           107.4733                                         !
 ! A41   A(22,21,27)           108.0271                                         !
 ! A42   A(24,21,27)           112.227                                          !
 ! A43   A(21,24,25)           110.2134                                         !
 ! A44   A(21,24,26)           107.5238                                         !
 ! A45   A(21,24,31)           114.8606                                         !
 ! A46   A(25,24,26)           105.5761                                         !
 ! A47   A(25,24,31)           109.7955                                         !
 ! A48   A(26,24,31)           108.4182                                         !
 ! A49   A(21,27,28)           112.5518                                         !
 ! A50   A(21,27,29)           110.1457                                         !
 ! A51   A(21,27,30)           110.9764                                         !
 ! A52   A(28,27,29)           107.4675                                         !
 ! A53   A(28,27,30)           107.611                                          !
 ! A54   A(29,27,30)           107.903                                          !
 ! A55   A(24,31,32)           110.8818                                         !
 ! A56   A(24,31,33)           113.0437                                         !
 ! A57   A(24,31,34)           110.9594                                         !
 ! A58   A(32,31,33)           106.9636                                         !
 ! A59   A(32,31,34)           108.1038                                         !
 ! A60   A(33,31,34)           106.6347                                         !
 ! A61   A(20,35,36)           117.9716                                         !
 ! A62   A(20,35,37)           124.4764                                         !
 ! A63   A(36,35,37)           116.6307                                         !
 ! A64   A(35,37,38)           106.9992                                         !
 ! A65   A(35,37,39)           110.7847                                         !
 ! A66   A(35,37,40)           109.5231                                         !
 ! A67   A(38,37,39)           108.3576                                         !
 ! A68   A(38,37,40)           110.5494                                         !
 ! A69   A(39,37,40)           110.5615                                         !
 ! A70   A(37,39,44)           123.2439                                         !
 ! A71   A(37,39,45)           112.8313                                         !
 ! A72   A(44,39,45)           123.9236                                         !
 ! A73   A(37,40,41)           110.0848                                         !
 ! A74   A(37,40,42)           110.576                                          !
 ! A75   A(37,40,43)           110.2856                                         !
 ! A76   A(41,40,42)           108.4842                                         !
 ! A77   A(41,40,43)           107.4474                                         !
 ! A78   A(42,40,43)           109.8921                                         !
 ! A79   A(39,45,46)           115.2942                                         !
 ! A80   A(39,45,47)           120.709                                          !
 ! A81   A(46,45,47)           116.4221                                         !
 ! A82   A(45,47,48)           107.9127                                         !
 ! A83   A(45,47,49)           110.2966                                         !
 ! A84   A(45,47,50)           111.7543                                         !
 ! A85   A(48,47,49)           109.6511                                         !
 ! A86   A(48,47,50)           109.1244                                         !
 ! A87   A(49,47,50)           108.0841                                         !
 ! A88   A(47,49,52)           118.3049                                         !
 ! A89   A(47,49,59)           118.6464                                         !
 ! A90   A(52,49,59)           122.9617                                         !
 ! A91   A(47,50,51)           107.4788                                         !
 ! A92   A(47,50,53)           111.2737                                         !
 ! A93   A(47,50,57)           109.5169                                         !
 ! A94   A(51,50,53)           108.927                                          !
 ! A95   A(51,50,57)           105.2852                                         !
 ! A96   A(53,50,57)           113.9933                                         !
 ! A97   A(50,53,54)           111.4506                                         !
 ! A98   A(50,53,55)           109.0647                                         !
 ! A99   A(50,53,56)           110.9366                                         !
 ! A100  A(54,53,55)           109.3163                                         !
 ! A101  A(54,53,56)           107.769                                          !
 ! A102  A(55,53,56)           108.2341                                         !
 ! A103  A(50,57,58)           109.9395                                         !
 ! A104  A(49,59,60)           119.6041                                         !
 ! A105  A(49,59,61)           127.9828                                         !
 ! A106  A(60,59,61)           112.3356                                         !
 ! A107  A(59,61,62)           109.2306                                         !
 ! A108  A(59,61,63)           105.5233                                         !
 ! A109  A(59,61,64)           113.6048                                         !
 ! A110  A(62,61,63)           112.5893                                         !
 ! A111  A(62,61,64)           109.6954                                         !
 ! A112  A(63,61,64)           106.1776                                         !
 ! A113  A(61,63,67)           119.5431                                         !
 ! A114  A(61,63,70)           114.9673                                         !
 ! A115  A(67,63,70)           125.2294                                         !
 ! A116  A(61,64,65)           109.1256                                         !
 ! A117  A(61,64,66)           108.0419                                         !
 ! A118  A(61,64,68)           110.6336                                         !
 ! A119  A(65,64,66)           108.3898                                         !
 ! A120  A(65,64,68)           109.506                                          !
 ! A121  A(66,64,68)           111.0864                                         !
 ! A122  A(64,68,69)           106.0916                                         !
 ! A123  A(64,68,100)          108.8255                                         !
 ! A124  A(69,68,100)          121.7661                                         !
 ! A125  A(63,70,71)           117.0136                                         !
 ! A126  A(63,70,72)           120.1061                                         !
 ! A127  A(71,70,72)           111.2075                                         !
 ! A128  A(70,72,73)           108.7564                                         !
 ! A129  A(70,72,74)           110.3393                                         !
 ! A130  A(70,72,75)           105.9056                                         !
 ! A131  A(73,72,74)           108.7744                                         !
 ! A132  A(73,72,75)           113.704                                          !
 ! A133  A(74,72,75)           109.3243                                         !
 ! A134  A(72,75,76)           119.1218                                         !
 ! A135  A(72,75,77)           117.2752                                         !
 ! A136  A(76,75,77)           123.5475                                         !
 ! A137  A(75,77,78)           120.6433                                         !
 ! A138  A(75,77,79)           121.8171                                         !
 ! A139  A(78,77,79)           115.3975                                         !
 ! A140  A(77,79,80)           108.2311                                         !
 ! A141  A(77,79,81)           106.8181                                         !
 ! A142  A(77,79,82)           114.3186                                         !
 ! A143  A(80,79,81)           108.912                                          !
 ! A144  A(80,79,82)           108.5283                                         !
 ! A145  A(81,79,82)           109.9103                                         !
 ! A146  A(79,81,85)           124.1737                                         !
 ! A147  A(79,81,98)           111.4551                                         !
 ! A148  A(85,81,98)           124.353                                          !
 ! A149  A(79,82,83)           108.9184                                         !
 ! A150  A(79,82,84)           106.6796                                         !
 ! A151  A(79,82,86)           114.4241                                         !
 ! A152  A(83,82,84)           106.8179                                         !
 ! A153  A(83,82,86)           110.042                                          !
 ! A154  A(84,82,86)           109.6422                                         !
 ! A155  A(82,86,87)           109.6165                                         !
 ! A156  A(82,86,88)           109.0403                                         !
 ! A157  A(82,86,89)           111.6523                                         !
 ! A158  A(87,86,88)           106.2423                                         !
 ! A159  A(87,86,89)           109.6323                                         !
 ! A160  A(88,86,89)           110.5075                                         !
 ! A161  A(86,89,90)           108.4233                                         !
 ! A162  A(86,89,91)           110.3487                                         !
 ! A163  A(86,89,92)           116.1531                                         !
 ! A164  A(90,89,91)           105.5117                                         !
 ! A165  A(90,89,92)           106.501                                          !
 ! A166  A(91,89,92)           109.3035                                         !
 ! A167  A(89,92,93)           108.2821                                         !
 ! A168  A(89,92,94)           110.1693                                         !
 ! A169  A(89,92,95)           113.8985                                         !
 ! A170  A(93,92,94)           107.2736                                         !
 ! A171  A(93,92,95)           109.6022                                         !
 ! A172  A(94,92,95)           107.419                                          !
 ! A173  A(92,95,96)           108.1866                                         !
 ! A174  A(92,95,97)           109.0382                                         !
 ! A175  A(96,95,97)           104.934                                          !
 ! A176  A(81,98,99)           107.5836                                         !
 ! D1    D(2,1,4,5)            163.2463                                         !
 ! D2    D(2,1,4,6)             42.9771                                         !
 ! D3    D(2,1,4,7)            -79.8561                                         !
 ! D4    D(3,1,4,5)             50.9528                                         !
 ! D5    D(3,1,4,6)            -69.3164                                         !
 ! D6    D(3,1,4,7)            167.8504                                         !
 ! D7    D(1,4,6,10)           -19.8234                                         !
 ! D8    D(1,4,6,16)           160.2972                                         !
 ! D9    D(5,4,6,10)          -139.9559                                         !
 ! D10   D(5,4,6,16)            40.1647                                         !
 ! D11   D(7,4,6,10)           101.9029                                         !
 ! D12   D(7,4,6,16)           -77.9766                                         !
 ! D13   D(1,4,7,8)            -36.2065                                         !
 ! D14   D(1,4,7,9)             79.273                                          !
 ! D15   D(1,4,7,11)          -156.6757                                         !
 ! D16   D(5,4,7,8)             81.3623                                         !
 ! D17   D(5,4,7,9)           -163.1582                                         !
 ! D18   D(5,4,7,11)           -39.1069                                         !
 ! D19   D(6,4,7,8)           -159.7147                                         !
 ! D20   D(6,4,7,9)            -44.2353                                         !
 ! D21   D(6,4,7,11)            79.816                                          !
 ! D22   D(4,6,16,17)            6.8813                                         !
 ! D23   D(4,6,16,18)          178.9904                                         !
 ! D24   D(10,6,16,17)        -172.9959                                         !
 ! D25   D(10,6,16,18)          -0.8868                                         !
 ! D26   D(4,7,11,12)          176.5157                                         !
 ! D27   D(4,7,11,15)           -3.7807                                         !
 ! D28   D(8,7,11,12)           57.1084                                         !
 ! D29   D(8,7,11,15)         -123.188                                          !
 ! D30   D(9,7,11,12)          -58.7589                                         !
 ! D31   D(9,7,11,15)          120.9447                                         !
 ! D32   D(7,11,12,13)        -172.2879                                         !
 ! D33   D(7,11,12,14)         -11.4142                                         !
 ! D34   D(15,11,12,13)          8.0007                                         !
 ! D35   D(15,11,12,14)        168.8744                                         !
 ! D36   D(6,16,18,19)         -35.9417                                         !
 ! D37   D(6,16,18,20)        -153.423                                          !
 ! D38   D(6,16,18,21)          81.0265                                         !
 ! D39   D(17,16,18,19)        136.1055                                         !
 ! D40   D(17,16,18,20)         18.6243                                         !
 ! D41   D(17,16,18,21)       -106.9263                                         !
 ! D42   D(16,18,20,23)        -35.4397                                         !
 ! D43   D(16,18,20,35)        143.8846                                         !
 ! D44   D(19,18,20,23)       -151.3748                                         !
 ! D45   D(19,18,20,35)         27.9496                                         !
 ! D46   D(21,18,20,23)         88.7607                                         !
 ! D47   D(21,18,20,35)        -91.915                                          !
 ! D48   D(16,18,21,22)        -57.6026                                         !
 ! D49   D(16,18,21,24)       -173.3617                                         !
 ! D50   D(16,18,21,27)         58.4063                                         !
 ! D51   D(19,18,21,22)         59.2197                                         !
 ! D52   D(19,18,21,24)        -56.5394                                         !
 ! D53   D(19,18,21,27)        175.2287                                         !
 ! D54   D(20,18,21,22)       -179.7189                                         !
 ! D55   D(20,18,21,24)         64.522                                          !
 ! D56   D(20,18,21,27)        -63.71                                           !
 ! D57   D(18,20,35,36)          0.9208                                         !
 ! D58   D(18,20,35,37)       -167.698                                          !
 ! D59   D(23,20,35,36)       -179.7583                                         !
 ! D60   D(23,20,35,37)         11.6229                                         !
 ! D61   D(18,21,24,25)        -62.494                                          !
 ! D62   D(18,21,24,26)       -177.0968                                         !
 ! D63   D(18,21,24,31)         62.1413                                         !
 ! D64   D(22,21,24,25)       -175.628                                          !
 ! D65   D(22,21,24,26)         69.7692                                         !
 ! D66   D(22,21,24,31)        -50.9927                                         !
 ! D67   D(27,21,24,25)         65.7444                                         !
 ! D68   D(27,21,24,26)        -48.8584                                         !
 ! D69   D(27,21,24,31)       -169.6203                                         !
 ! D70   D(18,21,27,28)         67.901                                          !
 ! D71   D(18,21,27,29)       -172.1954                                         !
 ! D72   D(18,21,27,30)        -52.7674                                         !
 ! D73   D(22,21,27,28)       -179.0967                                         !
 ! D74   D(22,21,27,29)        -59.193                                          !
 ! D75   D(22,21,27,30)         60.2349                                         !
 ! D76   D(24,21,27,28)        -60.796                                          !
 ! D77   D(24,21,27,29)         59.1076                                         !
 ! D78   D(24,21,27,30)        178.5356                                         !
 ! D79   D(21,24,31,32)        173.1424                                         !
 ! D80   D(21,24,31,33)        -66.7494                                         !
 ! D81   D(21,24,31,34)         52.9913                                         !
 ! D82   D(25,24,31,32)        -62.0029                                         !
 ! D83   D(25,24,31,33)         58.1052                                         !
 ! D84   D(25,24,31,34)        177.8459                                         !
 ! D85   D(26,24,31,32)         52.8728                                         !
 ! D86   D(26,24,31,33)        172.9809                                         !
 ! D87   D(26,24,31,34)        -67.2784                                         !
 ! D88   D(20,35,37,38)         42.3466                                         !
 ! D89   D(20,35,37,39)        -75.5772                                         !
 ! D90   D(20,35,37,40)        162.2038                                         !
 ! D91   D(36,35,37,38)       -126.4107                                         !
 ! D92   D(36,35,37,39)        115.6655                                         !
 ! D93   D(36,35,37,40)         -6.5535                                         !
 ! D94   D(35,37,39,44)        -97.0598                                         !
 ! D95   D(35,37,39,45)         83.3252                                         !
 ! D96   D(38,37,39,44)        145.8478                                         !
 ! D97   D(38,37,39,45)        -33.7672                                         !
 ! D98   D(40,37,39,44)         24.5509                                         !
 ! D99   D(40,37,39,45)       -155.064                                          !
 ! D100  D(35,37,40,41)       -176.2339                                         !
 ! D101  D(35,37,40,42)        -56.3768                                         !
 ! D102  D(35,37,40,43)         65.3738                                         !
 ! D103  D(38,37,40,41)        -58.5761                                         !
 ! D104  D(38,37,40,42)         61.2809                                         !
 ! D105  D(38,37,40,43)       -176.9685                                         !
 ! D106  D(39,37,40,41)         61.4139                                         !
 ! D107  D(39,37,40,42)       -178.7291                                         !
 ! D108  D(39,37,40,43)        -56.9785                                         !
 ! D109  D(37,39,45,46)        -16.0723                                         !
 ! D110  D(37,39,45,47)       -164.6263                                         !
 ! D111  D(44,39,45,46)        164.3158                                         !
 ! D112  D(44,39,45,47)         15.7617                                         !
 ! D113  D(39,45,47,48)        -28.0219                                         !
 ! D114  D(39,45,47,49)       -147.7819                                         !
 ! D115  D(39,45,47,50)         91.9581                                         !
 ! D116  D(46,45,47,48)       -176.2394                                         !
 ! D117  D(46,45,47,49)         64.0006                                         !
 ! D118  D(46,45,47,50)        -56.2595                                         !
 ! D119  D(45,47,49,52)        -17.3008                                         !
 ! D120  D(45,47,49,59)        165.988                                          !
 ! D121  D(48,47,49,52)       -136.0043                                         !
 ! D122  D(48,47,49,59)         47.2846                                         !
 ! D123  D(50,47,49,52)        105.1427                                         !
 ! D124  D(50,47,49,59)        -71.5685                                         !
 ! D125  D(45,47,50,51)        175.4115                                         !
 ! D126  D(45,47,50,53)        -65.4096                                         !
 ! D127  D(45,47,50,57)         61.53                                           !
 ! D128  D(48,47,50,51)        -65.3223                                         !
 ! D129  D(48,47,50,53)         53.8565                                         !
 ! D130  D(48,47,50,57)       -179.2039                                         !
 ! D131  D(49,47,50,51)         53.8649                                         !
 ! D132  D(49,47,50,53)        173.0437                                         !
 ! D133  D(49,47,50,57)        -60.0167                                         !
 ! D134  D(47,49,59,60)        -13.02                                           !
 ! D135  D(47,49,59,61)        163.5167                                         !
 ! D136  D(52,49,59,60)        170.4313                                         !
 ! D137  D(52,49,59,61)        -13.0319                                         !
 ! D138  D(47,50,53,54)        -57.1254                                         !
 ! D139  D(47,50,53,55)       -177.9101                                         !
 ! D140  D(47,50,53,56)         62.9671                                         !
 ! D141  D(51,50,53,54)         61.1852                                         !
 ! D142  D(51,50,53,55)        -59.5995                                         !
 ! D143  D(51,50,53,56)       -178.7223                                         !
 ! D144  D(57,50,53,54)        178.4223                                         !
 ! D145  D(57,50,53,55)         57.6376                                         !
 ! D146  D(57,50,53,56)        -61.4852                                         !
 ! D147  D(47,50,57,58)        -73.0025                                         !
 ! D148  D(51,50,57,58)        171.7064                                         !
 ! D149  D(53,50,57,58)         52.3855                                         !
 ! D150  D(49,59,61,62)        -57.8153                                         !
 ! D151  D(49,59,61,63)       -179.0885                                         !
 ! D152  D(49,59,61,64)         65.0022                                         !
 ! D153  D(60,59,61,62)        118.9295                                         !
 ! D154  D(60,59,61,63)         -2.3437                                         !
 ! D155  D(60,59,61,64)       -118.2529                                         !
 ! D156  D(59,61,63,67)        -17.6079                                         !
 ! D157  D(59,61,63,70)        167.9469                                         !
 ! D158  D(62,61,63,67)       -136.6732                                         !
 ! D159  D(62,61,63,70)         48.8816                                         !
 ! D160  D(64,61,63,67)        103.276                                          !
 ! D161  D(64,61,63,70)        -71.1692                                         !
 ! D162  D(59,61,64,65)        172.275                                          !
 ! D163  D(59,61,64,66)         54.6208                                         !
 ! D164  D(59,61,64,68)        -67.18                                           !
 ! D165  D(62,61,64,65)        -65.1634                                         !
 ! D166  D(62,61,64,66)        177.1824                                         !
 ! D167  D(62,61,64,68)         55.3816                                         !
 ! D168  D(63,61,64,65)         56.7515                                         !
 ! D169  D(63,61,64,66)        -60.9028                                         !
 ! D170  D(63,61,64,68)        177.2965                                         !
 ! D171  D(61,63,70,71)         -0.3617                                         !
 ! D172  D(61,63,70,72)        139.5429                                         !
 ! D173  D(67,63,70,71)       -174.4443                                         !
 ! D174  D(67,63,70,72)        -34.5397                                         !
 ! D175  D(61,64,68,69)        162.0231                                         !
 ! D176  D(61,64,68,100)        29.3951                                         !
 ! D177  D(65,64,68,69)        -77.6589                                         !
 ! D178  D(65,64,68,100)       149.7131                                         !
 ! D179  D(66,64,68,69)         42.0307                                         !
 ! D180  D(66,64,68,100)       -90.5974                                         !
 ! D181  D(63,70,72,73)         22.4771                                         !
 ! D182  D(63,70,72,74)        141.7108                                         !
 ! D183  D(63,70,72,75)       -100.0859                                         !
 ! D184  D(71,70,72,73)        164.4906                                         !
 ! D185  D(71,70,72,74)        -76.2757                                         !
 ! D186  D(71,70,72,75)         41.9276                                         !
 ! D187  D(70,72,75,76)        -36.4642                                         !
 ! D188  D(70,72,75,77)        140.9239                                         !
 ! D189  D(73,72,75,76)       -155.8222                                         !
 ! D190  D(73,72,75,77)         21.5659                                         !
 ! D191  D(74,72,75,76)         82.4123                                         !
 ! D192  D(74,72,75,77)       -100.1997                                         !
 ! D193  D(72,75,77,78)         10.4072                                         !
 ! D194  D(72,75,77,79)        173.0042                                         !
 ! D195  D(76,75,77,78)       -172.3306                                         !
 ! D196  D(76,75,77,79)         -9.7337                                         !
 ! D197  D(75,77,79,80)        -28.2075                                         !
 ! D198  D(75,77,79,81)       -145.3403                                         !
 ! D199  D(75,77,79,82)         92.8566                                         !
 ! D200  D(78,77,79,80)        135.2423                                         !
 ! D201  D(78,77,79,81)         18.1095                                         !
 ! D202  D(78,77,79,82)       -103.6936                                         !
 ! D203  D(77,79,81,85)        -11.7106                                         !
 ! D204  D(77,79,81,98)        169.7818                                         !
 ! D205  D(80,79,81,85)       -128.3926                                         !
 ! D206  D(80,79,81,98)         53.0997                                         !
 ! D207  D(82,79,81,85)        112.8336                                         !
 ! D208  D(82,79,81,98)        -65.6741                                         !
 ! D209  D(77,79,82,83)         61.9972                                         !
 ! D210  D(77,79,82,84)        176.9568                                         !
 ! D211  D(77,79,82,86)        -61.6124                                         !
 ! D212  D(80,79,82,83)       -177.1032                                         !
 ! D213  D(80,79,82,84)        -62.1436                                         !
 ! D214  D(80,79,82,86)         59.2872                                         !
 ! D215  D(81,79,82,83)        -58.0937                                         !
 ! D216  D(81,79,82,84)         56.8659                                         !
 ! D217  D(81,79,82,86)        178.2967                                         !
 ! D218  D(79,81,98,99)        178.4852                                         !
 ! D219  D(85,81,98,99)         -0.0193                                         !
 ! D220  D(79,82,86,87)        -46.2267                                         !
 ! D221  D(79,82,86,88)         69.6936                                         !
 ! D222  D(79,82,86,89)       -167.9118                                         !
 ! D223  D(83,82,86,87)       -169.2314                                         !
 ! D224  D(83,82,86,88)        -53.3111                                         !
 ! D225  D(83,82,86,89)         69.0835                                         !
 ! D226  D(84,82,86,87)         73.5612                                         !
 ! D227  D(84,82,86,88)       -170.5184                                         !
 ! D228  D(84,82,86,89)        -48.1239                                         !
 ! D229  D(82,86,89,90)         54.633                                          !
 ! D230  D(82,86,89,91)        -60.4662                                         !
 ! D231  D(82,86,89,92)        174.4408                                         !
 ! D232  D(87,86,89,90)        -67.0431                                         !
 ! D233  D(87,86,89,91)        177.8578                                         !
 ! D234  D(87,86,89,92)         52.7647                                         !
 ! D235  D(88,86,89,90)        176.1824                                         !
 ! D236  D(88,86,89,91)         61.0832                                         !
 ! D237  D(88,86,89,92)        -64.0098                                         !
 ! D238  D(86,89,92,93)       -163.5778                                         !
 ! D239  D(86,89,92,94)        -46.5449                                         !
 ! D240  D(86,89,92,95)         74.2244                                         !
 ! D241  D(90,89,92,93)        -42.7362                                         !
 ! D242  D(90,89,92,94)         74.2968                                         !
 ! D243  D(90,89,92,95)       -164.934                                          !
 ! D244  D(91,89,92,93)         70.7981                                         !
 ! D245  D(91,89,92,94)       -172.169                                          !
 ! D246  D(91,89,92,95)        -51.3997                                         !
 ! D247  D(89,92,95,96)        156.2654                                         !
 ! D248  D(89,92,95,97)         42.6673                                         !
 ! D249  D(93,92,95,96)         34.7973                                         !
 ! D250  D(93,92,95,97)        -78.8007                                         !
 ! D251  D(94,92,95,96)        -81.4397                                         !
 ! D252  D(94,92,95,97)        164.9622                                         !
 --------------------------------------------------------------------------------
 Symmetry turned off by external request.
 Stoichiometry    C28H52N9O11(1+)
 Framework group  C1[X(C28H52N9O11)]
 Deg. of freedom   294
 Full point group                 C1      NOp   1
                          Input orientation:                          
 ---------------------------------------------------------------------
 Center     Atomic      Atomic             Coordinates (Angstroms)
 Number     Number       Type             X           Y           Z
 ---------------------------------------------------------------------
      1          7           0       -7.947932   -0.029189    2.862299
      2          1           0       -8.182592    0.913092    3.179813
      3          1           0       -7.669233   -0.518147    3.712413
      4          6           0       -6.787489    0.079443    1.982372
      5          1           0       -6.337689   -0.912966    1.871877
      6          6           0       -5.723355    1.051727    2.546316
      7          6           0       -7.260345    0.534410    0.587891
      8          1           0       -8.230679    0.055420    0.407618
      9          1           0       -7.442116    1.617821    0.574123
     10          8           0       -6.017768    1.893579    3.394971
     11          6           0       -6.310485    0.164940   -0.547389
     12          7           0       -6.754477    0.496619   -1.792790
     13          1           0       -6.219889    0.167927   -2.585220
     14          1           0       -7.706287    0.792599   -1.954266
     15          8           0       -5.222584   -0.383777   -0.378890
     16          7           0       -4.466561    0.918150    2.049448
     17          1           0       -4.303206    0.278759    1.273319
     18          6           0       -3.404163    1.800072    2.501345
     19          1           0       -3.853271    2.785338    2.662595
     20          6           0       -2.368582    1.892628    1.381489
     21          6           0       -2.813337    1.331966    3.868323
     22          1           0       -3.690059    1.322885    4.528407
     23          8           0       -2.102805    0.919520    0.656792
     24          6           0       -1.798329    2.327687    4.461112
     25          1           0       -0.933036    2.430757    3.792561
     26          1           0       -1.405184    1.887395    5.386130
     27          6           0       -2.255217   -0.094168    3.801271
     28          1           0       -1.364571   -0.166731    3.171162
     29          1           0       -1.977807   -0.438264    4.803597
     30          1           0       -3.000742   -0.788133    3.401800
     31          6           0       -2.370077    3.713703    4.788640
     32          1           0       -1.630772    4.326483    5.314794
     33          1           0       -2.674261    4.275205    3.895412
     34          1           0       -3.258338    3.630931    5.424655
     35          7           0       -1.770942    3.097746    1.217990
     36          1           0       -2.032341    3.846311    1.846618
     37          6           0       -0.950417    3.470215    0.053041
     38          1           0       -1.466834    3.090907   -0.837460
     39          6           0        0.444863    2.803988    0.128306
     40          6           0       -0.816508    4.987391   -0.011627
     41          1           0       -0.265515    5.277615   -0.909847
     42          1           0       -1.803478    5.459745   -0.042152
     43          1           0       -0.254241    5.355577    0.851307
     44          8           0        1.436323    3.372892    0.559615
     45          7           0        0.446606    1.518423   -0.346534
     46          1           0       -0.472155    1.087283   -0.439401
     47          6           0        1.545960    0.630597   -0.063058
     48          1           0        2.445670    1.241330    0.074501
     49          6           0        1.753801   -0.328186   -1.210068
     50          6           0        1.292129   -0.214581    1.240394
     51          1           0        2.126478   -0.919773    1.343628
     52          8           0        0.801919   -0.477144   -2.059433
     53          6           0        1.241949    0.676908    2.476980
     54          1           0        2.161078    1.260059    2.587381
     55          1           0        1.101924    0.051516    3.362584
     56          1           0        0.406982    1.378606    2.418625
     57          8           0        0.144465   -1.018753    1.065243
     58          1           0       -0.659814   -0.463546    1.097301
     59          7           0        2.874541   -1.022490   -1.258876
     60          1           0        3.655628   -0.764187   -0.651618
     61          6           0        3.160184   -2.220731   -2.055252
     62          1           0        2.435695   -3.004296   -1.801596
     63          6           0        4.612217   -2.616946   -1.700550
     64          6           0        3.142866   -1.970643   -3.570473
     65          1           0        3.497228   -2.868408   -4.086099
     66          1           0        3.839415   -1.148015   -3.787853
     67          8           0        5.348684   -1.796817   -1.164560
     68          8           0        1.827951   -1.657613   -4.011629
     69          1           0        1.934978   -1.211570   -4.935903
     70          7           0        4.992185   -3.845241   -2.132280
     71          1           0        4.299739   -4.391647   -2.637761
     72          6           0        6.331582   -4.046927   -2.684771
     73          1           0        6.986877   -3.256648   -2.313937
     74          1           0        6.732414   -5.014998   -2.367218
     75          6           0        6.161518   -4.042979   -4.217474
     76          8           0        5.151336   -4.550198   -4.710555
     77          7           0        7.117037   -3.427731   -4.943779
     78          1           0        7.984465   -3.127579   -4.509459
     79          6           0        7.136628   -3.492483   -6.402343
     80          1           0        6.662023   -4.430400   -6.710111
     81          6           0        8.603060   -3.518782   -6.823458
     82          6           0        6.407669   -2.319005   -7.102759
     83          1           0        6.911202   -1.379066   -6.839509
     84          1           0        6.545600   -2.461569   -8.181038
     85          8           0        9.529920   -3.286795   -6.077528
     86          6           0        4.907563   -2.220690   -6.782287
     87          1           0        4.448100   -3.212359   -6.863958
     88          1           0        4.784824   -1.911579   -5.740552
     89          6           0        4.190432   -1.240831   -7.722230
     90          1           0        4.392296   -1.543100   -8.758153
     91          1           0        4.618000   -0.231252   -7.621447
     92          6           0        2.664827   -1.161933   -7.580736
     93          1           0        2.260840   -0.672779   -8.476314
     94          1           0        2.236635   -2.169662   -7.539275
     95          7           0        2.206930   -0.430660   -6.360276
     96          1           0        1.262293   -0.082466   -6.532888
     97          1           0        2.778583    0.407510   -6.239878
     98          8           0        8.733866   -3.799254   -8.129871
     99          1           0        9.687057   -3.777693   -8.342320
    100          1           0        1.104897   -1.001741   -2.916706
 ---------------------------------------------------------------------
 Rotational constants (GHZ):           0.1138024           0.0200935           0.0190646
 Standard basis: 6-31G(d) (6D, 7F)
   824 basis functions,  1552 primitive gaussians,   824 cartesian basis functions
   185 alpha electrons      185 beta electrons
       nuclear repulsion energy      6505.7177391083 Hartrees.
 NAtoms=  100 NActive=  100 NUniq=  100 SFac= 1.00D+00 NAtFMM=   60 NAOKFM=T Big=T
 Integral buffers will be    131072 words long.
 Raffenetti 2 integral format.
 Two-electron integral symmetry is turned off.
 Nuclear repulsion after empirical dispersion term =     6505.5808764219 Hartrees.
 One-electron integrals computed using PRISM.
 NBasis=   824 RedAO= T EigKep=  1.75D-03  NBF=   824
 NBsUse=   824 1.00D-06 EigRej= -1.00D+00 NBFU=   824
 Initial guess from the checkpoint file:  "conf-669.chk"
 B after Tr=     0.000000    0.000000    0.000000
         Rot=    1.000000    0.000000    0.000000    0.000000 Ang=   0.00 deg.
 Requested convergence on RMS density matrix=1.00D-08 within 128 cycles.
 Requested convergence on MAX density matrix=1.00D-06.
 Requested convergence on             energy=1.00D-06.
 No special actions if energy rises.
 SCF Done:  E(RB3LYP) =  -2418.57598169     A.U. after    2 cycles
            NFock=  2  Conv=0.70D-08     -V/T= 2.0093

 **********************************************************************

            Population analysis using the SCF Density.

 **********************************************************************

 Alpha  occ. eigenvalues --  -19.32077 -19.29450 -19.27592 -19.24875 -19.24039
 Alpha  occ. eigenvalues --  -19.23012 -19.22433 -19.21898 -19.20880 -19.18543
 Alpha  occ. eigenvalues --  -19.16694 -14.52125 -14.47840 -14.46910 -14.46262
 Alpha  occ. eigenvalues --  -14.46216 -14.44880 -14.42502 -14.40901 -14.36153
 Alpha  occ. eigenvalues --  -10.45672 -10.42038 -10.41849 -10.39758 -10.38498
 Alpha  occ. eigenvalues --  -10.37804 -10.37632 -10.36479 -10.36046 -10.34891
 Alpha  occ. eigenvalues --  -10.34298 -10.33961 -10.33960 -10.33380 -10.32928
 Alpha  occ. eigenvalues --  -10.32294 -10.30176 -10.28919 -10.28875 -10.28066
 Alpha  occ. eigenvalues --  -10.27740 -10.26706 -10.26083 -10.25781 -10.25731
 Alpha  occ. eigenvalues --  -10.24877 -10.24103 -10.23343  -1.23250  -1.20520
 Alpha  occ. eigenvalues --   -1.16931  -1.14528  -1.14440  -1.13680  -1.12627
 Alpha  occ. eigenvalues --   -1.11704  -1.10944  -1.10175  -1.08913  -1.08506
 Alpha  occ. eigenvalues --   -1.04625  -1.03222  -1.02494  -1.02042  -1.01302
 Alpha  occ. eigenvalues --   -0.97935  -0.97172  -0.93760  -0.92093  -0.90472
 Alpha  occ. eigenvalues --   -0.88406  -0.87329  -0.86731  -0.85462  -0.83302
 Alpha  occ. eigenvalues --   -0.82476  -0.82117  -0.80057  -0.80053  -0.78441
 Alpha  occ. eigenvalues --   -0.77650  -0.74481  -0.73970  -0.73146  -0.72742
 Alpha  occ. eigenvalues --   -0.72197  -0.71577  -0.70199  -0.69908  -0.69541
 Alpha  occ. eigenvalues --   -0.68754  -0.68577  -0.68518  -0.67162  -0.66594
 Alpha  occ. eigenvalues --   -0.65804  -0.65071  -0.64232  -0.62669  -0.62209
 Alpha  occ. eigenvalues --   -0.61875  -0.61669  -0.61396  -0.60735  -0.60257
 Alpha  occ. eigenvalues --   -0.59723  -0.59354  -0.58961  -0.58793  -0.58305
 Alpha  occ. eigenvalues --   -0.57409  -0.57320  -0.56861  -0.56716  -0.56497
 Alpha  occ. eigenvalues --   -0.56049  -0.55789  -0.55709  -0.54855  -0.54646
 Alpha  occ. eigenvalues --   -0.54386  -0.54148  -0.53883  -0.53593  -0.53289
 Alpha  occ. eigenvalues --   -0.52886  -0.52403  -0.51828  -0.51544  -0.51485
 Alpha  occ. eigenvalues --   -0.51226  -0.50758  -0.50232  -0.49854  -0.49775
 Alpha  occ. eigenvalues --   -0.49375  -0.49175  -0.48988  -0.48714  -0.48387
 Alpha  occ. eigenvalues --   -0.48073  -0.47940  -0.47698  -0.47352  -0.47191
 Alpha  occ. eigenvalues --   -0.46809  -0.46737  -0.46459  -0.46061  -0.45858
 Alpha  occ. eigenvalues --   -0.45807  -0.45551  -0.45386  -0.44774  -0.44555
 Alpha  occ. eigenvalues --   -0.43792  -0.43713  -0.43205  -0.43190  -0.42771
 Alpha  occ. eigenvalues --   -0.42193  -0.41819  -0.41528  -0.41476  -0.40759
 Alpha  occ. eigenvalues --   -0.40454  -0.39720  -0.39205  -0.38913  -0.38763
 Alpha  occ. eigenvalues --   -0.38591  -0.38137  -0.37618  -0.37492  -0.37100
 Alpha  occ. eigenvalues --   -0.36326  -0.35847  -0.35649  -0.34266  -0.33918
 Alpha  occ. eigenvalues --   -0.33122  -0.32405  -0.30913  -0.30525  -0.28936
 Alpha virt. eigenvalues --   -0.14652  -0.11169  -0.09101  -0.08410  -0.08126
 Alpha virt. eigenvalues --   -0.07485  -0.04941  -0.04311  -0.02880  -0.02708
 Alpha virt. eigenvalues --   -0.01922  -0.01549  -0.01394  -0.00446  -0.00089
 Alpha virt. eigenvalues --    0.00512   0.00765   0.01112   0.01467   0.01560
 Alpha virt. eigenvalues --    0.02194   0.03045   0.03085   0.03341   0.03605
 Alpha virt. eigenvalues --    0.03717   0.04075   0.04393   0.04898   0.05033
 Alpha virt. eigenvalues --    0.05331   0.05425   0.05650   0.05868   0.06229
 Alpha virt. eigenvalues --    0.06396   0.06635   0.07054   0.07491   0.07638
 Alpha virt. eigenvalues --    0.07959   0.08052   0.08388   0.09017   0.09146
 Alpha virt. eigenvalues --    0.09229   0.09480   0.09756   0.09874   0.10177
 Alpha virt. eigenvalues --    0.10386   0.10639   0.10722   0.10820   0.11001
 Alpha virt. eigenvalues --    0.11074   0.11437   0.11699   0.11929   0.12116
 Alpha virt. eigenvalues --    0.12395   0.12511   0.13217   0.13480   0.13857
 Alpha virt. eigenvalues --    0.14289   0.14327   0.14722   0.14983   0.15027
 Alpha virt. eigenvalues --    0.15506   0.15970   0.16201   0.16578   0.16801
 Alpha virt. eigenvalues --    0.17041   0.17226   0.17431   0.17716   0.17830
 Alpha virt. eigenvalues --    0.18293   0.18528   0.18912   0.19818   0.20086
 Alpha virt. eigenvalues --    0.20184   0.20701   0.20915   0.21376   0.22152
 Alpha virt. eigenvalues --    0.22993   0.23332   0.23593   0.25479   0.25794
 Alpha virt. eigenvalues --    0.26661   0.27519   0.27748   0.28968   0.29312
 Alpha virt. eigenvalues --    0.29831   0.30116   0.31905   0.32868   0.33681
 Alpha virt. eigenvalues --    0.34400   0.36857   0.37267   0.37656   0.38244
 Alpha virt. eigenvalues --    0.40489   0.40706   0.40850   0.41692   0.42144
 Alpha virt. eigenvalues --    0.42563   0.42699   0.43545   0.43706   0.43939
 Alpha virt. eigenvalues --    0.44240   0.44517   0.44946   0.45320   0.45855
 Alpha virt. eigenvalues --    0.46114   0.46698   0.46794   0.47160   0.47508
 Alpha virt. eigenvalues --    0.47783   0.48085   0.48229   0.48877   0.49391
 Alpha virt. eigenvalues --    0.50157   0.50204   0.50681   0.50805   0.51117
 Alpha virt. eigenvalues --    0.51987   0.52412   0.52695   0.53387   0.53470
 Alpha virt. eigenvalues --    0.54013   0.54462   0.54686   0.54912   0.55076
 Alpha virt. eigenvalues --    0.55751   0.56052   0.56348   0.56666   0.56871
 Alpha virt. eigenvalues --    0.57089   0.57630   0.58217   0.58507   0.58628
 Alpha virt. eigenvalues --    0.58872   0.59098   0.59400   0.59563   0.60004
 Alpha virt. eigenvalues --    0.60619   0.60976   0.61165   0.61464   0.62421
 Alpha virt. eigenvalues --    0.62631   0.63159   0.63291   0.63532   0.64165
 Alpha virt. eigenvalues --    0.64785   0.65103   0.65761   0.66082   0.66533
 Alpha virt. eigenvalues --    0.66744   0.67401   0.67820   0.68253   0.68394
 Alpha virt. eigenvalues --    0.68562   0.69279   0.69384   0.69660   0.70156
 Alpha virt. eigenvalues --    0.70273   0.71622   0.71698   0.72151   0.72640
 Alpha virt. eigenvalues --    0.72845   0.73111   0.73686   0.73800   0.73962
 Alpha virt. eigenvalues --    0.74414   0.74644   0.74938   0.75590   0.75677
 Alpha virt. eigenvalues --    0.75979   0.76318   0.76538   0.76732   0.76915
 Alpha virt. eigenvalues --    0.77453   0.78110   0.78445   0.78635   0.78899
 Alpha virt. eigenvalues --    0.79232   0.79283   0.79756   0.79825   0.80127
 Alpha virt. eigenvalues --    0.80376   0.80518   0.80905   0.81102   0.81252
 Alpha virt. eigenvalues --    0.81586   0.81693   0.81953   0.82126   0.82326
 Alpha virt. eigenvalues --    0.82424   0.82545   0.82739   0.83376   0.83799
 Alpha virt. eigenvalues --    0.83976   0.84195   0.84752   0.84942   0.85208
 Alpha virt. eigenvalues --    0.85365   0.85434   0.85660   0.85924   0.86508
 Alpha virt. eigenvalues --    0.86753   0.87192   0.87677   0.88078   0.88221
 Alpha virt. eigenvalues --    0.88384   0.88542   0.88746   0.88993   0.89205
 Alpha virt. eigenvalues --    0.89502   0.89723   0.89977   0.90348   0.90733
 Alpha virt. eigenvalues --    0.91088   0.91909   0.92733   0.93335   0.94151
 Alpha virt. eigenvalues --    0.94355   0.94904   0.95079   0.95353   0.95910
 Alpha virt. eigenvalues --    0.96918   0.97723   0.98137   0.98371   0.98585
 Alpha virt. eigenvalues --    0.98792   0.99506   0.99748   1.00809   1.01158
 Alpha virt. eigenvalues --    1.01488   1.02045   1.02452   1.02805   1.03577
 Alpha virt. eigenvalues --    1.04528   1.05205   1.05396   1.06635   1.07177
 Alpha virt. eigenvalues --    1.07378   1.07571   1.09083   1.09164   1.09681
 Alpha virt. eigenvalues --    1.10996   1.11748   1.12105   1.13113   1.14176
 Alpha virt. eigenvalues --    1.15055   1.15392   1.16095   1.18033   1.18285
 Alpha virt. eigenvalues --    1.18935   1.19412   1.19610   1.20814   1.21682
 Alpha virt. eigenvalues --    1.21973   1.22711   1.22948   1.23983   1.24434
 Alpha virt. eigenvalues --    1.25908   1.26315   1.26892   1.27168   1.28135
 Alpha virt. eigenvalues --    1.28640   1.29326   1.30093   1.30214   1.30735
 Alpha virt. eigenvalues --    1.31406   1.32102   1.32437   1.32961   1.33989
 Alpha virt. eigenvalues --    1.34755   1.34960   1.35485   1.36011   1.36514
 Alpha virt. eigenvalues --    1.36529   1.37469   1.37706   1.38420   1.41198
 Alpha virt. eigenvalues --    1.42047   1.42686   1.43665   1.44099   1.44338
 Alpha virt. eigenvalues --    1.44968   1.45712   1.46862   1.47280   1.47560
 Alpha virt. eigenvalues --    1.48357   1.48597   1.49449   1.50757   1.51597
 Alpha virt. eigenvalues --    1.52202   1.53261   1.53667   1.54362   1.54670
 Alpha virt. eigenvalues --    1.55307   1.55786   1.56236   1.57725   1.58507
 Alpha virt. eigenvalues --    1.58776   1.59212   1.59449   1.59527   1.60236
 Alpha virt. eigenvalues --    1.60957   1.61156   1.61477   1.61997   1.62702
 Alpha virt. eigenvalues --    1.63338   1.64366   1.64415   1.64683   1.65136
 Alpha virt. eigenvalues --    1.66262   1.66485   1.66830   1.67206   1.67817
 Alpha virt. eigenvalues --    1.68096   1.69143   1.69235   1.69899   1.70053
 Alpha virt. eigenvalues --    1.70598   1.70895   1.71585   1.72672   1.73104
 Alpha virt. eigenvalues --    1.73882   1.74384   1.74492   1.74725   1.74945
 Alpha virt. eigenvalues --    1.75156   1.75582   1.76327   1.76934   1.77136
 Alpha virt. eigenvalues --    1.77525   1.78159   1.78594   1.78777   1.79338
 Alpha virt. eigenvalues --    1.79769   1.80276   1.80475   1.80659   1.81191
 Alpha virt. eigenvalues --    1.81538   1.82286   1.82793   1.83153   1.83472
 Alpha virt. eigenvalues --    1.84092   1.84398   1.84866   1.85264   1.85708
 Alpha virt. eigenvalues --    1.86173   1.86212   1.86719   1.87023   1.87790
 Alpha virt. eigenvalues --    1.88349   1.88967   1.89116   1.90061   1.91000
 Alpha virt. eigenvalues --    1.91130   1.91941   1.92057   1.92112   1.92672
 Alpha virt. eigenvalues --    1.92999   1.93329   1.94036   1.94198   1.94595
 Alpha virt. eigenvalues --    1.94677   1.95053   1.95200   1.95740   1.96154
 Alpha virt. eigenvalues --    1.97197   1.97462   1.97702   1.98820   1.99383
 Alpha virt. eigenvalues --    1.99721   2.00538   2.00952   2.01532   2.01889
 Alpha virt. eigenvalues --    2.02998   2.03970   2.04268   2.04449   2.05190
 Alpha virt. eigenvalues --    2.05475   2.06291   2.06941   2.07573   2.08214
 Alpha virt. eigenvalues --    2.08949   2.10160   2.11182   2.11621   2.12263
 Alpha virt. eigenvalues --    2.12695   2.13427   2.13642   2.14272   2.15591
 Alpha virt. eigenvalues --    2.16358   2.17339   2.17568   2.18447   2.18872
 Alpha virt. eigenvalues --    2.19298   2.19888   2.20304   2.20816   2.21739
 Alpha virt. eigenvalues --    2.22094   2.22819   2.23055   2.23358   2.24479
 Alpha virt. eigenvalues --    2.25082   2.25404   2.25757   2.26372   2.27035
 Alpha virt. eigenvalues --    2.27834   2.28435   2.29861   2.29885   2.30439
 Alpha virt. eigenvalues --    2.31103   2.31396   2.31948   2.33317   2.33603
 Alpha virt. eigenvalues --    2.33863   2.34656   2.35089   2.35364   2.36034
 Alpha virt. eigenvalues --    2.37055   2.37386   2.38254   2.38694   2.39120
 Alpha virt. eigenvalues --    2.39397   2.40932   2.41121   2.41916   2.42652
 Alpha virt. eigenvalues --    2.43302   2.43950   2.45014   2.46350   2.46881
 Alpha virt. eigenvalues --    2.48001   2.49361   2.49938   2.50672   2.50949
 Alpha virt. eigenvalues --    2.52125   2.52277   2.53300   2.53641   2.53957
 Alpha virt. eigenvalues --    2.54877   2.56183   2.57045   2.57128   2.58661
 Alpha virt. eigenvalues --    2.59390   2.59878   2.60520   2.60877   2.61324
 Alpha virt. eigenvalues --    2.62558   2.63031   2.63582   2.64472   2.65516
 Alpha virt. eigenvalues --    2.68238   2.68857   2.70788   2.71099   2.71436
 Alpha virt. eigenvalues --    2.72112   2.72998   2.73346   2.73790   2.75975
 Alpha virt. eigenvalues --    2.77258   2.78100   2.78974   2.81231   2.82311
 Alpha virt. eigenvalues --    2.82694   2.82976   2.83592   2.85644   2.85726
 Alpha virt. eigenvalues --    2.88409   2.89623   2.91287   2.91795   2.93302
 Alpha virt. eigenvalues --    2.94308   2.96934   2.97481   2.98425   3.00018
 Alpha virt. eigenvalues --    3.01767   3.05583   3.07914   3.09039   3.09585
 Alpha virt. eigenvalues --    3.12779   3.72823   3.72933   3.76975   3.77499
 Alpha virt. eigenvalues --    3.80673   3.86665   3.89281   3.89823   3.93598
 Alpha virt. eigenvalues --    3.95440   3.96565   3.98298   4.00052   4.00182
 Alpha virt. eigenvalues --    4.04160   4.06772   4.07332   4.09201   4.11613
 Alpha virt. eigenvalues --    4.12952   4.13224   4.14272   4.15486   4.18516
 Alpha virt. eigenvalues --    4.20047   4.20774   4.21802   4.25908   4.26550
 Alpha virt. eigenvalues --    4.27805   4.28853   4.31134   4.32228   4.32571
 Alpha virt. eigenvalues --    4.33518   4.35338   4.40571   4.42821   4.45965
 Alpha virt. eigenvalues --    4.47100   4.48607   4.51174   4.52501   4.56481
 Alpha virt. eigenvalues --    4.56554   4.57680   4.58533   4.64193
          Condensed to atoms (all electrons):
 Mulliken charges:
               1
     1  N   -0.699270
     2  H    0.314036
     3  H    0.306737
     4  C   -0.078854
     5  H    0.166332
     6  C    0.572905
     7  C   -0.375864
     8  H    0.195321
     9  H    0.177611
    10  O   -0.535011
    11  C    0.605137
    12  N   -0.740848
    13  H    0.344497
    14  H    0.347173
    15  O   -0.523047
    16  N   -0.636889
    17  H    0.391525
    18  C   -0.032266
    19  H    0.172966
    20  C    0.624974
    21  C   -0.083292
    22  H    0.171888
    23  O   -0.571852
    24  C   -0.281954
    25  H    0.134368
    26  H    0.152482
    27  C   -0.470976
    28  H    0.137606
    29  H    0.154189
    30  H    0.162225
    31  C   -0.457733
    32  H    0.160113
    33  H    0.123249
    34  H    0.175410
    35  N   -0.609332
    36  H    0.359829
    37  C   -0.049758
    38  H    0.178137
    39  C    0.622918
    40  C   -0.482452
    41  H    0.178911
    42  H    0.164380
    43  H    0.189854
    44  O   -0.507331
    45  N   -0.613531
    46  H    0.377207
    47  C   -0.098701
    48  H    0.208716
    49  C    0.670166
    50  C    0.128216
    51  H    0.144441
    52  O   -0.562228
    53  C   -0.478277
    54  H    0.171292
    55  H    0.184168
    56  H    0.168876
    57  O   -0.646049
    58  H    0.441828
    59  N   -0.595523
    60  H    0.392502
    61  C   -0.094912
    62  H    0.219204
    63  C    0.594330
    64  C   -0.045554
    65  H    0.201480
    66  H    0.156755
    67  O   -0.498903
    68  O   -0.707569
    69  H    0.482289
    70  N   -0.567427
    71  H    0.358149
    72  C   -0.254484
    73  H    0.209222
    74  H    0.214665
    75  C    0.611714
    76  O   -0.529586
    77  N   -0.599874
    78  H    0.362658
    79  C   -0.046389
    80  H    0.208377
    81  C    0.586924
    82  C   -0.271615
    83  H    0.151247
    84  H    0.175752
    85  O   -0.457645
    86  C   -0.266065
    87  H    0.170886
    88  H    0.133734
    89  C   -0.283991
    90  H    0.165890
    91  H    0.140448
    92  C   -0.139332
    93  H    0.162582
    94  H    0.172900
    95  N   -0.793405
    96  H    0.343746
    97  H    0.332085
    98  O   -0.555985
    99  H    0.431983
   100  H    0.484572
 Sum of Mulliken charges =   1.00000
 Mulliken charges with hydrogens summed into heavy atoms:
               1
     1  N   -0.078497
     4  C    0.087478
     6  C    0.572905
     7  C   -0.002932
    10  O   -0.535011
    11  C    0.605137
    12  N   -0.049177
    15  O   -0.523047
    16  N   -0.245365
    18  C    0.140699
    20  C    0.624974
    21  C    0.088596
    23  O   -0.571852
    24  C    0.004896
    27  C   -0.016956
    31  C    0.001039
    35  N   -0.249503
    37  C    0.128379
    39  C    0.622918
    40  C    0.050693
    44  O   -0.507331
    45  N   -0.236324
    47  C    0.110015
    49  C    0.670166
    50  C    0.272657
    52  O   -0.077656
    53  C    0.046058
    57  O   -0.204221
    59  N   -0.203021
    61  C    0.124292
    63  C    0.594330
    64  C    0.312682
    67  O   -0.498903
    68  O   -0.225280
    70  N   -0.209279
    72  C    0.169402
    75  C    0.611714
    76  O   -0.529586
    77  N   -0.237216
    79  C    0.161987
    81  C    0.586924
    82  C    0.055384
    85  O   -0.457645
    86  C    0.038554
    89  C    0.022346
    92  C    0.196150
    95  N   -0.117574
    98  O   -0.124002
 Electronic spatial extent (au):  <R**2>=          57741.3638
 Charge=              1.0000 electrons
 Dipole moment (field-independent basis, Debye):
    X=             10.7038    Y=             -2.0257    Z=            -19.2471  Tot=             22.1162
 Quadrupole moment (field-independent basis, Debye-Ang):
   XX=           -166.9717   YY=           -252.4577   ZZ=           -140.4907
   XY=            -58.0220   XZ=            -73.2966   YZ=             26.7420
 Traceless Quadrupole moment (field-independent basis, Debye-Ang):
   XX=             19.6684   YY=            -65.8177   ZZ=             46.1493
   XY=            -58.0220   XZ=            -73.2966   YZ=             26.7420
 Octapole moment (field-independent basis, Debye-Ang**2):
  XXX=           -201.4433  YYY=            246.6119  ZZZ=            108.5534  XYY=            -77.7405
  XXY=           -207.6413  XXZ=           -457.4415  XZZ=            424.6300  YZZ=            -91.5844
  YYZ=            260.4223  XYZ=            261.0824
 Hexadecapole moment (field-independent basis, Debye-Ang**3):
 XXXX=         -31279.4454 YYYY=          -9463.7162 ZZZZ=         -18034.1417 XXXY=           3481.7995
 XXXZ=           7701.9575 YYYX=           5645.3987 YYYZ=          -5151.2323 ZZZX=           6181.0726
 ZZZY=          -3872.9578 XXYY=          -6682.3581 XXZZ=          -5261.6994 YYZZ=          -5387.9283
 XXYZ=             91.1342 YYXZ=           2976.0670 ZZXY=            505.8742
 N-N= 6.505580876422D+03 E-N=-1.862049832796D+04  KE= 2.396369279061D+03
 Unable to Open any file for archive entry.
 1\1\GINC-AMR-135\SP\RB3LYP\6-31G(d)\C28H52N9O11(1+)\KENGMITH\06-Jun-20
 22\0\\# B3LYP/6-31G* empiricaldispersion=gd3 guess=read geom=check nos
 ymm integral(ultrafinegrid)\\Candidate Structure: Conf:669 Charge calc
  in gas phase\\1,1\N,0,-7.9479320437,-0.0291885574,2.86229859\H,0,-8.1
 825915245,0.9130923281,3.1798126978\H,0,-7.6692330462,-0.5181473343,3.
 7124131885\C,0,-6.7874892649,0.0794431495,1.9823723852\H,0,-6.33768871
 91,-0.9129656025,1.8718771499\C,0,-5.7233550294,1.0517268734,2.5463160
 068\C,0,-7.2603445547,0.534410302,0.5878914518\H,0,-8.2306787283,0.055
 4199708,0.4076181735\H,0,-7.4421164635,1.6178210127,0.5741231491\O,0,-
 6.01776804,1.8935789821,3.3949711979\C,0,-6.3104854044,0.1649402722,-0
 .5473889921\N,0,-6.7544769418,0.4966191995,-1.7927900911\H,0,-6.219889
 1304,0.1679267595,-2.5852202537\H,0,-7.7062869864,0.7925988615,-1.9542
 655736\O,0,-5.2225839262,-0.3837769858,-0.3788903362\N,0,-4.4665605022
 ,0.9181498697,2.0494475998\H,0,-4.3032061951,0.278758581,1.2733187846\
 C,0,-3.4041626222,1.8000718478,2.5013450325\H,0,-3.8532713305,2.785338
 1996,2.6625952747\C,0,-2.3685817895,1.8926276488,1.3814885287\C,0,-2.8
 133369173,1.3319661803,3.868322545\H,0,-3.6900593312,1.3228850249,4.52
 84068149\O,0,-2.1028045938,0.9195199766,0.6567916038\C,0,-1.7983290391
 ,2.3276867991,4.4611121039\H,0,-0.9330357842,2.430757271,3.7925613735\
 H,0,-1.4051843708,1.8873953298,5.386129525\C,0,-2.2552166733,-0.094168
 1984,3.8012705157\H,0,-1.3645706617,-0.1667312146,3.1711621289\H,0,-1.
 9778072001,-0.4382639655,4.8035974777\H,0,-3.0007421342,-0.7881333412,
 3.4017999122\C,0,-2.3700766752,3.7137034043,4.7886403715\H,0,-1.630771
 8131,4.3264832112,5.3147935674\H,0,-2.6742610716,4.2752046793,3.895412
 4334\H,0,-3.2583376475,3.6309313908,5.4246546533\N,0,-1.7709421473,3.0
 977461067,1.2179903509\H,0,-2.0323406094,3.8463111744,1.8466179649\C,0
 ,-0.9504171328,3.4702151855,0.0530411685\H,0,-1.4668336237,3.090907361
 3,-0.8374595033\C,0,0.4448626005,2.8039875276,0.1283055841\C,0,-0.8165
 075029,4.98739095,-0.0116273771\H,0,-0.2655154014,5.2776145924,-0.9098
 472731\H,0,-1.8034781672,5.4597449545,-0.042151813\H,0,-0.2542405837,5
 .3555771816,0.8513066186\O,0,1.4363234682,3.3728920537,0.5596150452\N,
 0,0.446606257,1.5184232308,-0.346533907\H,0,-0.4721553269,1.087283067,
 -0.4394010181\C,0,1.5459604168,0.630596936,-0.0630582588\H,0,2.4456695
 296,1.2413301181,0.0745012955\C,0,1.7538007148,-0.328185599,-1.2100677
 577\C,0,1.2921289282,-0.2145810449,1.2403943161\H,0,2.12647791,-0.9197
 726742,1.3436282296\O,0,0.8019189024,-0.4771439955,-2.0594327488\C,0,1
 .2419494295,0.6769082286,2.4769795313\H,0,2.1610783102,1.260058965,2.5
 873812876\H,0,1.1019239463,0.051515579,3.3625838924\H,0,0.4069817006,1
 .3786059326,2.4186251922\O,0,0.1444648043,-1.0187534364,1.0652425908\H
 ,0,-0.6598135266,-0.4635464718,1.097301051\N,0,2.8745405265,-1.0224899
 306,-1.2588755198\H,0,3.6556284338,-0.7641870259,-0.6516176641\C,0,3.1
 601836389,-2.2207313873,-2.0552519898\H,0,2.4356947948,-3.0042962118,-
 1.8015963795\C,0,4.6122167587,-2.6169463226,-1.7005498352\C,0,3.142865
 6528,-1.9706433082,-3.570472769\H,0,3.4972280965,-2.8684083366,-4.0860
 991829\H,0,3.8394149238,-1.1480152495,-3.7878530294\O,0,5.3486835539,-
 1.7968168618,-1.1645600339\O,0,1.8279508581,-1.6576130923,-4.011628746
 9\H,0,1.9349776452,-1.2115696576,-4.9359033813\N,0,4.9921848619,-3.845
 240955,-2.1322796128\H,0,4.2997386007,-4.3916473872,-2.6377608125\C,0,
 6.3315815842,-4.0469268651,-2.6847714354\H,0,6.9868773117,-3.256648082
 7,-2.3139371085\H,0,6.7324140396,-5.0149977242,-2.3672178346\C,0,6.161
 5182236,-4.0429790523,-4.217473875\O,0,5.1513356467,-4.5501981944,-4.7
 1055525\N,0,7.1170370441,-3.4277313266,-4.9437791374\H,0,7.9844649818,
 -3.1275787435,-4.5094587361\C,0,7.1366281175,-3.4924829452,-6.40234338
 71\H,0,6.6620227786,-4.4303995787,-6.7101110459\C,0,8.6030601254,-3.51
 87823431,-6.8234575277\C,0,6.4076694718,-2.3190054129,-7.1027588234\H,
 0,6.911202017,-1.3790661758,-6.8395086227\H,0,6.5456000557,-2.46156936
 95,-8.1810380816\O,0,9.5299196361,-3.2867949042,-6.0775279091\C,0,4.90
 75627933,-2.2206898901,-6.7822870301\H,0,4.4480996369,-3.2123589577,-6
 .8639575531\H,0,4.7848238059,-1.9115789497,-5.740552427\C,0,4.19043226
 79,-1.240830966,-7.7222302101\H,0,4.392296419,-1.5430999859,-8.7581525
 418\H,0,4.6179999034,-0.2312517497,-7.6214466956\C,0,2.6648265539,-1.1
 619326062,-7.5807356144\H,0,2.2608404928,-0.6727793896,-8.4763139399\H
 ,0,2.2366354882,-2.1696616955,-7.5392745611\N,0,2.2069299349,-0.430660
 0876,-6.3602759985\H,0,1.2622927788,-0.0824660759,-6.5328880665\H,0,2.
 7785830044,0.4075104787,-6.2398777338\O,0,8.7338663675,-3.7992544414,-
 8.1298708613\H,0,9.6870571644,-3.7776927905,-8.3423204053\H,0,1.104896
 9382,-1.0017405673,-2.9167062619\\Version=ES64L-G16RevC.01\HF=-2418.57
 59817\RMSD=6.990e-09\Dipole=2.7909353,-0.1429059,-5.171455\Quadrupole=
 14.6229382,-48.9338159,34.3108777,-43.1379153,-54.4942093,19.8820199\P
 G=C01 [X(C28H52N9O11)]\\@
 The archive entry for this job was punched.


 CONFIDENCE: THAT QUIET ASSURED FEELING YOU HAVE
 JUST BEFORE YOU FALL FLAT ON YOUR FACE.
 Job cpu time:       0 days  0 hours  3 minutes 47.4 seconds.
 Elapsed time:       0 days  0 hours  0 minutes 58.1 seconds.
 File lengths (MBytes):  RWF=    472 Int=      0 D2E=      0 Chk=     72 Scr=     16
 Normal termination of Gaussian 16 at Mon Jun  6 06:22:17 2022.
