 Entering Gaussian System, Link 0=/opt/software/Gaussian/g16-AVX2-C.01/g16/g16
 Input=charge-conf-234.com
 Output=charge-conf-234.log
 Initial command:
 /opt/software/Gaussian/g16-AVX2-C.01/g16/l1.exe "/mnt/gs18/scratch/users/kengmith/Gau-35721.inp" -scrdir="/mnt/gs18/scratch/users/kengmith/"
 Entering Link 1 = /opt/software/Gaussian/g16-AVX2-C.01/g16/l1.exe PID=     35731.
  
 Copyright (c) 1988-2019, Gaussian, Inc.  All Rights Reserved.
  
 This is part of the Gaussian(R) 16 program.  It is based on
 the Gaussian(R) 09 system (copyright 2009, Gaussian, Inc.),
 the Gaussian(R) 03 system (copyright 2003, Gaussian, Inc.),
 the Gaussian(R) 98 system (copyright 1998, Gaussian, Inc.),
 the Gaussian(R) 94 system (copyright 1995, Gaussian, Inc.),
 the Gaussian 92(TM) system (copyright 1992, Gaussian, Inc.),
 the Gaussian 90(TM) system (copyright 1990, Gaussian, Inc.),
 the Gaussian 88(TM) system (copyright 1988, Gaussian, Inc.),
 the Gaussian 86(TM) system (copyright 1986, Carnegie Mellon
 University), and the Gaussian 82(TM) system (copyright 1983,
 Carnegie Mellon University). Gaussian is a federally registered
 trademark of Gaussian, Inc.
  
 This software contains proprietary and confidential information,
 including trade secrets, belonging to Gaussian, Inc.
  
 This software is provided under written license and may be
 used, copied, transmitted, or stored only in accord with that
 written license.
  
 The following legend is applicable only to US Government
 contracts under FAR:
  
                    RESTRICTED RIGHTS LEGEND
  
 Use, reproduction and disclosure by the US Government is
 subject to restrictions as set forth in subparagraphs (a)
 and (c) of the Commercial Computer Software - Restricted
 Rights clause in FAR 52.227-19.
  
 Gaussian, Inc.
 340 Quinnipiac St., Bldg. 40, Wallingford CT 06492
  
  
 ---------------------------------------------------------------
 Warning -- This program may not be used in any manner that
 competes with the business of Gaussian, Inc. or will provide
 assistance to any competitor of Gaussian, Inc.  The licensee
 of this program is prohibited from giving any competitor of
 Gaussian, Inc. access to this program.  By using this program,
 the user acknowledges that Gaussian, Inc. is engaged in the
 business of creating and licensing software in the field of
 computational chemistry and represents and warrants to the
 licensee that it is not a competitor of Gaussian, Inc. and that
 it will not use this program in any manner prohibited above.
 ---------------------------------------------------------------
  

 Cite this work as:
 Gaussian 16, Revision C.01,
 M. J. Frisch, G. W. Trucks, H. B. Schlegel, G. E. Scuseria, 
 M. A. Robb, J. R. Cheeseman, G. Scalmani, V. Barone, 
 G. A. Petersson, H. Nakatsuji, X. Li, M. Caricato, A. V. Marenich, 
 J. Bloino, B. G. Janesko, R. Gomperts, B. Mennucci, H. P. Hratchian, 
 J. V. Ortiz, A. F. Izmaylov, J. L. Sonnenberg, D. Williams-Young, 
 F. Ding, F. Lipparini, F. Egidi, J. Goings, B. Peng, A. Petrone, 
 T. Henderson, D. Ranasinghe, V. G. Zakrzewski, J. Gao, N. Rega, 
 G. Zheng, W. Liang, M. Hada, M. Ehara, K. Toyota, R. Fukuda, 
 J. Hasegawa, M. Ishida, T. Nakajima, Y. Honda, O. Kitao, H. Nakai, 
 T. Vreven, K. Throssell, J. A. Montgomery, Jr., J. E. Peralta, 
 F. Ogliaro, M. J. Bearpark, J. J. Heyd, E. N. Brothers, K. N. Kudin, 
 V. N. Staroverov, T. A. Keith, R. Kobayashi, J. Normand, 
 K. Raghavachari, A. P. Rendell, J. C. Burant, S. S. Iyengar, 
 J. Tomasi, M. Cossi, J. M. Millam, M. Klene, C. Adamo, R. Cammi, 
 J. W. Ochterski, R. L. Martin, K. Morokuma, O. Farkas, 
 J. B. Foresman, and D. J. Fox, Gaussian, Inc., Wallingford CT, 2019.
 
 ******************************************
 Gaussian 16:  ES64L-G16RevC.01  3-Jul-2019
                19-Jun-2022 
 ******************************************
 %mem=8gb
 %nproc=4
 Will use up to    4 processors via shared memory.
 %chk=conf-234.chk
 ----------------------------------------------------------------------
 # B3LYP/6-31G* empiricaldispersion=gd3 guess=read geom=check nosymm in
 tegral(ultrafinegrid)
 ----------------------------------------------------------------------
 1/29=2,38=1,172=1/1;
 2/12=2,15=1,40=1/2;
 3/5=1,6=6,7=1,11=2,14=-4,25=1,30=1,74=-5,75=-5,116=-2,124=31/1,2,3;
 4/5=1/1;
 5/5=2,38=6/2;
 6/7=2,8=2,9=2,10=2,28=1/1;
 99/5=1,9=1/99;
 ------------------------------------------------------
 Candidate Structure: Conf:234 Charge calc in gas phase
 ------------------------------------------------------
 Structure from the checkpoint file:  "conf-234.chk"
 Charge =  1 Multiplicity = 1
 Redundant internal coordinates found in file.  (old form).
 N,0,-5.1504336451,-5.4389647154,-6.4658259812
 H,0,-5.4850126141,-6.4068391139,-6.4880210245
 H,0,-5.8859255256,-4.8523859548,-6.010582728
 H,0,-4.9472595382,-5.1270761795,-7.4354148657
 C,0,-3.9320147348,-5.2505857273,-5.6013332274
 H,0,-3.358096414,-6.1797094017,-5.6039014329
 C,0,-4.4822519439,-4.8581845237,-4.2171798868
 C,0,-3.0938173189,-4.060313295,-6.1646345213
 H,0,-2.2030217913,-3.9477994744,-5.5362202685
 H,0,-3.6751469728,-3.1412761907,-6.025278045
 O,0,-5.6127022884,-4.3780150964,-4.1619877957
 C,0,-2.7834637998,-4.2253682542,-7.6125104565
 C,0,-3.4890191863,-3.8225084051,-8.7327874088
 H,0,-4.346954904,-3.1601154379,-8.7691999795
 N,0,-1.74259571,-4.9866136115,-8.114084323
 H,0,-0.9732238162,-5.3742838669,-7.5837498778
 C,0,-1.8536656392,-4.9767967223,-9.4799282106
 H,0,-1.1411478744,-5.4799961651,-10.1199105283
 N,0,-2.9021533501,-4.2955665084,-9.882231807
 N,0,-3.6196440215,-4.9995039535,-3.1887283693
 H,0,-2.657443713,-5.2092341245,-3.4496582714
 C,0,-3.6421947359,-4.054532791,-2.0556742997
 H,0,-4.6658637517,-3.693331435,-1.938954406
 C,0,-2.6556092752,-2.9444074605,-2.4470906942
 C,0,-3.2163469656,-4.7834867332,-0.7575011262
 H,0,-2.2200390855,-5.2235769094,-0.9365714443
 O,0,-1.6383798895,-3.2482574225,-3.0927824478
 C,0,-3.1361291821,-3.8389238209,0.4345094863
 H,0,-2.3481127636,-3.0918260994,0.3014368612
 H,0,-2.9177615955,-4.4210649294,1.3331112131
 H,0,-4.0955608851,-3.3318752142,0.5895259085
 O,0,-4.1694186319,-5.7811066882,-0.4433150736
 H,0,-4.177432645,-6.4343823879,-1.1608019342
 N,0,-2.9538553328,-1.6948989522,-2.0683653538
 H,0,-3.7701059749,-1.5331633378,-1.491561446
 C,0,-2.0660578116,-0.551818062,-2.3323638341
 H,0,-1.4683525668,-0.8325322959,-3.2032865586
 C,0,-1.1051305204,-0.3792437106,-1.1344549781
 C,0,-2.8617073496,0.7135066662,-2.6369202277
 H,0,-2.1355332705,1.4706223966,-2.9511050133
 H,0,-3.3041450402,1.0934816957,-1.7083343226
 O,0,-1.1551876102,0.59671657,-0.3906739078
 C,0,-3.956518243,0.5440338831,-3.7119296675
 H,0,-4.7779387984,-0.042659243,-3.2721588048
 C,0,-4.5137157552,1.9241176023,-4.0881790397
 H,0,-3.7340775094,2.5253396354,-4.5726290568
 H,0,-4.8586357366,2.4732891826,-3.2048827554
 H,0,-5.3552874797,1.8384308426,-4.7848662515
 C,0,-3.4753525051,-0.1994877308,-4.9693797224
 H,0,-2.6511345962,0.3352175538,-5.4524201735
 H,0,-4.2942700062,-0.2787959829,-5.6960184538
 H,0,-3.1330639433,-1.2155890747,-4.7381252167
 N,0,-0.2524731642,-1.42301664,-0.9646584069
 H,0,-0.1849056531,-2.115258586,-1.7032130834
 C,0,0.7586115995,-1.4606263347,0.1015608458
 H,0,0.3205125417,-0.9754498518,0.9773950788
 C,0,1.9836026696,-0.6381596805,-0.3437356231
 C,0,1.1446287311,-2.8953390578,0.4300631151
 H,0,1.8448294572,-2.884792299,1.267296055
 H,0,1.6448441791,-3.3682800372,-0.4207474695
 H,0,0.2581016967,-3.4758111872,0.7082396609
 O,0,3.0352449109,-1.1615862989,-0.7113404245
 N,0,1.7731052102,0.6984211438,-0.3543582427
 H,0,0.8760407077,1.0551504853,-0.0400948568
 C,0,2.7974388522,1.6421327887,-0.786512716
 H,0,3.4417597434,1.1095401042,-1.4930857354
 C,0,3.6331677997,2.0220246761,0.4533968105
 C,0,2.1655347917,2.8698970586,-1.4361538233
 H,0,1.6193403142,3.4262695059,-0.665452088
 H,0,2.980349806,3.5384010803,-1.7428848016
 O,0,3.5028025506,3.0946047645,1.0368191282
 C,0,1.258806773,2.5890416733,-2.6211180929
 C,0,1.2879857711,1.3947264891,-3.3565167165
 H,0,1.9502170755,0.5868138692,-3.0612724834
 C,0,0.3711123469,3.5875872362,-3.0420400245
 H,0,0.3145225241,4.518707428,-2.4833996413
 C,0,0.4808982091,1.2129798875,-4.480641313
 H,0,0.5227007954,0.2940353923,-5.0579780073
 C,0,-0.4361775145,3.4261305503,-4.1670692477
 H,0,-1.1102139695,4.2230404761,-4.4760212978
 O,0,-1.1342906843,2.0140205879,-6.0205294759
 H,0,-1.6272323521,2.8214368451,-6.2350777081
 C,0,-0.3713752091,2.2374604729,-4.8986113695
 N,0,4.4689262052,1.0359601704,0.8752006668
 H,0,4.4373967825,0.1151725958,0.4386824494
 C,0,5.0833557198,1.1110805737,2.1823833002
 H,0,5.5205760471,2.1072365037,2.302931436
 C,0,6.1502459628,0.0128893176,2.2754566956
 C,0,4.0382424857,0.9352823901,3.3299683254
 H,0,3.2676021837,1.6957969126,3.1893441965
 H,0,4.5303746632,1.0830852754,4.2948462841
 O,0,6.028932362,-1.0373613216,1.6479008962
 C,0,3.4014598199,-0.4329691604,3.2792172949
 O,0,2.4644306436,-0.749050754,2.5723440433
 O,0,4.0243457607,-1.3048524973,4.1006478533
 N,0,7.1569905443,0.2584242894,3.1412465992
 H,0,7.2593782436,1.15508518,3.602730237
 C,0,8.1714393063,-0.7333876311,3.4549285766
 H,0,7.6934007111,-1.7122352044,3.5359630488
 C,0,8.8134255518,-0.3701214629,4.78210201
 C,0,9.2746495088,-0.7921469154,2.3474053497
 H,0,9.4243062336,0.2320357603,1.9841801136
 H,0,8.8422572296,-1.3591413353,1.5176110172
 O,0,9.3041540231,-1.4370120262,5.3991203332
 C,0,10.634739767,-1.3865451905,2.7774299482
 H,0,10.4675556773,-2.2119412838,3.475815778
 H,0,11.1156087037,-1.825037759,1.895532486
 C,0,11.6023513198,-0.3370813371,3.3972900757
 H,0,12.2845306702,0.0105457126,2.612616863
 H,0,11.0457965406,0.5541818925,3.7113789979
 C,0,12.4538431325,-0.811311218,4.5913047574
 H,0,13.4133483477,-0.2746978595,4.5933247181
 H,0,12.6839900289,-1.8786662491,4.4964871738
 N,0,11.7505544322,-0.6203008876,5.8873293178
 H,0,12.3235818966,-0.9652965493,6.6562269035
 H,0,10.1927218503,-1.1632134013,5.8427172923
 H,0,11.6017343521,0.3758803654,6.0525681043
 O,0,8.9568266324,0.7880137817,5.1465352176
 H,0,3.6240782185,-2.1805157545,3.9436233343
 Recover connectivity data from disk.
                           ----------------------------
                           !    Current Parameters    !
                           ! (Angstroms and Degrees)  !
 --------------------------                            --------------------------
 ! Name  Definition              Value                                          !
 --------------------------------------------------------------------------------
 ! R1    R(1,2)                  1.0243                                         !
 ! R2    R(1,3)                  1.0451                                         !
 ! R3    R(1,4)                  1.0386                                         !
 ! R4    R(1,5)                  1.5058                                         !
 ! R5    R(5,6)                  1.0921                                         !
 ! R6    R(5,7)                  1.5403                                         !
 ! R7    R(5,8)                  1.561                                          !
 ! R8    R(7,11)                 1.2294                                         !
 ! R9    R(7,20)                 1.3497                                         !
 ! R10   R(8,9)                  1.0959                                         !
 ! R11   R(8,10)                 1.0964                                         !
 ! R12   R(8,12)                 1.4899                                         !
 ! R13   R(12,13)                1.3839                                         !
 ! R14   R(12,15)                1.3836                                         !
 ! R15   R(13,14)                1.0845                                         !
 ! R16   R(13,19)                1.3746                                         !
 ! R17   R(15,16)                1.0117                                         !
 ! R18   R(15,17)                1.3704                                         !
 ! R19   R(17,18)                1.0819                                         !
 ! R20   R(17,19)                1.3135                                         !
 ! R21   R(20,21)                1.0188                                         !
 ! R22   R(20,22)                1.4756                                         !
 ! R23   R(22,23)                1.0918                                         !
 ! R24   R(22,24)                1.5359                                         !
 ! R25   R(22,25)                1.5485                                         !
 ! R26   R(24,27)                1.2426                                         !
 ! R27   R(24,34)                1.3393                                         !
 ! R28   R(25,26)                1.1038                                         !
 ! R29   R(25,28)                1.523                                          !
 ! R30   R(25,32)                1.415                                          !
 ! R31   R(28,29)                1.094                                          !
 ! R32   R(28,30)                1.0927                                         !
 ! R33   R(28,31)                1.0962                                         !
 ! R34   R(32,33)                0.9704                                         !
 ! R35   R(34,35)                1.0125                                         !
 ! R36   R(34,36)                1.4712                                         !
 ! R37   R(36,37)                1.093                                          !
 ! R38   R(36,38)                1.5454                                         !
 ! R39   R(36,39)                1.5254                                         !
 ! R40   R(38,42)                1.2281                                         !
 ! R41   R(38,53)                1.3584                                         !
 ! R42   R(39,40)                1.0951                                         !
 ! R43   R(39,41)                1.0965                                         !
 ! R44   R(39,43)                1.5437                                         !
 ! R45   R(43,44)                1.1011                                         !
 ! R46   R(43,45)                1.5351                                         !
 ! R47   R(43,49)                1.538                                          !
 ! R48   R(45,46)                1.0973                                         !
 ! R49   R(45,47)                1.0958                                         !
 ! R50   R(45,48)                1.0959                                         !
 ! R51   R(49,50)                1.0948                                         !
 ! R52   R(49,51)                1.0977                                         !
 ! R53   R(49,52)                1.0969                                         !
 ! R54   R(53,54)                1.0145                                         !
 ! R55   R(53,55)                1.4699                                         !
 ! R56   R(55,56)                1.0929                                         !
 ! R57   R(55,57)                1.5412                                         !
 ! R58   R(55,58)                1.5216                                         !
 ! R59   R(57,62)                1.2309                                         !
 ! R60   R(57,63)                1.3531                                         !
 ! R61   R(58,59)                1.0915                                         !
 ! R62   R(58,60)                1.0944                                         !
 ! R63   R(58,61)                1.0956                                         !
 ! R64   R(63,64)                1.0153                                         !
 ! R65   R(63,65)                1.4583                                         !
 ! R66   R(65,66)                1.0946                                         !
 ! R67   R(65,67)                1.5428                                         !
 ! R68   R(65,68)                1.526                                          !
 ! R69   R(67,71)                1.2279                                         !
 ! R70   R(67,84)                1.3597                                         !
 ! R71   R(68,69)                1.0963                                         !
 ! R72   R(68,70)                1.0977                                         !
 ! R73   R(68,72)                1.5183                                         !
 ! R74   R(72,73)                1.4029                                         !
 ! R75   R(72,75)                1.4008                                         !
 ! R76   R(73,74)                1.0856                                         !
 ! R77   R(73,77)                1.3957                                         !
 ! R78   R(75,76)                1.0873                                         !
 ! R79   R(75,79)                1.3941                                         !
 ! R80   R(77,78)                1.0861                                         !
 ! R81   R(77,83)                1.3966                                         !
 ! R82   R(79,80)                1.0885                                         !
 ! R83   R(79,83)                1.3972                                         !
 ! R84   R(81,82)                0.97                                           !
 ! R85   R(81,83)                1.375                                          !
 ! R86   R(84,85)                1.0195                                         !
 ! R87   R(84,86)                1.4463                                         !
 ! R88   R(86,87)                1.0945                                         !
 ! R89   R(86,88)                1.5339                                         !
 ! R90   R(86,89)                1.5621                                         !
 ! R91   R(88,92)                1.2295                                         !
 ! R92   R(88,96)                1.3503                                         !
 ! R93   R(89,90)                1.0918                                         !
 ! R94   R(89,91)                1.0932                                         !
 ! R95   R(89,93)                1.51                                           !
 ! R96   R(93,94)                1.2156                                         !
 ! R97   R(93,95)                1.3502                                         !
 ! R98   R(95,119)               0.9755                                         !
 ! R99   R(96,97)                1.0136                                         !
 ! R100  R(96,98)                1.453                                          !
 ! R101  R(98,99)                1.0924                                         !
 ! R102  R(98,100)               1.5184                                         !
 ! R103  R(98,101)               1.5643                                         !
 ! R104  R(100,104)              1.3266                                         !
 ! R105  R(100,118)              1.2226                                         !
 ! R106  R(101,102)              1.0969                                         !
 ! R107  R(101,103)              1.0941                                         !
 ! R108  R(101,105)              1.5453                                         !
 ! R109  R(105,106)              1.0941                                         !
 ! R110  R(105,107)              1.096                                          !
 ! R111  R(105,108)              1.5562                                         !
 ! R112  R(108,109)              1.0963                                         !
 ! R113  R(108,110)              1.0967                                         !
 ! R114  R(108,111)              1.5413                                         !
 ! R115  R(111,112)              1.0994                                         !
 ! R116  R(111,113)              1.096                                          !
 ! R117  R(111,114)              1.4869                                         !
 ! R118  R(114,115)              1.0191                                         !
 ! R119  R(114,116)              1.6503                                         !
 ! R120  R(114,117)              1.0207                                         !
 ! A1    A(2,1,3)              108.0533                                         !
 ! A2    A(2,1,4)              109.1126                                         !
 ! A3    A(2,1,5)              113.263                                          !
 ! A4    A(3,1,4)              112.0724                                         !
 ! A5    A(3,1,5)              104.4269                                         !
 ! A6    A(4,1,5)              109.8838                                         !
 ! A7    A(1,5,6)              108.5086                                         !
 ! A8    A(1,5,7)              104.9945                                         !
 ! A9    A(1,5,8)              108.827                                          !
 ! A10   A(6,5,7)              113.99                                           !
 ! A11   A(6,5,8)              111.4503                                         !
 ! A12   A(7,5,8)              108.7743                                         !
 ! A13   A(5,7,11)             117.9236                                         !
 ! A14   A(5,7,20)             115.451                                          !
 ! A15   A(11,7,20)            126.4644                                         !
 ! A16   A(5,8,9)              107.928                                          !
 ! A17   A(5,8,10)             107.975                                          !
 ! A18   A(5,8,12)             112.2135                                         !
 ! A19   A(9,8,10)             105.7858                                         !
 ! A20   A(9,8,12)             113.5332                                         !
 ! A21   A(10,8,12)            109.0766                                         !
 ! A22   A(8,12,13)            130.4074                                         !
 ! A23   A(8,12,15)            124.7442                                         !
 ! A24   A(13,12,15)           104.4918                                         !
 ! A25   A(12,13,14)           127.4674                                         !
 ! A26   A(12,13,19)           111.0438                                         !
 ! A27   A(14,13,19)           121.3241                                         !
 ! A28   A(12,15,16)           126.3624                                         !
 ! A29   A(12,15,17)           107.2407                                         !
 ! A30   A(16,15,17)           125.9346                                         !
 ! A31   A(15,17,18)           122.1998                                         !
 ! A32   A(15,17,19)           111.943                                          !
 ! A33   A(18,17,19)           125.857                                          !
 ! A34   A(13,19,17)           105.2586                                         !
 ! A35   A(7,20,21)            115.4678                                         !
 ! A36   A(7,20,22)            120.5492                                         !
 ! A37   A(21,20,22)           110.0563                                         !
 ! A38   A(20,22,23)           107.9564                                         !
 ! A39   A(20,22,24)           104.9145                                         !
 ! A40   A(20,22,25)           109.7587                                         !
 ! A41   A(23,22,24)           112.9795                                         !
 ! A42   A(23,22,25)           108.9024                                         !
 ! A43   A(24,22,25)           112.1629                                         !
 ! A44   A(22,24,27)           118.7864                                         !
 ! A45   A(22,24,34)           117.3376                                         !
 ! A46   A(27,24,34)           123.8757                                         !
 ! A47   A(22,25,26)           107.4517                                         !
 ! A48   A(22,25,28)           112.2511                                         !
 ! A49   A(22,25,32)           109.4384                                         !
 ! A50   A(26,25,28)           109.0691                                         !
 ! A51   A(26,25,32)           111.2766                                         !
 ! A52   A(28,25,32)           107.3943                                         !
 ! A53   A(25,28,29)           111.486                                          !
 ! A54   A(25,28,30)           108.8898                                         !
 ! A55   A(25,28,31)           110.5765                                         !
 ! A56   A(29,28,30)           108.6567                                         !
 ! A57   A(29,28,31)           109.3758                                         !
 ! A58   A(30,28,31)           107.7603                                         !
 ! A59   A(25,32,33)           108.4227                                         !
 ! A60   A(24,34,35)           119.3186                                         !
 ! A61   A(24,34,36)           122.6671                                         !
 ! A62   A(35,34,36)           117.6842                                         !
 ! A63   A(34,36,37)           105.8689                                         !
 ! A64   A(34,36,38)           108.8381                                         !
 ! A65   A(34,36,39)           111.442                                          !
 ! A66   A(37,36,38)           107.8376                                         !
 ! A67   A(37,36,39)           109.8281                                         !
 ! A68   A(38,36,39)           112.7351                                         !
 ! A69   A(36,38,42)           122.1995                                         !
 ! A70   A(36,38,53)           113.6649                                         !
 ! A71   A(42,38,53)           124.0906                                         !
 ! A72   A(36,39,40)           106.5523                                         !
 ! A73   A(36,39,41)           109.1973                                         !
 ! A74   A(36,39,43)           114.702                                          !
 ! A75   A(40,39,41)           105.72                                           !
 ! A76   A(40,39,43)           110.2669                                         !
 ! A77   A(41,39,43)           109.9749                                         !
 ! A78   A(39,43,44)           108.0261                                         !
 ! A79   A(39,43,45)           109.2325                                         !
 ! A80   A(39,43,49)           113.6124                                         !
 ! A81   A(44,43,45)           107.8264                                         !
 ! A82   A(44,43,49)           107.5985                                         !
 ! A83   A(45,43,49)           110.3509                                         !
 ! A84   A(43,45,46)           110.0535                                         !
 ! A85   A(43,45,47)           111.5447                                         !
 ! A86   A(43,45,48)           111.3616                                         !
 ! A87   A(46,45,47)           107.7544                                         !
 ! A88   A(46,45,48)           107.927                                          !
 ! A89   A(47,45,48)           108.054                                          !
 ! A90   A(43,49,50)           111.1091                                         !
 ! A91   A(43,49,51)           110.0441                                         !
 ! A92   A(43,49,52)           111.9062                                         !
 ! A93   A(50,49,51)           107.7504                                         !
 ! A94   A(50,49,52)           108.0914                                         !
 ! A95   A(51,49,52)           107.785                                          !
 ! A96   A(38,53,54)           118.3659                                         !
 ! A97   A(38,53,55)           122.8263                                         !
 ! A98   A(54,53,55)           117.6973                                         !
 ! A99   A(53,55,56)           107.1104                                         !
 ! A100  A(53,55,57)           108.8747                                         !
 ! A101  A(53,55,58)           110.8077                                         !
 ! A102  A(56,55,57)           108.2552                                         !
 ! A103  A(56,55,58)           110.3201                                         !
 ! A104  A(57,55,58)           111.3404                                         !
 ! A105  A(55,57,62)           122.5774                                         !
 ! A106  A(55,57,63)           113.9384                                         !
 ! A107  A(62,57,63)           123.4099                                         !
 ! A108  A(55,58,59)           108.6165                                         !
 ! A109  A(55,58,60)           110.8285                                         !
 ! A110  A(55,58,61)           110.4329                                         !
 ! A111  A(59,58,60)           107.8954                                         !
 ! A112  A(59,58,61)           109.2362                                         !
 ! A113  A(60,58,61)           109.7721                                         !
 ! A114  A(57,63,64)           118.8231                                         !
 ! A115  A(57,63,65)           122.1603                                         !
 ! A116  A(64,63,65)           119.0122                                         !
 ! A117  A(63,65,66)           106.8521                                         !
 ! A118  A(63,65,67)           107.5591                                         !
 ! A119  A(63,65,68)           110.8516                                         !
 ! A120  A(66,65,67)           108.6475                                         !
 ! A121  A(66,65,68)           111.1265                                         !
 ! A122  A(67,65,68)           111.6132                                         !
 ! A123  A(65,67,71)           122.645                                          !
 ! A124  A(65,67,84)           113.8108                                         !
 ! A125  A(71,67,84)           123.4584                                         !
 ! A126  A(65,68,69)           108.3815                                         !
 ! A127  A(65,68,70)           107.5516                                         !
 ! A128  A(65,68,72)           115.5131                                         !
 ! A129  A(69,68,70)           104.9039                                         !
 ! A130  A(69,68,72)           110.1825                                         !
 ! A131  A(70,68,72)           109.7476                                         !
 ! A132  A(68,72,73)           123.6548                                         !
 ! A133  A(68,72,75)           118.7577                                         !
 ! A134  A(73,72,75)           117.5502                                         !
 ! A135  A(72,73,74)           120.2458                                         !
 ! A136  A(72,73,77)           121.4012                                         !
 ! A137  A(74,73,77)           118.3523                                         !
 ! A138  A(72,75,76)           119.2768                                         !
 ! A139  A(72,75,79)           121.7962                                         !
 ! A140  A(76,75,79)           118.9246                                         !
 ! A141  A(73,77,78)           121.0685                                         !
 ! A142  A(73,77,83)           119.8927                                         !
 ! A143  A(78,77,83)           119.0163                                         !
 ! A144  A(75,79,80)           120.1886                                         !
 ! A145  A(75,79,83)           119.616                                          !
 ! A146  A(80,79,83)           120.195                                          !
 ! A147  A(82,81,83)           109.0967                                         !
 ! A148  A(77,83,79)           119.7125                                         !
 ! A149  A(77,83,81)           117.6172                                         !
 ! A150  A(79,83,81)           122.6632                                         !
 ! A151  A(67,84,85)           120.2092                                         !
 ! A152  A(67,84,86)           120.2539                                         !
 ! A153  A(85,84,86)           116.5526                                         !
 ! A154  A(84,86,87)           108.4517                                         !
 ! A155  A(84,86,88)           108.2477                                         !
 ! A156  A(84,86,89)           111.9562                                         !
 ! A157  A(87,86,88)           111.5347                                         !
 ! A158  A(87,86,89)           106.7843                                         !
 ! A159  A(88,86,89)           109.8887                                         !
 ! A160  A(86,88,92)           120.7956                                         !
 ! A161  A(86,88,96)           115.2947                                         !
 ! A162  A(92,88,96)           123.791                                          !
 ! A163  A(86,89,90)           107.4112                                         !
 ! A164  A(86,89,91)           109.3912                                         !
 ! A165  A(86,89,93)           111.0648                                         !
 ! A166  A(90,89,91)           109.7102                                         !
 ! A167  A(90,89,93)           109.2191                                         !
 ! A168  A(91,89,93)           110.0                                            !
 ! A169  A(89,93,94)           125.4669                                         !
 ! A170  A(89,93,95)           111.7241                                         !
 ! A171  A(94,93,95)           122.7863                                         !
 ! A172  A(93,95,119)          107.0038                                         !
 ! A173  A(88,96,97)           121.8748                                         !
 ! A174  A(88,96,98)           122.3322                                         !
 ! A175  A(97,96,98)           115.7863                                         !
 ! A176  A(96,98,99)           108.7928                                         !
 ! A177  A(96,98,100)          108.6984                                         !
 ! A178  A(96,98,101)          111.418                                          !
 ! A179  A(99,98,100)          109.5467                                         !
 ! A180  A(99,98,101)          109.1163                                         !
 ! A181  A(100,98,101)         109.2468                                         !
 ! A182  A(98,100,104)         111.7492                                         !
 ! A183  A(98,100,118)         122.4649                                         !
 ! A184  A(104,100,118)        125.4385                                         !
 ! A185  A(98,101,102)         107.1921                                         !
 ! A186  A(98,101,103)         106.124                                          !
 ! A187  A(98,101,105)         115.9842                                         !
 ! A188  A(102,101,103)        106.6572                                         !
 ! A189  A(102,101,105)        109.3412                                         !
 ! A190  A(103,101,105)        111.0728                                         !
 ! A191  A(101,105,106)        109.4707                                         !
 ! A192  A(101,105,107)        108.4287                                         !
 ! A193  A(101,105,108)        113.4958                                         !
 ! A194  A(106,105,107)        106.1914                                         !
 ! A195  A(106,105,108)        110.4577                                         !
 ! A196  A(107,105,108)        108.5116                                         !
 ! A197  A(105,108,109)        108.3992                                         !
 ! A198  A(105,108,110)        110.278                                          !
 ! A199  A(105,108,111)        116.3956                                         !
 ! A200  A(109,108,110)        105.2523                                         !
 ! A201  A(109,108,111)        107.9548                                         !
 ! A202  A(110,108,111)        107.9712                                         !
 ! A203  A(108,111,112)        109.4758                                         !
 ! A204  A(108,111,113)        110.4036                                         !
 ! A205  A(108,111,114)        111.988                                          !
 ! A206  A(112,111,113)        106.9922                                         !
 ! A207  A(112,111,114)        110.3967                                         !
 ! A208  A(113,111,114)        107.4481                                         !
 ! A209  A(111,114,115)        110.3767                                         !
 ! A210  A(111,114,116)        112.3749                                         !
 ! A211  A(111,114,117)        109.6                                            !
 ! A212  A(115,114,116)        116.0909                                         !
 ! A213  A(115,114,117)        106.872                                          !
 ! A214  A(116,114,117)        100.8253                                         !
 ! D1    D(2,1,5,6)             29.5757                                         !
 ! D2    D(2,1,5,7)            -92.6687                                         !
 ! D3    D(2,1,5,8)            151.0139                                         !
 ! D4    D(3,1,5,6)            146.8922                                         !
 ! D5    D(3,1,5,7)             24.6478                                         !
 ! D6    D(3,1,5,8)            -91.6696                                         !
 ! D7    D(4,1,5,6)            -92.733                                          !
 ! D8    D(4,1,5,7)            145.0226                                         !
 ! D9    D(4,1,5,8)             28.7052                                         !
 ! D10   D(1,5,7,11)           -22.1438                                         !
 ! D11   D(1,5,7,20)           162.1677                                         !
 ! D12   D(6,5,7,11)          -140.7578                                         !
 ! D13   D(6,5,7,20)            43.5537                                         !
 ! D14   D(8,5,7,11)            94.2098                                         !
 ! D15   D(8,5,7,20)           -81.4787                                         !
 ! D16   D(1,5,8,9)           -179.0057                                         !
 ! D17   D(1,5,8,10)            67.0679                                         !
 ! D18   D(1,5,8,12)           -53.1731                                         !
 ! D19   D(6,5,8,9)            -59.3811                                         !
 ! D20   D(6,5,8,10)          -173.3075                                         !
 ! D21   D(6,5,8,12)            66.4515                                         !
 ! D22   D(7,5,8,9)             67.1275                                         !
 ! D23   D(7,5,8,10)           -46.7989                                         !
 ! D24   D(7,5,8,12)          -167.04                                           !
 ! D25   D(5,7,20,21)            9.1797                                         !
 ! D26   D(5,7,20,22)          145.4149                                         !
 ! D27   D(11,7,20,21)        -166.0825                                         !
 ! D28   D(11,7,20,22)         -29.8472                                         !
 ! D29   D(5,8,12,13)           89.6156                                         !
 ! D30   D(5,8,12,15)          -82.4297                                         !
 ! D31   D(9,8,12,13)         -147.6663                                         !
 ! D32   D(9,8,12,15)           40.2884                                         !
 ! D33   D(10,8,12,13)         -29.984                                          !
 ! D34   D(10,8,12,15)         157.9707                                         !
 ! D35   D(8,12,13,14)          10.5568                                         !
 ! D36   D(8,12,13,19)        -174.1082                                         !
 ! D37   D(15,12,13,14)       -176.1883                                         !
 ! D38   D(15,12,13,19)         -0.8534                                         !
 ! D39   D(8,12,15,16)         -12.3254                                         !
 ! D40   D(8,12,15,17)         175.1359                                         !
 ! D41   D(13,12,15,16)        173.9231                                         !
 ! D42   D(13,12,15,17)          1.3844                                         !
 ! D43   D(12,13,19,17)         -0.0422                                         !
 ! D44   D(14,13,19,17)        175.6241                                         !
 ! D45   D(12,15,17,18)        178.3235                                         !
 ! D46   D(12,15,17,19)         -1.5319                                         !
 ! D47   D(16,15,17,18)          5.744                                          !
 ! D48   D(16,15,17,19)       -174.1114                                         !
 ! D49   D(15,17,19,13)          0.9689                                         !
 ! D50   D(18,17,19,13)       -178.8802                                         !
 ! D51   D(7,20,22,23)          30.0538                                         !
 ! D52   D(7,20,22,24)         -90.6778                                         !
 ! D53   D(7,20,22,25)         148.6256                                         !
 ! D54   D(21,20,22,23)        168.3867                                         !
 ! D55   D(21,20,22,24)         47.6551                                         !
 ! D56   D(21,20,22,25)        -73.0414                                         !
 ! D57   D(20,22,24,27)        -35.1959                                         !
 ! D58   D(20,22,24,34)        144.6165                                         !
 ! D59   D(23,22,24,27)       -152.55                                           !
 ! D60   D(23,22,24,34)         27.2624                                         !
 ! D61   D(25,22,24,27)         83.8985                                         !
 ! D62   D(25,22,24,34)        -96.289                                          !
 ! D63   D(20,22,25,26)         56.5339                                         !
 ! D64   D(20,22,25,28)        176.4444                                         !
 ! D65   D(20,22,25,32)        -64.4179                                         !
 ! D66   D(23,22,25,26)        174.5198                                         !
 ! D67   D(23,22,25,28)        -65.5697                                         !
 ! D68   D(23,22,25,32)         53.568                                          !
 ! D69   D(24,22,25,26)        -59.6731                                         !
 ! D70   D(24,22,25,28)         60.2374                                         !
 ! D71   D(24,22,25,32)        179.3751                                         !
 ! D72   D(22,24,34,35)          4.1982                                         !
 ! D73   D(22,24,34,36)        177.4434                                         !
 ! D74   D(27,24,34,35)       -175.9998                                         !
 ! D75   D(27,24,34,36)         -2.7546                                         !
 ! D76   D(22,25,28,29)        -64.9937                                         !
 ! D77   D(22,25,28,30)        175.1355                                         !
 ! D78   D(22,25,28,31)         56.9177                                         !
 ! D79   D(26,25,28,29)         53.9712                                         !
 ! D80   D(26,25,28,30)        -65.8997                                         !
 ! D81   D(26,25,28,31)        175.8826                                         !
 ! D82   D(32,25,28,29)        174.677                                          !
 ! D83   D(32,25,28,30)         54.8062                                         !
 ! D84   D(32,25,28,31)        -63.4116                                         !
 ! D85   D(22,25,32,33)         62.6971                                         !
 ! D86   D(26,25,32,33)        -55.9047                                         !
 ! D87   D(28,25,32,33)       -175.2059                                         !
 ! D88   D(24,34,36,37)         24.9229                                         !
 ! D89   D(24,34,36,38)        -90.7647                                         !
 ! D90   D(24,34,36,39)        144.2966                                         !
 ! D91   D(35,34,36,37)       -161.7276                                         !
 ! D92   D(35,34,36,38)         82.5848                                         !
 ! D93   D(35,34,36,39)        -42.3539                                         !
 ! D94   D(34,36,38,42)       -112.9367                                         !
 ! D95   D(34,36,38,53)         64.7144                                         !
 ! D96   D(37,36,38,42)        132.6518                                         !
 ! D97   D(37,36,38,53)        -49.6971                                         !
 ! D98   D(39,36,38,42)         11.2401                                         !
 ! D99   D(39,36,38,53)       -171.1089                                         !
 ! D100  D(34,36,39,40)       -172.5274                                         !
 ! D101  D(34,36,39,41)         73.7209                                         !
 ! D102  D(34,36,39,43)        -50.2188                                         !
 ! D103  D(37,36,39,40)        -55.5334                                         !
 ! D104  D(37,36,39,41)       -169.2852                                         !
 ! D105  D(37,36,39,43)         66.7752                                         !
 ! D106  D(38,36,39,40)         64.7413                                         !
 ! D107  D(38,36,39,41)        -49.0104                                         !
 ! D108  D(38,36,39,43)       -172.9501                                         !
 ! D109  D(36,38,53,54)         11.486                                          !
 ! D110  D(36,38,53,55)        179.1494                                         !
 ! D111  D(42,38,53,54)       -170.9141                                         !
 ! D112  D(42,38,53,55)         -3.2508                                         !
 ! D113  D(36,39,43,44)         72.3504                                         !
 ! D114  D(36,39,43,45)       -170.617                                          !
 ! D115  D(36,39,43,49)        -46.9416                                         !
 ! D116  D(40,39,43,44)       -167.3757                                         !
 ! D117  D(40,39,43,45)        -50.3431                                         !
 ! D118  D(40,39,43,49)         73.3323                                         !
 ! D119  D(41,39,43,44)        -51.1748                                         !
 ! D120  D(41,39,43,45)         65.8577                                         !
 ! D121  D(41,39,43,49)       -170.4669                                         !
 ! D122  D(39,43,45,46)         65.3756                                         !
 ! D123  D(39,43,45,47)        -54.1703                                         !
 ! D124  D(39,43,45,48)       -174.9802                                         !
 ! D125  D(44,43,45,46)       -177.4657                                         !
 ! D126  D(44,43,45,47)         62.9885                                         !
 ! D127  D(44,43,45,48)        -57.8214                                         !
 ! D128  D(49,43,45,46)        -60.2065                                         !
 ! D129  D(49,43,45,47)       -179.7524                                         !
 ! D130  D(49,43,45,48)         59.4377                                         !
 ! D131  D(39,43,49,50)        -60.2199                                         !
 ! D132  D(39,43,49,51)       -179.4763                                         !
 ! D133  D(39,43,49,52)         60.7118                                         !
 ! D134  D(44,43,49,50)       -179.7555                                         !
 ! D135  D(44,43,49,51)         60.988                                          !
 ! D136  D(44,43,49,52)        -58.8239                                         !
 ! D137  D(45,43,49,50)         62.8445                                         !
 ! D138  D(45,43,49,51)        -56.412                                          !
 ! D139  D(45,43,49,52)       -176.2239                                         !
 ! D140  D(38,53,55,56)         35.7197                                         !
 ! D141  D(38,53,55,57)        -81.1284                                         !
 ! D142  D(38,53,55,58)        156.0964                                         !
 ! D143  D(54,53,55,56)       -156.5393                                         !
 ! D144  D(54,53,55,57)         86.6126                                         !
 ! D145  D(54,53,55,58)        -36.1626                                         !
 ! D146  D(53,55,57,62)       -105.1038                                         !
 ! D147  D(53,55,57,63)         71.8612                                         !
 ! D148  D(56,55,57,62)        138.7807                                         !
 ! D149  D(56,55,57,63)        -44.2543                                         !
 ! D150  D(58,55,57,62)         17.3506                                         !
 ! D151  D(58,55,57,63)       -165.6844                                         !
 ! D152  D(53,55,58,59)       -176.3134                                         !
 ! D153  D(53,55,58,60)         65.3227                                         !
 ! D154  D(53,55,58,61)        -56.5452                                         !
 ! D155  D(56,55,58,59)        -57.8659                                         !
 ! D156  D(56,55,58,60)       -176.2297                                         !
 ! D157  D(56,55,58,61)         61.9023                                         !
 ! D158  D(57,55,58,59)         62.3531                                         !
 ! D159  D(57,55,58,60)        -56.0108                                         !
 ! D160  D(57,55,58,61)       -177.8787                                         !
 ! D161  D(55,57,63,64)          2.737                                          !
 ! D162  D(55,57,63,65)       -178.0288                                         !
 ! D163  D(62,57,63,64)        179.6732                                         !
 ! D164  D(62,57,63,65)         -1.0926                                         !
 ! D165  D(57,63,65,66)         27.0678                                         !
 ! D166  D(57,63,65,67)        -89.4369                                         !
 ! D167  D(57,63,65,68)        148.2908                                         !
 ! D168  D(64,63,65,66)       -153.6995                                         !
 ! D169  D(64,63,65,67)         89.7959                                         !
 ! D170  D(64,63,65,68)        -32.4764                                         !
 ! D171  D(63,65,67,71)       -103.481                                          !
 ! D172  D(63,65,67,84)         73.2566                                         !
 ! D173  D(66,65,67,71)        141.1973                                         !
 ! D174  D(66,65,67,84)        -42.0651                                         !
 ! D175  D(68,65,67,71)         18.3184                                         !
 ! D176  D(68,65,67,84)       -164.944                                          !
 ! D177  D(63,65,68,69)         67.3083                                         !
 ! D178  D(63,65,68,70)       -179.7769                                         !
 ! D179  D(63,65,68,72)        -56.8467                                         !
 ! D180  D(66,65,68,69)       -174.0227                                         !
 ! D181  D(66,65,68,70)        -61.1078                                         !
 ! D182  D(66,65,68,72)         61.8223                                         !
 ! D183  D(67,65,68,69)        -52.5697                                         !
 ! D184  D(67,65,68,70)         60.3451                                         !
 ! D185  D(67,65,68,72)       -176.7248                                         !
 ! D186  D(65,67,84,85)         -5.9362                                         !
 ! D187  D(65,67,84,86)       -165.7248                                         !
 ! D188  D(71,67,84,85)        170.771                                          !
 ! D189  D(71,67,84,86)         10.9825                                         !
 ! D190  D(65,68,72,73)        -19.2792                                         !
 ! D191  D(65,68,72,75)        163.0029                                         !
 ! D192  D(69,68,72,73)       -142.4888                                         !
 ! D193  D(69,68,72,75)         39.7933                                         !
 ! D194  D(70,68,72,73)        102.4804                                         !
 ! D195  D(70,68,72,75)        -75.2375                                         !
 ! D196  D(68,72,73,74)          3.0469                                         !
 ! D197  D(68,72,73,77)       -176.6462                                         !
 ! D198  D(75,72,73,74)       -179.2096                                         !
 ! D199  D(75,72,73,77)          1.0973                                         !
 ! D200  D(68,72,75,76)         -3.0687                                         !
 ! D201  D(68,72,75,79)        176.3607                                         !
 ! D202  D(73,72,75,76)        179.0738                                         !
 ! D203  D(73,72,75,79)         -1.4968                                         !
 ! D204  D(72,73,77,78)        178.7271                                         !
 ! D205  D(72,73,77,83)          0.4659                                         !
 ! D206  D(74,73,77,78)         -0.9716                                         !
 ! D207  D(74,73,77,83)       -179.2329                                         !
 ! D208  D(72,75,79,80)       -179.4357                                         !
 ! D209  D(72,75,79,83)          0.3248                                         !
 ! D210  D(76,75,79,80)         -0.0044                                         !
 ! D211  D(76,75,79,83)        179.7561                                         !
 ! D212  D(73,77,83,79)         -1.6738                                         !
 ! D213  D(73,77,83,81)        179.2715                                         !
 ! D214  D(78,77,83,79)       -179.9706                                         !
 ! D215  D(78,77,83,81)          0.9746                                         !
 ! D216  D(75,79,83,77)          1.286                                          !
 ! D217  D(75,79,83,81)       -179.7089                                         !
 ! D218  D(80,79,83,77)       -178.9536                                         !
 ! D219  D(80,79,83,81)          0.0515                                         !
 ! D220  D(82,81,83,77)       -175.9375                                         !
 ! D221  D(82,81,83,79)          5.0377                                         !
 ! D222  D(67,84,86,87)        -48.7937                                         !
 ! D223  D(67,84,86,88)       -169.9556                                         !
 ! D224  D(67,84,86,89)         68.77                                           !
 ! D225  D(85,84,86,87)        150.7041                                         !
 ! D226  D(85,84,86,88)         29.5423                                         !
 ! D227  D(85,84,86,89)        -91.7322                                         !
 ! D228  D(84,86,88,92)        -29.8004                                         !
 ! D229  D(84,86,88,96)        154.0151                                         !
 ! D230  D(87,86,88,92)       -149.0345                                         !
 ! D231  D(87,86,88,96)         34.7809                                         !
 ! D232  D(89,86,88,92)         92.7435                                         !
 ! D233  D(89,86,88,96)        -83.441                                          !
 ! D234  D(84,86,89,90)        -56.227                                          !
 ! D235  D(84,86,89,91)       -175.2456                                         !
 ! D236  D(84,86,89,93)         63.145                                          !
 ! D237  D(87,86,89,90)         62.3301                                         !
 ! D238  D(87,86,89,91)        -56.6885                                         !
 ! D239  D(87,86,89,93)       -178.2979                                         !
 ! D240  D(88,86,89,90)       -176.5498                                         !
 ! D241  D(88,86,89,91)         64.4316                                         !
 ! D242  D(88,86,89,93)        -57.1778                                         !
 ! D243  D(86,88,96,97)         -7.5863                                         !
 ! D244  D(86,88,96,98)        173.3951                                         !
 ! D245  D(92,88,96,97)        176.3576                                         !
 ! D246  D(92,88,96,98)         -2.6611                                         !
 ! D247  D(86,89,93,94)        -83.142                                          !
 ! D248  D(86,89,93,95)         95.1579                                         !
 ! D249  D(90,89,93,94)         35.1427                                         !
 ! D250  D(90,89,93,95)       -146.5574                                         !
 ! D251  D(91,89,93,94)        155.6053                                         !
 ! D252  D(91,89,93,95)        -26.0948                                         !
 ! D253  D(89,93,95,119)      -174.0296                                         !
 ! D254  D(94,93,95,119)         4.3234                                         !
 ! D255  D(88,96,98,99)        -39.8698                                         !
 ! D256  D(88,96,98,100)      -159.0974                                         !
 ! D257  D(88,96,98,101)        80.4662                                         !
 ! D258  D(97,96,98,99)        141.0557                                         !
 ! D259  D(97,96,98,100)        21.8281                                         !
 ! D260  D(97,96,98,101)       -98.6083                                         !
 ! D261  D(96,98,100,104)      153.7225                                         !
 ! D262  D(96,98,100,118)      -32.7079                                         !
 ! D263  D(99,98,100,104)       34.9679                                         !
 ! D264  D(99,98,100,118)     -151.4625                                         !
 ! D265  D(101,98,100,104)     -84.5074                                         !
 ! D266  D(101,98,100,118)      89.0622                                         !
 ! D267  D(96,98,101,102)       35.7808                                         !
 ! D268  D(96,98,101,103)      -77.9089                                         !
 ! D269  D(96,98,101,105)      158.2243                                         !
 ! D270  D(99,98,101,102)      155.9263                                         !
 ! D271  D(99,98,101,103)       42.2366                                         !
 ! D272  D(99,98,101,105)      -81.6302                                         !
 ! D273  D(100,98,101,102)     -84.3327                                         !
 ! D274  D(100,98,101,103)     161.9776                                         !
 ! D275  D(100,98,101,105)      38.1108                                         !
 ! D276  D(98,101,105,106)      36.9379                                         !
 ! D277  D(98,101,105,107)     152.3771                                         !
 ! D278  D(98,101,105,108)     -86.9745                                         !
 ! D279  D(102,101,105,106)    158.2405                                         !
 ! D280  D(102,101,105,107)    -86.3203                                         !
 ! D281  D(102,101,105,108)     34.3281                                         !
 ! D282  D(103,101,105,106)    -84.32                                           !
 ! D283  D(103,101,105,107)     31.1192                                         !
 ! D284  D(103,101,105,108)    151.7676                                         !
 ! D285  D(101,105,108,109)    -96.6439                                         !
 ! D286  D(101,105,108,110)     18.0938                                         !
 ! D287  D(101,105,108,111)    141.5007                                         !
 ! D288  D(106,105,108,109)    139.9825                                         !
 ! D289  D(106,105,108,110)   -105.2799                                         !
 ! D290  D(106,105,108,111)     18.1271                                         !
 ! D291  D(107,105,108,109)     23.9578                                         !
 ! D292  D(107,105,108,110)    138.6955                                         !
 ! D293  D(107,105,108,111)    -97.8976                                         !
 ! D294  D(105,108,111,112)    149.061                                          !
 ! D295  D(105,108,111,113)     31.5273                                         !
 ! D296  D(105,108,111,114)    -88.1558                                         !
 ! D297  D(109,108,111,112)     26.9718                                         !
 ! D298  D(109,108,111,113)    -90.5619                                         !
 ! D299  D(109,108,111,114)    149.7551                                         !
 ! D300  D(110,108,111,112)    -86.346                                          !
 ! D301  D(110,108,111,113)    156.1203                                         !
 ! D302  D(110,108,111,114)     36.4373                                         !
 ! D303  D(108,111,114,115)    178.4148                                         !
 ! D304  D(108,111,114,116)     47.0954                                         !
 ! D305  D(108,111,114,117)    -64.1391                                         !
 ! D306  D(112,111,114,115)    -59.3259                                         !
 ! D307  D(112,111,114,116)    169.3547                                         !
 ! D308  D(112,111,114,117)     58.1203                                         !
 ! D309  D(113,111,114,115)     57.014                                          !
 ! D310  D(113,111,114,116)    -74.3054                                         !
 ! D311  D(113,111,114,117)    174.4601                                         !
 --------------------------------------------------------------------------------
 Symmetry turned off by external request.
 Stoichiometry    C38H59N10O12(1+)
 Framework group  C1[X(C38H59N10O12)]
 Deg. of freedom   351
 Full point group                 C1      NOp   1
                          Input orientation:                          
 ---------------------------------------------------------------------
 Center     Atomic      Atomic             Coordinates (Angstroms)
 Number     Number       Type             X           Y           Z
 ---------------------------------------------------------------------
      1          7           0       -5.150434   -5.438965   -6.465826
      2          1           0       -5.485013   -6.406839   -6.488021
      3          1           0       -5.885926   -4.852386   -6.010583
      4          1           0       -4.947260   -5.127076   -7.435415
      5          6           0       -3.932015   -5.250586   -5.601333
      6          1           0       -3.358096   -6.179709   -5.603901
      7          6           0       -4.482252   -4.858185   -4.217180
      8          6           0       -3.093817   -4.060313   -6.164635
      9          1           0       -2.203022   -3.947799   -5.536220
     10          1           0       -3.675147   -3.141276   -6.025278
     11          8           0       -5.612702   -4.378015   -4.161988
     12          6           0       -2.783464   -4.225368   -7.612510
     13          6           0       -3.489019   -3.822508   -8.732787
     14          1           0       -4.346955   -3.160115   -8.769200
     15          7           0       -1.742596   -4.986614   -8.114084
     16          1           0       -0.973224   -5.374284   -7.583750
     17          6           0       -1.853666   -4.976797   -9.479928
     18          1           0       -1.141148   -5.479996  -10.119911
     19          7           0       -2.902153   -4.295567   -9.882232
     20          7           0       -3.619644   -4.999504   -3.188728
     21          1           0       -2.657444   -5.209234   -3.449658
     22          6           0       -3.642195   -4.054533   -2.055674
     23          1           0       -4.665864   -3.693331   -1.938954
     24          6           0       -2.655609   -2.944407   -2.447091
     25          6           0       -3.216347   -4.783487   -0.757501
     26          1           0       -2.220039   -5.223577   -0.936571
     27          8           0       -1.638380   -3.248257   -3.092782
     28          6           0       -3.136129   -3.838924    0.434509
     29          1           0       -2.348113   -3.091826    0.301437
     30          1           0       -2.917762   -4.421065    1.333111
     31          1           0       -4.095561   -3.331875    0.589526
     32          8           0       -4.169419   -5.781107   -0.443315
     33          1           0       -4.177433   -6.434382   -1.160802
     34          7           0       -2.953855   -1.694899   -2.068365
     35          1           0       -3.770106   -1.533163   -1.491561
     36          6           0       -2.066058   -0.551818   -2.332364
     37          1           0       -1.468353   -0.832532   -3.203287
     38          6           0       -1.105131   -0.379244   -1.134455
     39          6           0       -2.861707    0.713507   -2.636920
     40          1           0       -2.135533    1.470622   -2.951105
     41          1           0       -3.304145    1.093482   -1.708334
     42          8           0       -1.155188    0.596717   -0.390674
     43          6           0       -3.956518    0.544034   -3.711930
     44          1           0       -4.777939   -0.042659   -3.272159
     45          6           0       -4.513716    1.924118   -4.088179
     46          1           0       -3.734078    2.525340   -4.572629
     47          1           0       -4.858636    2.473289   -3.204883
     48          1           0       -5.355287    1.838431   -4.784866
     49          6           0       -3.475353   -0.199488   -4.969380
     50          1           0       -2.651135    0.335218   -5.452420
     51          1           0       -4.294270   -0.278796   -5.696018
     52          1           0       -3.133064   -1.215589   -4.738125
     53          7           0       -0.252473   -1.423017   -0.964658
     54          1           0       -0.184906   -2.115259   -1.703213
     55          6           0        0.758612   -1.460626    0.101561
     56          1           0        0.320513   -0.975450    0.977395
     57          6           0        1.983603   -0.638160   -0.343736
     58          6           0        1.144629   -2.895339    0.430063
     59          1           0        1.844829   -2.884792    1.267296
     60          1           0        1.644844   -3.368280   -0.420747
     61          1           0        0.258102   -3.475811    0.708240
     62          8           0        3.035245   -1.161586   -0.711340
     63          7           0        1.773105    0.698421   -0.354358
     64          1           0        0.876041    1.055150   -0.040095
     65          6           0        2.797439    1.642133   -0.786513
     66          1           0        3.441760    1.109540   -1.493086
     67          6           0        3.633168    2.022025    0.453397
     68          6           0        2.165535    2.869897   -1.436154
     69          1           0        1.619340    3.426270   -0.665452
     70          1           0        2.980350    3.538401   -1.742885
     71          8           0        3.502803    3.094605    1.036819
     72          6           0        1.258807    2.589042   -2.621118
     73          6           0        1.287986    1.394726   -3.356517
     74          1           0        1.950217    0.586814   -3.061272
     75          6           0        0.371112    3.587587   -3.042040
     76          1           0        0.314523    4.518707   -2.483400
     77          6           0        0.480898    1.212980   -4.480641
     78          1           0        0.522701    0.294035   -5.057978
     79          6           0       -0.436178    3.426131   -4.167069
     80          1           0       -1.110214    4.223040   -4.476021
     81          8           0       -1.134291    2.014021   -6.020529
     82          1           0       -1.627232    2.821437   -6.235078
     83          6           0       -0.371375    2.237460   -4.898611
     84          7           0        4.468926    1.035960    0.875201
     85          1           0        4.437397    0.115173    0.438682
     86          6           0        5.083356    1.111081    2.182383
     87          1           0        5.520576    2.107237    2.302931
     88          6           0        6.150246    0.012889    2.275457
     89          6           0        4.038242    0.935282    3.329968
     90          1           0        3.267602    1.695797    3.189344
     91          1           0        4.530375    1.083085    4.294846
     92          8           0        6.028932   -1.037361    1.647901
     93          6           0        3.401460   -0.432969    3.279217
     94          8           0        2.464431   -0.749051    2.572344
     95          8           0        4.024346   -1.304852    4.100648
     96          7           0        7.156991    0.258424    3.141247
     97          1           0        7.259378    1.155085    3.602730
     98          6           0        8.171439   -0.733388    3.454929
     99          1           0        7.693401   -1.712235    3.535963
    100          6           0        8.813426   -0.370121    4.782102
    101          6           0        9.274650   -0.792147    2.347405
    102          1           0        9.424306    0.232036    1.984180
    103          1           0        8.842257   -1.359141    1.517611
    104          8           0        9.304154   -1.437012    5.399120
    105          6           0       10.634740   -1.386545    2.777430
    106          1           0       10.467556   -2.211941    3.475816
    107          1           0       11.115609   -1.825038    1.895532
    108          6           0       11.602351   -0.337081    3.397290
    109          1           0       12.284531    0.010546    2.612617
    110          1           0       11.045797    0.554182    3.711379
    111          6           0       12.453843   -0.811311    4.591305
    112          1           0       13.413348   -0.274698    4.593325
    113          1           0       12.683990   -1.878666    4.496487
    114          7           0       11.750554   -0.620301    5.887329
    115          1           0       12.323582   -0.965297    6.656227
    116          1           0       10.192722   -1.163213    5.842717
    117          1           0       11.601734    0.375880    6.052568
    118          8           0        8.956827    0.788014    5.146535
    119          1           0        3.624078   -2.180516    3.943623
 ---------------------------------------------------------------------
 Rotational constants (GHZ):           0.0657307           0.0146623           0.0139906
 Standard basis: 6-31G(d) (6D, 7F)
  1018 basis functions,  1916 primitive gaussians,  1018 cartesian basis functions
   226 alpha electrons      226 beta electrons
       nuclear repulsion energy      9066.4893683037 Hartrees.
 NAtoms=  119 NActive=  119 NUniq=  119 SFac= 1.00D+00 NAtFMM=   60 NAOKFM=T Big=T
 Integral buffers will be    131072 words long.
 Raffenetti 2 integral format.
 Two-electron integral symmetry is turned off.
 Nuclear repulsion after empirical dispersion term =     9066.3170748967 Hartrees.
 One-electron integrals computed using PRISM.
 NBasis=  1018 RedAO= T EigKep=  4.09D-04  NBF=  1018
 NBsUse=  1018 1.00D-06 EigRej= -1.00D+00 NBFU=  1018
 Initial guess from the checkpoint file:  "conf-234.chk"
 B after Tr=     0.000000    0.000000    0.000000
         Rot=    1.000000    0.000000    0.000000    0.000000 Ang=   0.00 deg.
 Requested convergence on RMS density matrix=1.00D-08 within 128 cycles.
 Requested convergence on MAX density matrix=1.00D-06.
 Requested convergence on             energy=1.00D-06.
 No special actions if energy rises.
 SCF Done:  E(RB3LYP) =  -2933.85412111     A.U. after    2 cycles
            NFock=  2  Conv=0.83D-08     -V/T= 2.0093
 Hyperfine terms turned off by default for NAtoms > 100.

 **********************************************************************

            Population analysis using the SCF Density.

 **********************************************************************

 Alpha  occ. eigenvalues --  -19.28487 -19.24643 -19.24429 -19.24428 -19.23766
 Alpha  occ. eigenvalues --  -19.20104 -19.19505 -19.18965 -19.17161 -19.16669
 Alpha  occ. eigenvalues --  -19.15919 -19.15758 -14.61341 -14.51897 -14.50958
 Alpha  occ. eigenvalues --  -14.47911 -14.43464 -14.43250 -14.40633 -14.40473
 Alpha  occ. eigenvalues --  -14.39485 -14.39465 -10.45252 -10.42395 -10.40636
 Alpha  occ. eigenvalues --  -10.37063 -10.36457 -10.36223 -10.36063 -10.35743
 Alpha  occ. eigenvalues --  -10.35397 -10.34969 -10.34928 -10.33564 -10.33227
 Alpha  occ. eigenvalues --  -10.32894 -10.32683 -10.31892 -10.31027 -10.29070
 Alpha  occ. eigenvalues --  -10.28743 -10.27968 -10.27271 -10.26933 -10.26880
 Alpha  occ. eigenvalues --  -10.26702 -10.25743 -10.25059 -10.25003 -10.24993
 Alpha  occ. eigenvalues --  -10.24916 -10.24873 -10.24815 -10.24723 -10.24476
 Alpha  occ. eigenvalues --  -10.24101 -10.23591 -10.22928 -10.22902 -10.22436
 Alpha  occ. eigenvalues --   -1.20826  -1.15840  -1.15380  -1.15328  -1.13871
 Alpha  occ. eigenvalues --   -1.12433  -1.12360  -1.12345  -1.11283  -1.08671
 Alpha  occ. eigenvalues --   -1.08096  -1.07482  -1.07283  -1.06260  -1.04015
 Alpha  occ. eigenvalues --   -1.03921  -0.99684  -0.99642  -0.97598  -0.96979
 Alpha  occ. eigenvalues --   -0.96333  -0.95540  -0.94951  -0.91168  -0.90506
 Alpha  occ. eigenvalues --   -0.88846  -0.87449  -0.85162  -0.84545  -0.83846
 Alpha  occ. eigenvalues --   -0.83082  -0.82451  -0.81695  -0.80718  -0.80188
 Alpha  occ. eigenvalues --   -0.79352  -0.78572  -0.75892  -0.75565  -0.74901
 Alpha  occ. eigenvalues --   -0.74866  -0.74093  -0.73898  -0.73302  -0.73134
 Alpha  occ. eigenvalues --   -0.71662  -0.71500  -0.70898  -0.70111  -0.69244
 Alpha  occ. eigenvalues --   -0.68337  -0.67544  -0.67061  -0.66719  -0.66046
 Alpha  occ. eigenvalues --   -0.65589  -0.65064  -0.64849  -0.64158  -0.64023
 Alpha  occ. eigenvalues --   -0.63607  -0.63312  -0.62526  -0.61719  -0.61628
 Alpha  occ. eigenvalues --   -0.61286  -0.60940  -0.60544  -0.59580  -0.58799
 Alpha  occ. eigenvalues --   -0.58537  -0.57972  -0.57581  -0.57398  -0.56682
 Alpha  occ. eigenvalues --   -0.55644  -0.55392  -0.55143  -0.54822  -0.54614
 Alpha  occ. eigenvalues --   -0.54492  -0.54275  -0.54073  -0.53654  -0.53408
 Alpha  occ. eigenvalues --   -0.53298  -0.52984  -0.52542  -0.52409  -0.52358
 Alpha  occ. eigenvalues --   -0.52144  -0.51781  -0.51704  -0.51485  -0.50702
 Alpha  occ. eigenvalues --   -0.50215  -0.50014  -0.49942  -0.49575  -0.49430
 Alpha  occ. eigenvalues --   -0.49237  -0.48728  -0.48612  -0.48303  -0.48043
 Alpha  occ. eigenvalues --   -0.47753  -0.47693  -0.47457  -0.47292  -0.46843
 Alpha  occ. eigenvalues --   -0.46561  -0.46459  -0.46295  -0.46193  -0.45621
 Alpha  occ. eigenvalues --   -0.45545  -0.45140  -0.44873  -0.44790  -0.44747
 Alpha  occ. eigenvalues --   -0.44359  -0.44173  -0.43809  -0.43699  -0.43429
 Alpha  occ. eigenvalues --   -0.43380  -0.42817  -0.42741  -0.42296  -0.41716
 Alpha  occ. eigenvalues --   -0.41428  -0.41305  -0.41094  -0.40748  -0.40585
 Alpha  occ. eigenvalues --   -0.40349  -0.40325  -0.40248  -0.40152  -0.39863
 Alpha  occ. eigenvalues --   -0.39593  -0.39190  -0.38741  -0.38422  -0.38285
 Alpha  occ. eigenvalues --   -0.37948  -0.37723  -0.37543  -0.37193  -0.36439
 Alpha  occ. eigenvalues --   -0.36391  -0.35821  -0.34530  -0.33571  -0.32788
 Alpha  occ. eigenvalues --   -0.32456  -0.32113  -0.31756  -0.31118  -0.31062
 Alpha  occ. eigenvalues --   -0.30337  -0.29703  -0.29498  -0.28868  -0.28239
 Alpha  occ. eigenvalues --   -0.27644
 Alpha virt. eigenvalues --   -0.14880  -0.11553  -0.10312  -0.10176  -0.07739
 Alpha virt. eigenvalues --   -0.06605  -0.06275  -0.05938  -0.05048  -0.04773
 Alpha virt. eigenvalues --   -0.04593  -0.04208  -0.03205  -0.02995  -0.02623
 Alpha virt. eigenvalues --   -0.02108  -0.01966  -0.01757  -0.01289  -0.00786
 Alpha virt. eigenvalues --   -0.00637  -0.00515   0.00327   0.01432   0.01951
 Alpha virt. eigenvalues --    0.02546   0.02578   0.02796   0.03205   0.03718
 Alpha virt. eigenvalues --    0.03990   0.04818   0.04943   0.05116   0.05654
 Alpha virt. eigenvalues --    0.05885   0.06011   0.06188   0.06281   0.06654
 Alpha virt. eigenvalues --    0.07008   0.07391   0.07729   0.07761   0.08028
 Alpha virt. eigenvalues --    0.08480   0.08501   0.08817   0.08898   0.09127
 Alpha virt. eigenvalues --    0.09278   0.09431   0.09625   0.09827   0.10087
 Alpha virt. eigenvalues --    0.10364   0.10426   0.10482   0.10642   0.11036
 Alpha virt. eigenvalues --    0.11228   0.11414   0.11517   0.11752   0.11889
 Alpha virt. eigenvalues --    0.12049   0.12111   0.12515   0.12614   0.12728
 Alpha virt. eigenvalues --    0.13522   0.13595   0.13789   0.14005   0.14100
 Alpha virt. eigenvalues --    0.14164   0.14513   0.14632   0.14780   0.14891
 Alpha virt. eigenvalues --    0.15129   0.15436   0.16148   0.16404   0.16804
 Alpha virt. eigenvalues --    0.17004   0.17239   0.17698   0.17959   0.17995
 Alpha virt. eigenvalues --    0.18331   0.18579   0.18995   0.19259   0.19552
 Alpha virt. eigenvalues --    0.19651   0.19935   0.20229   0.20480   0.20787
 Alpha virt. eigenvalues --    0.21010   0.21507   0.22071   0.22265   0.22588
 Alpha virt. eigenvalues --    0.22675   0.23454   0.24106   0.24778   0.25086
 Alpha virt. eigenvalues --    0.25563   0.26096   0.26591   0.26936   0.27084
 Alpha virt. eigenvalues --    0.27623   0.28492   0.28905   0.28934   0.30063
 Alpha virt. eigenvalues --    0.30524   0.31003   0.31452   0.32770   0.32855
 Alpha virt. eigenvalues --    0.33352   0.34587   0.34654   0.35437   0.36352
 Alpha virt. eigenvalues --    0.37155   0.37796   0.38475   0.38629   0.39972
 Alpha virt. eigenvalues --    0.40040   0.40730   0.40790   0.41837   0.42302
 Alpha virt. eigenvalues --    0.42935   0.43782   0.44223   0.44390   0.44768
[...]
 Alpha virt. eigenvalues --    0.87825   0.87913   0.88446   0.88924   0.88975
 Alpha virt. eigenvalues --    0.89337   0.89744   0.90086   0.90255   0.90577
 Alpha virt. eigenvalues --    0.90767   0.90958   0.91396   0.91477   0.91947
 Alpha virt. eigenvalues --    0.92349   0.92685   0.92958   0.93061   0.93512
 Alpha virt. eigenvalues --    0.93593   0.93986   0.94820   0.94921   0.95216
 Alpha virt. eigenvalues --    0.95648   0.96269   0.96782   0.97119   0.97583
 Alpha virt. eigenvalues --    0.98032   0.98240   0.98540   0.98779   0.99074
 Alpha virt. eigenvalues --    0.99378   1.00277   1.00590   1.00671   1.01267
 Alpha virt. eigenvalues --    1.01614   1.01949   1.02609   1.02921   1.03503
 Alpha virt. eigenvalues --    1.03735   1.04211   1.04411   1.04931   1.06014
 Alpha virt. eigenvalues --    1.06474   1.06888   1.07229   1.07549   1.07849
 Alpha virt. eigenvalues --    1.08277   1.08771   1.09655   1.10153   1.10339
 Alpha virt. eigenvalues --    1.11071   1.11701   1.12158   1.12370   1.13138
 Alpha virt. eigenvalues --    1.13291   1.13636   1.13673   1.14075   1.15324
 Alpha virt. eigenvalues --    1.15724   1.16211   1.16235   1.17088   1.17767
 Alpha virt. eigenvalues --    1.18097   1.18900   1.19263   1.19382   1.19570
 Alpha virt. eigenvalues --    1.20038   1.20559   1.21494   1.22112   1.22174
 Alpha virt. eigenvalues --    1.22364   1.22810   1.23569   1.24231   1.25139
 Alpha virt. eigenvalues --    1.25430   1.25807   1.27021   1.27211   1.27736
 Alpha virt. eigenvalues --    1.27977   1.29699   1.29834   1.30751   1.30846
 Alpha virt. eigenvalues --    1.31315   1.32866   1.33182   1.34159   1.34521
 Alpha virt. eigenvalues --    1.34802   1.34932   1.35439   1.36343   1.36392
 Alpha virt. eigenvalues --    1.36638   1.37548   1.38113   1.38491   1.38835
 Alpha virt. eigenvalues --    1.39127   1.39482   1.39693   1.40071   1.40222
 Alpha virt. eigenvalues --    1.40492   1.40979   1.41128   1.41726   1.42023
 Alpha virt. eigenvalues --    1.42508   1.43577   1.43837   1.44456   1.44621
 Alpha virt. eigenvalues --    1.45452   1.45623   1.46205   1.46420   1.46761
 Alpha virt. eigenvalues --    1.47979   1.48352   1.49016   1.49460   1.49909
 Alpha virt. eigenvalues --    1.49941   1.51299   1.53426   1.53530   1.54817
 Alpha virt. eigenvalues --    1.55882   1.56213   1.57152   1.58148   1.58528
 Alpha virt. eigenvalues --    1.58948   1.59042   1.59967   1.60671   1.61142
 Alpha virt. eigenvalues --    1.61519   1.62275   1.63045   1.63269   1.63485
 Alpha virt. eigenvalues --    1.63740   1.64612   1.65217   1.65557   1.66184
 Alpha virt. eigenvalues --    1.66731   1.67128   1.67503   1.67982   1.68637
 Alpha virt. eigenvalues --    1.69359   1.69973   1.70213   1.70449   1.70687
 Alpha virt. eigenvalues --    1.70987   1.71349   1.71609   1.71754   1.72168
 Alpha virt. eigenvalues --    1.72346   1.72659   1.72881   1.73276   1.73352
 Alpha virt. eigenvalues --    1.73501   1.74394   1.74745   1.74951   1.75520
 Alpha virt. eigenvalues --    1.75876   1.76190   1.77134   1.77272   1.77785
 Alpha virt. eigenvalues --    1.78043   1.78295   1.78663   1.78726   1.79221
 Alpha virt. eigenvalues --    1.79585   1.79667   1.79959   1.80056   1.80342
 Alpha virt. eigenvalues --    1.81150   1.81419   1.81560   1.81976   1.82322
 Alpha virt. eigenvalues --    1.82514   1.82557   1.83674   1.83733   1.84127
 Alpha virt. eigenvalues --    1.84379   1.84680   1.85407   1.86581   1.86687
 Alpha virt. eigenvalues --    1.87111   1.87149   1.87592   1.88516   1.88935
 Alpha virt. eigenvalues --    1.89541   1.89645   1.90005   1.90078   1.90492
 Alpha virt. eigenvalues --    1.90704   1.91040   1.91460   1.91904   1.92350
 Alpha virt. eigenvalues --    1.92915   1.92992   1.93431   1.93505   1.93908
 Alpha virt. eigenvalues --    1.94207   1.94602   1.95294   1.95439   1.95983
 Alpha virt. eigenvalues --    1.96646   1.96979   1.97336   1.97452   1.97867
 Alpha virt. eigenvalues --    1.98707   1.98792   1.99295   1.99347   1.99408
 Alpha virt. eigenvalues --    1.99574   2.00106   2.00486   2.00780   2.01463
 Alpha virt. eigenvalues --    2.01873   2.02104   2.02275   2.03038   2.03228
 Alpha virt. eigenvalues --    2.04236   2.04467   2.04812   2.05597   2.06335
 Alpha virt. eigenvalues --    2.07105   2.07308   2.07585   2.07910   2.08571
 Alpha virt. eigenvalues --    2.09201   2.09725   2.09948   2.10198   2.10909
 Alpha virt. eigenvalues --    2.11211   2.11392   2.11606   2.12024   2.12192
 Alpha virt. eigenvalues --    2.12548   2.13252   2.14247   2.14673   2.15775
 Alpha virt. eigenvalues --    2.16053   2.16311   2.16831   2.17020   2.17388
 Alpha virt. eigenvalues --    2.17960   2.18783   2.19110   2.19720   2.20600
 Alpha virt. eigenvalues --    2.20755   2.21035   2.21352   2.21949   2.22359
 Alpha virt. eigenvalues --    2.22506   2.23673   2.24331   2.25333   2.25913
 Alpha virt. eigenvalues --    2.26226   2.26518   2.26876   2.28024   2.28180
 Alpha virt. eigenvalues --    2.28769   2.29337   2.29664   2.30990   2.31896
 Alpha virt. eigenvalues --    2.31972   2.32598   2.32913   2.33704   2.34155
 Alpha virt. eigenvalues --    2.34587   2.35302   2.35333   2.35847   2.36172
 Alpha virt. eigenvalues --    2.36471   2.36876   2.37253   2.37588   2.37813
 Alpha virt. eigenvalues --    2.38293   2.38958   2.39979   2.41003   2.41793
 Alpha virt. eigenvalues --    2.42408   2.42524   2.42942   2.43856   2.44163
 Alpha virt. eigenvalues --    2.44564   2.44856   2.45644   2.46417   2.46749
 Alpha virt. eigenvalues --    2.47100   2.47242   2.47495   2.48326   2.48941
 Alpha virt. eigenvalues --    2.50315   2.50838   2.51284   2.52126   2.52836
 Alpha virt. eigenvalues --    2.53422   2.54712   2.55328   2.55939   2.56659
 Alpha virt. eigenvalues --    2.57134   2.57175   2.57565   2.59136   2.59387
 Alpha virt. eigenvalues --    2.59970   2.60182   2.60390   2.60988   2.61749
 Alpha virt. eigenvalues --    2.62078   2.62429   2.63959   2.64211   2.65108
 Alpha virt. eigenvalues --    2.66023   2.66062   2.67218   2.67911   2.68765
 Alpha virt. eigenvalues --    2.69143   2.69981   2.70605   2.70785   2.71013
 Alpha virt. eigenvalues --    2.71960   2.72432   2.73496   2.74558   2.77216
 Alpha virt. eigenvalues --    2.77903   2.78280   2.79308   2.79645   2.82252
 Alpha virt. eigenvalues --    2.82449   2.83413   2.84778   2.84955   2.85601
 Alpha virt. eigenvalues --    2.85969   2.86947   2.87165   2.88443   2.90003
 Alpha virt. eigenvalues --    2.90346   2.91861   2.92529   2.93842   2.94370
 Alpha virt. eigenvalues --    2.94998   2.96450   2.97299   2.97775   2.98773
 Alpha virt. eigenvalues --    2.99283   2.99887   3.00323   3.04915   3.06985
 Alpha virt. eigenvalues --    3.07322   3.09418   3.10355   3.13061   3.15698
 Alpha virt. eigenvalues --    3.16502   3.36296   3.65756   3.72392   3.79457
 Alpha virt. eigenvalues --    3.80146   3.83546   3.89747   3.92424   3.94129
 Alpha virt. eigenvalues --    3.95458   3.96955   3.98003   3.99793   4.01244
 Alpha virt. eigenvalues --    4.01858   4.02250   4.03125   4.06326   4.07002
 Alpha virt. eigenvalues --    4.08573   4.09601   4.10564   4.12327   4.12850
 Alpha virt. eigenvalues --    4.13678   4.14305   4.15356   4.16531   4.17978
 Alpha virt. eigenvalues --    4.20012   4.20437   4.22831   4.23433   4.24860
 Alpha virt. eigenvalues --    4.26115   4.26579   4.27546   4.30036   4.31247
 Alpha virt. eigenvalues --    4.33002   4.34921   4.35384   4.37406   4.38612
 Alpha virt. eigenvalues --    4.39954   4.40014   4.41647   4.42064   4.44805
 Alpha virt. eigenvalues --    4.48147   4.50419   4.52272   4.53220   4.54480
 Alpha virt. eigenvalues --    4.55245   4.57490   4.60531   4.63328   4.65136
 Alpha virt. eigenvalues --    4.66935   4.71596
          Condensed to atoms (all electrons):
 Mulliken charges:
               1
     1  N   -0.743147
     2  H    0.420029
     3  H    0.426613
     4  H    0.402353
     5  C   -0.122296
     6  H    0.209312
     7  C    0.642815
     8  C   -0.412475
     9  H    0.231363
    10  H    0.219668
    11  O   -0.502251
    12  C    0.302508
    13  C   -0.101640
    14  H    0.169087
    15  N   -0.603308
    16  H    0.353788
    17  C    0.224468
    18  H    0.199255
    19  N   -0.387611
    20  N   -0.595947
    21  H    0.354175
    22  C   -0.114359
    23  H    0.200846
    24  C    0.649815
    25  C    0.138876
    26  H    0.135636
    27  O   -0.583306
    28  C   -0.483158
    29  H    0.176489
    30  H    0.194321
    31  H    0.159860
    32  O   -0.602307
    33  H    0.398274
    34  N   -0.581176
    35  H    0.352176
    36  C   -0.096098
    37  H    0.196291
    38  C    0.646736
    39  C   -0.295686
    40  H    0.188902
    41  H    0.162087
    42  O   -0.528848
    43  C   -0.065728
    44  H    0.108891
    45  C   -0.442045
    46  H    0.135176
    47  H    0.155983
    48  H    0.145790
    49  C   -0.494249
    50  H    0.198307
    51  H    0.131013
    52  H    0.122164
    53  N   -0.619780
    54  H    0.351982
    55  C   -0.055336
    56  H    0.196812
    57  C    0.659544
    58  C   -0.467798
    59  H    0.191488
    60  H    0.161725
    61  H    0.132930
    62  O   -0.550092
    63  N   -0.606808
    64  H    0.370701
    65  C   -0.089967
    66  H    0.181523
    67  C    0.649905
    68  C   -0.367985
    69  H    0.178727
    70  H    0.178806
    71  O   -0.538024
    72  C    0.167608
    73  C   -0.191154
    74  H    0.151134
    75  C   -0.182230
    76  H    0.143191
    77  C   -0.184700
    78  H    0.131481
    79  C   -0.197947
    80  H    0.129715
    81  O   -0.653756
    82  H    0.413863
    83  C    0.351749
    84  N   -0.625096
    85  H    0.385172
    86  C   -0.066130
    87  H    0.181537
    88  C    0.643742
    89  C   -0.339518
    90  H    0.208967
    91  H    0.177171
    92  O   -0.541080
    93  C    0.580938
    94  O   -0.476385
    95  O   -0.548070
    96  N   -0.625758
    97  H    0.347212
    98  C    0.001515
    99  H    0.186156
   100  C    0.571768
   101  C   -0.282052
   102  H    0.147114
   103  H    0.174729
   104  O   -0.601923
   105  C   -0.285690
   106  H    0.168105
   107  H    0.143188
   108  C   -0.291295
   109  H    0.148835
   110  H    0.163614
   111  C   -0.140472
   112  H    0.145010
   113  H    0.160896
   114  N   -0.777567
   115  H    0.330297
   116  H    0.455359
   117  H    0.341507
   118  O   -0.507845
   119  H    0.411307
 Sum of Mulliken charges =   1.00000
 Mulliken charges with hydrogens summed into heavy atoms:
               1
     1  N    0.505848
     5  C    0.087016
     7  C    0.642815
     8  C    0.038556
    11  O   -0.502251
    12  C    0.302508
    13  C    0.067447
    15  N   -0.249520
    17  C    0.423723
    19  N   -0.387611
    20  N   -0.241772
    22  C    0.086487
    24  C    0.649815
    25  C    0.274512
    27  O   -0.583306
    28  C    0.047513
    32  O   -0.204033
    34  N   -0.229000
    36  C    0.100193
    38  C    0.646736
    39  C    0.055303
    42  O   -0.528848
    43  C    0.043164
    45  C   -0.005097
    49  C   -0.042766
    53  N   -0.267798
    55  C    0.141476
    57  C    0.659544
    58  C    0.018344
    62  O   -0.550092
    63  N   -0.236107
    65  C    0.091556
    67  C    0.649905
    68  C   -0.010452
    71  O   -0.538024
    72  C    0.167608
    73  C   -0.040020
    75  C   -0.039038
    77  C   -0.053219
    79  C   -0.068233
    81  O   -0.239892
    83  C    0.351749
    84  N   -0.239924
    86  C    0.115407
    88  C    0.643742
    89  C    0.046620
    92  O   -0.541080
    93  C    0.580938
    94  O   -0.476385
    95  O   -0.136762
    96  N   -0.278546
    98  C    0.187671
   100  C    0.571768
   101  C    0.039791
   104  O   -0.146563
   105  C    0.025603
   108  C    0.021155
   111  C    0.165435
   114  N   -0.105763
   118  O   -0.507845
 Electronic spatial extent (au):  <R**2>=          82983.9766
 Charge=              1.0000 electrons
 Dipole moment (field-independent basis, Debye):
    X=             -9.5596    Y=            -22.4928    Z=            -21.6835  Tot=             32.6724
 Quadrupole moment (field-independent basis, Debye-Ang):
   XX=           -150.3669   YY=           -206.0726   ZZ=           -180.8846
   XY=             74.2573   XZ=            149.1184   YZ=            123.4258
 Traceless Quadrupole moment (field-independent basis, Debye-Ang):
   XX=             28.7411   YY=            -26.9646   ZZ=             -1.7766
   XY=             74.2573   XZ=            149.1184   YZ=            123.4258
 Octapole moment (field-independent basis, Debye-Ang**2):
  XXX=            118.3725  YYY=            247.7181  ZZZ=            619.4448  XYY=           -989.2009
  XXY=            -63.9442  XXZ=            691.6942  XZZ=           -669.0908  YZZ=           -487.5750
  YYZ=           -511.9727  XYZ=           -527.8716
 Hexadecapole moment (field-independent basis, Debye-Ang**3):
 XXXX=         -28918.8915 YYYY=         -11153.3167 ZZZZ=         -31517.4774 XXXY=          -2911.5665
 XXXZ=          -2069.1206 YYYX=           -849.4225 YYYZ=            381.6271 ZZZX=         -10196.4812
 ZZZY=            284.9225 XXYY=          -9758.1715 XXZZ=          -7876.5780 YYZZ=          -2837.0285
 XXYZ=            470.0643 YYXZ=          -1669.8151 ZZXY=           1241.1760
 N-N= 9.066317074897D+03 E-N=-2.493896219563D+04  KE= 2.906893558086D+03
 Unable to Open any file for archive entry.
 1\1\GINC-SKL-139\SP\RB3LYP\6-31G(d)\C38H59N10O12(1+)\KENGMITH\19-Jun-2
 022\0\\# B3LYP/6-31G* empiricaldispersion=gd3 guess=read geom=check no
 symm integral(ultrafinegrid)\\Candidate Structure: Conf:234 Charge cal
 c in gas phase\\1,1\N,0,-5.1504336451,-5.4389647154,-6.4658259812\H,0,
 -5.4850126141,-6.4068391139,-6.4880210245\H,0,-5.8859255256,-4.8523859
 548,-6.010582728\H,0,-4.9472595382,-5.1270761795,-7.4354148657\C,0,-3.
 9320147348,-5.2505857273,-5.6013332274\H,0,-3.358096414,-6.1797094017,
 -5.6039014329\C,0,-4.4822519439,-4.8581845237,-4.2171798868\C,0,-3.093
 8173189,-4.060313295,-6.1646345213\H,0,-2.2030217913,-3.9477994744,-5.
 5362202685\H,0,-3.6751469728,-3.1412761907,-6.025278045\O,0,-5.6127022
 884,-4.3780150964,-4.1619877957\C,0,-2.7834637998,-4.2253682542,-7.612
 5104565\C,0,-3.4890191863,-3.8225084051,-8.7327874088\H,0,-4.346954904
 ,-3.1601154379,-8.7691999795\N,0,-1.74259571,-4.9866136115,-8.11408432
 3\H,0,-0.9732238162,-5.3742838669,-7.5837498778\C,0,-1.8536656392,-4.9
 767967223,-9.4799282106\H,0,-1.1411478744,-5.4799961651,-10.1199105283
 \N,0,-2.9021533501,-4.2955665084,-9.882231807\N,0,-3.6196440215,-4.999
 5039535,-3.1887283693\H,0,-2.657443713,-5.2092341245,-3.4496582714\C,0
 ,-3.6421947359,-4.054532791,-2.0556742997\H,0,-4.6658637517,-3.6933314
 35,-1.938954406\C,0,-2.6556092752,-2.9444074605,-2.4470906942\C,0,-3.2
 163469656,-4.7834867332,-0.7575011262\H,0,-2.2200390855,-5.2235769094,
 -0.9365714443\O,0,-1.6383798895,-3.2482574225,-3.0927824478\C,0,-3.136
 1291821,-3.8389238209,0.4345094863\H,0,-2.3481127636,-3.0918260994,0.3
 014368612\H,0,-2.9177615955,-4.4210649294,1.3331112131\H,0,-4.09556088
 51,-3.3318752142,0.5895259085\O,0,-4.1694186319,-5.7811066882,-0.44331
 50736\H,0,-4.177432645,-6.4343823879,-1.1608019342\N,0,-2.9538553328,-
 1.6948989522,-2.0683653538\H,0,-3.7701059749,-1.5331633378,-1.49156144
 6\C,0,-2.0660578116,-0.551818062,-2.3323638341\H,0,-1.4683525668,-0.83
 25322959,-3.2032865586\C,0,-1.1051305204,-0.3792437106,-1.1344549781\C
 ,0,-2.8617073496,0.7135066662,-2.6369202277\H,0,-2.1355332705,1.470622
 3966,-2.9511050133\H,0,-3.3041450402,1.0934816957,-1.7083343226\O,0,-1
 .1551876102,0.59671657,-0.3906739078\C,0,-3.956518243,0.5440338831,-3.
 7119296675\H,0,-4.7779387984,-0.042659243,-3.2721588048\C,0,-4.5137157
 552,1.9241176023,-4.0881790397\H,0,-3.7340775094,2.5253396354,-4.57262
 90568\H,0,-4.8586357366,2.4732891826,-3.2048827554\H,0,-5.3552874797,1
 .8384308426,-4.7848662515\C,0,-3.4753525051,-0.1994877308,-4.969379722
 4\H,0,-2.6511345962,0.3352175538,-5.4524201735\H,0,-4.2942700062,-0.27
 87959829,-5.6960184538\H,0,-3.1330639433,-1.2155890747,-4.7381252167\N
 ,0,-0.2524731642,-1.42301664,-0.9646584069\H,0,-0.1849056531,-2.115258
 586,-1.7032130834\C,0,0.7586115995,-1.4606263347,0.1015608458\H,0,0.32
 05125417,-0.9754498518,0.9773950788\C,0,1.9836026696,-0.6381596805,-0.
 3437356231\C,0,1.1446287311,-2.8953390578,0.4300631151\H,0,1.844829457
 2,-2.884792299,1.267296055\H,0,1.6448441791,-3.3682800372,-0.420747469
 5\H,0,0.2581016967,-3.4758111872,0.7082396609\O,0,3.0352449109,-1.1615
 862989,-0.7113404245\N,0,1.7731052102,0.6984211438,-0.3543582427\H,0,0
 .8760407077,1.0551504853,-0.0400948568\C,0,2.7974388522,1.6421327887,-
 0.786512716\H,0,3.4417597434,1.1095401042,-1.4930857354\C,0,3.63316779
 97,2.0220246761,0.4533968105\C,0,2.1655347917,2.8698970586,-1.43615382
 33\H,0,1.6193403142,3.4262695059,-0.665452088\H,0,2.980349806,3.538401
 0803,-1.7428848016\O,0,3.5028025506,3.0946047645,1.0368191282\C,0,1.25
 8806773,2.5890416733,-2.6211180929\C,0,1.2879857711,1.3947264891,-3.35
 65167165\H,0,1.9502170755,0.5868138692,-3.0612724834\C,0,0.3711123469,
 3.5875872362,-3.0420400245\H,0,0.3145225241,4.518707428,-2.4833996413\
 C,0,0.4808982091,1.2129798875,-4.480641313\H,0,0.5227007954,0.29403539
 23,-5.0579780073\C,0,-0.4361775145,3.4261305503,-4.1670692477\H,0,-1.1
 102139695,4.2230404761,-4.4760212978\O,0,-1.1342906843,2.0140205879,-6
 .0205294759\H,0,-1.6272323521,2.8214368451,-6.2350777081\C,0,-0.371375
 2091,2.2374604729,-4.8986113695\N,0,4.4689262052,1.0359601704,0.875200
 6668\H,0,4.4373967825,0.1151725958,0.4386824494\C,0,5.0833557198,1.111
 0805737,2.1823833002\H,0,5.5205760471,2.1072365037,2.302931436\C,0,6.1
 502459628,0.0128893176,2.2754566956\C,0,4.0382424857,0.9352823901,3.32
 99683254\H,0,3.2676021837,1.6957969126,3.1893441965\H,0,4.5303746632,1
 .0830852754,4.2948462841\O,0,6.028932362,-1.0373613216,1.6479008962\C,
 0,3.4014598199,-0.4329691604,3.2792172949\O,0,2.4644306436,-0.74905075
 4,2.5723440433\O,0,4.0243457607,-1.3048524973,4.1006478533\N,0,7.15699
 05443,0.2584242894,3.1412465992\H,0,7.2593782436,1.15508518,3.60273023
 7\C,0,8.1714393063,-0.7333876311,3.4549285766\H,0,7.6934007111,-1.7122
 352044,3.5359630488\C,0,8.8134255518,-0.3701214629,4.78210201\C,0,9.27
 46495088,-0.7921469154,2.3474053497\H,0,9.4243062336,0.2320357603,1.98
 41801136\H,0,8.8422572296,-1.3591413353,1.5176110172\O,0,9.3041540231,
 -1.4370120262,5.3991203332\C,0,10.634739767,-1.3865451905,2.7774299482
 \H,0,10.4675556773,-2.2119412838,3.475815778\H,0,11.1156087037,-1.8250
 37759,1.895532486\C,0,11.6023513198,-0.3370813371,3.3972900757\H,0,12.
 2845306702,0.0105457126,2.612616863\H,0,11.0457965406,0.5541818925,3.7
 113789979\C,0,12.4538431325,-0.811311218,4.5913047574\H,0,13.413348347
 7,-0.2746978595,4.5933247181\H,0,12.6839900289,-1.8786662491,4.4964871
 738\N,0,11.7505544322,-0.6203008876,5.8873293178\H,0,12.3235818966,-0.
 9652965493,6.6562269035\H,0,10.1927218503,-1.1632134013,5.8427172923\H
 ,0,11.6017343521,0.3758803654,6.0525681043\O,0,8.9568266324,0.78801378
 17,5.1465352176\H,0,3.6240782185,-2.1805157545,3.9436233343\\Version=E
 S64L-G16RevC.01\HF=-2933.8541211\RMSD=8.293e-09\Dipole=-6.2354598,-6.8
 33207,-6.358003\Quadrupole=21.3683353,-20.0475057,-1.3208297,55.208475
 1,110.8658451,91.7640818\PG=C01 [X(C38H59N10O12)]\\@
 The archive entry for this job was punched.


 A MUSTACHE HAIR ACROSS A CHIP IS LIKE A REDWOOD
 TREE FALLING THROUGH A HOUSING PROJECT.
 - AN IBM MANAGER IN EAST FISHKILL, NEW YORK
   AS QUOTED IN "FROM SANDS TO CIRCUITS", IBM INNOVATION JANUARY 1985.
 Job cpu time:       0 days  0 hours  5 minutes 35.7 seconds.
 Elapsed time:       0 days  0 hours  1 minutes 25.5 seconds.
 File lengths (MBytes):  RWF=    656 Int=      0 D2E=      0 Chk=    104 Scr=     16
 Normal termination of Gaussian 16 at Sun Jun 19 13:58:05 2022.
