 Entering Gaussian System, Link 0=/opt/software/Gaussian/g16-AVX2-C.01/g16/g16
 Input=charge-conf-578.com
 Output=charge-conf-578.log
 Initial command:
 /opt/software/Gaussian/g16-AVX2-C.01/g16/l1.exe "/mnt/gs18/scratch/users/kengmith/Gau-40996.inp" -scrdir="/mnt/gs18/scratch/users/kengmith/"
 Entering Link 1 = /opt/software/Gaussian/g16-AVX2-C.01/g16/l1.exe PID=     41023.
  
 Copyright (c) 1988-2019, Gaussian, Inc.  All Rights Reserved.
  
 This is part of the Gaussian(R) 16 program.  It is based on
 the Gaussian(R) 09 system (copyright 2009, Gaussian, Inc.),
 the Gaussian(R) 03 system (copyright 2003, Gaussian, Inc.),
 the Gaussian(R) 98 system (copyright 1998, Gaussian, Inc.),
 the Gaussian(R) 94 system (copyright 1995, Gaussian, Inc.),
 the Gaussian 92(TM) system (copyright 1992, Gaussian, Inc.),
 the Gaussian 90(TM) system (copyright 1990, Gaussian, Inc.),
 the Gaussian 88(TM) system (copyright 1988, Gaussian, Inc.),
 the Gaussian 86(TM) system (copyright 1986, Carnegie Mellon
 University), and the Gaussian 82(TM) system (copyright 1983,
 Carnegie Mellon University). Gaussian is a federally registered
 trademark of Gaussian, Inc.
  
 This software contains proprietary and confidential information,
 including trade secrets, belonging to Gaussian, Inc.
  
 This software is provided under written license and may be
 used, copied, transmitted, or stored only in accord with that
 written license.
  
 The following legend is applicable only to US Government
 contracts under FAR:
  
                    RESTRICTED RIGHTS LEGEND
  
 Use, reproduction and disclosure by the US Government is
 subject to restrictions as set forth in subparagraphs (a)
 and (c) of the Commercial Computer Software - Restricted
 Rights clause in FAR 52.227-19.
  
 Gaussian, Inc.
 340 Quinnipiac St., Bldg. 40, Wallingford CT 06492
  
  
 ---------------------------------------------------------------
 Warning -- This program may not be used in any manner that
 competes with the business of Gaussian, Inc. or will provide
 assistance to any competitor of Gaussian, Inc.  The licensee
 of this program is prohibited from giving any competitor of
 Gaussian, Inc. access to this program.  By using this program,
 the user acknowledges that Gaussian, Inc. is engaged in the
 business of creating and licensing software in the field of
 computational chemistry and represents and warrants to the
 licensee that it is not a competitor of Gaussian, Inc. and that
 it will not use this program in any manner prohibited above.
 ---------------------------------------------------------------
  

 Cite this work as:
 Gaussian 16, Revision C.01,
 M. J. Frisch, G. W. Trucks, H. B. Schlegel, G. E. Scuseria, 
 M. A. Robb, J. R. Cheeseman, G. Scalmani, V. Barone, 
 G. A. Petersson, H. Nakatsuji, X. Li, M. Caricato, A. V. Marenich, 
 J. Bloino, B. G. Janesko, R. Gomperts, B. Mennucci, H. P. Hratchian, 
 J. V. Ortiz, A. F. Izmaylov, J. L. Sonnenberg, D. Williams-Young, 
 F. Ding, F. Lipparini, F. Egidi, J. Goings, B. Peng, A. Petrone, 
 T. Henderson, D. Ranasinghe, V. G. Zakrzewski, J. Gao, N. Rega, 
 G. Zheng, W. Liang, M. Hada, M. Ehara, K. Toyota, R. Fukuda, 
 J. Hasegawa, M. Ishida, T. Nakajima, Y. Honda, O. Kitao, H. Nakai, 
 T. Vreven, K. Throssell, J. A. Montgomery, Jr., J. E. Peralta, 
 F. Ogliaro, M. J. Bearpark, J. J. Heyd, E. N. Brothers, K. N. Kudin, 
 V. N. Staroverov, T. A. Keith, R. Kobayashi, J. Normand, 
 K. Raghavachari, A. P. Rendell, J. C. Burant, S. S. Iyengar, 
 J. Tomasi, M. Cossi, J. M. Millam, M. Klene, C. Adamo, R. Cammi, 
 J. W. Ochterski, R. L. Martin, K. Morokuma, O. Farkas, 
 J. B. Foresman, and D. J. Fox, Gaussian, Inc., Wallingford CT, 2019.
 
 ******************************************
 Gaussian 16:  ES64L-G16RevC.01  3-Jul-2019
                30-Jun-2022 
 ******************************************
 %mem=8gb
 %nproc=4
 Will use up to    4 processors via shared memory.
 %chk=conf-578.chk
 ----------------------------------------------------------------------
 # B3LYP/6-31G* empiricaldispersion=gd3bj guess=read geom=check nosymm 
 integral(ultrafinegrid)
 ----------------------------------------------------------------------
 1/29=2,38=1,172=1/1;
 2/12=2,15=1,40=1/2;
 3/5=1,6=6,7=1,11=2,14=-4,25=1,30=1,74=-5,75=-5,116=-2,124=41/1,2,3;
 4/5=1/1;
 5/5=2,38=6/2;
 6/7=2,8=2,9=2,10=2,28=1/1;
 99/5=1,9=1/99;
 ------------------------------------------------------
 Candidate Structure: Conf:578 Charge calc in gas phase
 ------------------------------------------------------
 Structure from the checkpoint file:  "conf-578.chk"
 Charge =  1 Multiplicity = 1
 Redundant internal coordinates found in file.  (old form).
 N,0,-5.5427957486,-4.345299988,-1.8920192025
 H,0,-5.6636788787,-5.2000918118,-2.4419557391
 H,0,-6.3405919384,-4.2410752754,-1.2594492032
 H,0,-4.6336643471,-4.4131710472,-1.3497829418
 C,0,-5.3078055689,-3.1149091627,-2.7472866761
 H,0,-5.6471573397,-3.3403845451,-3.7592727119
 C,0,-3.7739760794,-2.9554057386,-2.6726578164
 C,0,-6.089640744,-1.9130956737,-2.1579067041
 H,0,-7.1435441555,-2.2346266067,-2.153796351
 O,0,-3.1773219988,-3.5424027285,-1.7612428936
 C,0,-5.9970543136,-0.6594914646,-3.0509465746
 H,0,-4.9841849483,-0.247835204,-2.9787784522
 H,0,-6.6506439835,0.0904197562,-2.5916213235
 C,0,-5.6468528234,-1.5789765954,-0.7249336492
 H,0,-4.6278703042,-1.1819312341,-0.717489832
 H,0,-6.310020298,-0.8127693521,-0.3139106242
 H,0,-5.6905989505,-2.4360540223,-0.040648802
 C,0,-6.428710665,-0.8570998474,-4.507963225
 H,0,-6.4595775742,0.1038838538,-5.0292119061
 H,0,-5.7504488519,-1.5037038994,-5.0823868359
 H,0,-7.4295724165,-1.299839902,-4.5749907596
 N,0,-3.1870147123,-2.1879288506,-3.5944440525
 H,0,-3.7821557145,-1.6485757967,-4.2101433339
 C,0,-1.8318881775,-1.6750132539,-3.3851716027
 H,0,-1.1600386414,-2.5264441626,-3.2502701655
 C,0,-1.8262739917,-0.7815607544,-2.1297206684
 C,0,-1.4113775331,-0.8522493695,-4.6245959678
 H,0,-2.1782305141,-0.0864692293,-4.7972465335
 H,0,-1.4049741742,-1.521091558,-5.4930438423
 O,0,-2.812724222,-0.0955126804,-1.845043903
 C,0,-0.0658998276,-0.1897976231,-4.4407214304
 C,0,0.012967595,1.1487745799,-4.0402606139
 H,0,-0.9010039264,1.7237487699,-3.9123871697
 C,0,1.1156138547,-0.924130175,-4.5925530936
 H,0,1.0679808864,-1.9638725163,-4.9090480445
 C,0,1.2506670064,1.7434820185,-3.7958665047
 H,0,1.298132458,2.783524875,-3.4875866594
 C,0,2.3536012632,-0.3337240022,-4.3416377432
 H,0,3.2628791673,-0.9153922418,-4.4550725509
 C,0,2.4228551529,1.0017244898,-3.9439261075
 H,0,3.3881463658,1.4612948937,-3.7539564887
 N,0,-0.6722187956,-0.7785696835,-1.4523756735
 H,0,0.1368546194,-1.292539608,-1.7948962556
 C,0,-0.327477282,0.2467211575,-0.4794548736
 H,0,-0.8438530038,1.1709531679,-0.7607970503
 C,0,1.1893932332,0.4150306814,-0.6107332411
 C,0,-0.7662996726,-0.1468083509,0.9584501285
 H,0,-1.8419767058,-0.3446416043,0.866318639
 O,0,1.8894892491,-0.5085939257,-1.0194168842
 C,0,-0.064780849,-1.4182040299,1.4478637042
 H,0,1.0073883777,-1.2459885933,1.5866655834
 H,0,-0.485185318,-1.7317445776,2.4097038636
 H,0,-0.1919504886,-2.2425745122,0.7391600685
 C,0,-0.5712704054,1.0079326275,1.949331815
 H,0,0.4921836489,1.1782454906,2.1481875462
 H,0,-1.0243505973,1.9389187236,1.5833149308
 H,0,-1.0518571995,0.7674278366,2.90361184
 N,0,1.7006835157,1.6201005334,-0.2598169278
 H,0,1.1071866982,2.2650625472,0.2435467617
 C,0,3.1381795893,1.7635032688,-0.0998784868
 H,0,3.6098176922,1.5079188136,-1.0534487715
 C,0,3.6626701955,0.8287957681,0.9926462623
 C,0,3.4595372344,3.2242473502,0.2763793154
 H,0,3.0063604596,3.862934318,-0.4898115763
 H,0,2.9809862037,3.4554881509,1.2350037804
 O,0,2.9859982338,0.6724438414,2.0381930991
 C,0,4.9540852324,3.5527629527,0.3866519573
 H,0,5.0909343693,4.6282681016,0.2187553849
 H,0,5.5393947629,3.0452685578,-0.3879776451
 C,0,5.5768896782,3.2578292168,1.7512793412
 N,0,6.9150851715,3.1258244444,1.7452857007
 H,0,7.349865481,2.7262599167,0.9100207214
 H,0,7.3529212678,2.8138615948,2.6049732511
 O,0,4.8877256657,3.2233772317,2.7873636773
 N,0,4.8723460788,0.3342028889,0.7776043328
 H,0,5.4117864961,0.6005025059,-0.0606830307
 C,0,5.8342739601,-0.0545463887,1.8023370262
 H,0,5.6970805576,0.6298034607,2.6413142053
 C,0,7.2534867455,0.3489436192,1.2567666134
 C,0,5.7450211112,-1.4925320145,2.3220490726
 H,0,6.7677389299,-1.8253507435,2.5258705944
 H,0,5.3282232817,-2.1412918067,1.5445367901
 O,0,8.1649308235,0.2268771059,2.0887546352
 C,0,4.9174233023,-1.6023004873,3.6134571171
 H,0,3.8831447113,-1.3067667404,3.3994402833
 H,0,4.8748152102,-2.6490097345,3.9336872563
 C,0,5.5118941419,-0.7375794341,4.7581482632
 H,0,6.4039941413,-0.2028153702,4.4084625248
 H,0,5.8609609161,-1.38008803,5.5740970802
 C,0,4.5316565662,0.2445687129,5.3963728416
 H,0,3.6481008882,-0.2809774666,5.7706182289
 H,0,4.9904269706,0.7824072803,6.2305476119
 N,0,4.0207636268,1.2819658802,4.4335985275
 H,0,3.2858730013,1.8520836318,4.8594672354
 H,0,3.6130762186,0.8740895015,3.5416030506
 H,0,4.7250408281,1.962985238,4.0754650565
 O,0,7.2605155242,0.8557670694,0.092411457
 Recover connectivity data from disk.
                           ----------------------------
                           !    Current Parameters    !
                           ! (Angstroms and Degrees)  !
 --------------------------                            --------------------------
 ! Name  Definition              Value                                          !
 --------------------------------------------------------------------------------
 ! R1    R(1,2)                  1.0236                                         !
 ! R2    R(1,3)                  1.0235                                         !
 ! R3    R(1,4)                  1.0607                                         !
 ! R4    R(1,5)                  1.5168                                         !
 ! R5    R(5,6)                  1.0909                                         !
 ! R6    R(5,7)                  1.5439                                         !
 ! R7    R(5,8)                  1.5502                                         !
 ! R8    R(7,10)                 1.2374                                         !
 ! R9    R(7,22)                 1.3354                                         !
 ! R10   R(8,9)                  1.1019                                         !
 ! R11   R(8,11)                 1.542                                          !
 ! R12   R(8,14)                 1.5366                                         !
 ! R13   R(11,12)                1.0957                                         !
 ! R14   R(11,13)                1.0957                                         !
 ! R15   R(11,18)                1.5324                                         !
 ! R16   R(14,15)                1.0936                                         !
 ! R17   R(14,16)                1.0935                                         !
 ! R18   R(14,17)                1.0976                                         !
 ! R19   R(18,19)                1.0937                                         !
 ! R20   R(18,20)                1.0991                                         !
 ! R21   R(18,21)                1.0965                                         !
 ! R22   R(22,23)                1.012                                          !
 ! R23   R(22,24)                1.464                                          !
 ! R24   R(24,25)                1.0929                                         !
 ! R25   R(24,26)                1.5409                                         !
 ! R26   R(24,27)                1.5459                                         !
 ! R27   R(26,30)                1.2348                                         !
 ! R28   R(26,42)                1.3382                                         !
 ! R29   R(27,28)                1.0974                                         !
 ! R30   R(27,29)                1.0962                                         !
 ! R31   R(27,31)                1.5109                                         !
 ! R32   R(31,32)                1.3994                                         !
 ! R33   R(31,34)                1.3994                                         !
 ! R34   R(32,33)                1.0873                                         !
 ! R35   R(32,36)                1.3947                                         !
 ! R36   R(34,35)                1.0879                                         !
 ! R37   R(34,38)                1.3943                                         !
 ! R38   R(36,37)                1.0858                                         !
 ! R39   R(36,40)                1.395                                          !
 ! R40   R(38,39)                1.0854                                         !
 ! R41   R(38,40)                1.3951                                         !
 ! R42   R(40,41)                1.0859                                         !
 ! R43   R(42,43)                1.0179                                         !
 ! R44   R(42,44)                1.4549                                         !
 ! R45   R(44,45)                1.0954                                         !
 ! R46   R(44,46)                1.5318                                         !
 ! R47   R(44,47)                1.554                                          !
 ! R48   R(46,49)                1.2289                                         !
 ! R49   R(46,58)                1.3553                                         !
 ! R50   R(47,48)                1.0976                                         !
 ! R51   R(47,50)                1.5324                                         !
 ! R52   R(47,54)                1.5341                                         !
 ! R53   R(50,51)                1.0947                                         !
 ! R54   R(50,52)                1.0955                                         !
 ! R55   R(50,53)                1.0945                                         !
 ! R56   R(54,55)                1.0952                                         !
 ! R57   R(54,56)                1.0982                                         !
 ! R58   R(54,57)                1.0952                                         !
 ! R59   R(58,59)                1.0107                                         !
 ! R60   R(58,60)                1.4535                                         !
 ! R61   R(60,61)                1.0941                                         !
 ! R62   R(60,62)                1.5305                                         !
 ! R63   R(60,63)                1.5423                                         !
 ! R64   R(62,66)                1.2552                                         !
 ! R65   R(62,75)                1.3245                                         !
 ! R66   R(63,64)                1.0956                                         !
 ! R67   R(63,65)                1.0961                                         !
 ! R68   R(63,67)                1.5342                                         !
 ! R69   R(67,68)                1.0971                                         !
 ! R70   R(67,69)                1.0955                                         !
 ! R71   R(67,70)                1.5288                                         !
 ! R72   R(70,71)                1.3447                                         !
 ! R73   R(70,74)                1.2448                                         !
 ! R74   R(71,72)                1.0229                                         !
 ! R75   R(71,73)                1.0139                                         !
 ! R76   R(75,76)                1.0318                                         !
 ! R77   R(75,77)                1.4583                                         !
 ! R78   R(77,78)                1.0913                                         !
 ! R79   R(77,79)                1.5731                                         !
 ! R80   R(77,80)                1.5316                                         !
 ! R81   R(79,83)                1.2401                                         !
 ! R82   R(79,97)                1.2699                                         !
 ! R83   R(80,81)                1.0947                                         !
 ! R84   R(80,82)                1.0951                                         !
 ! R85   R(80,84)                1.5378                                         !
 ! R86   R(84,85)                1.0968                                         !
 ! R87   R(84,86)                1.0954                                         !
 ! R88   R(84,87)                1.5529                                         !
 ! R89   R(87,88)                1.0973                                         !
 ! R90   R(87,89)                1.0956                                         !
 ! R91   R(87,90)                1.5274                                         !
 ! R92   R(90,91)                1.094                                          !
 ! R93   R(90,92)                1.0934                                         !
 ! R94   R(90,93)                1.5047                                         !
 ! R95   R(93,94)                1.023                                          !
 ! R96   R(93,95)                1.0622                                         !
 ! R97   R(93,96)                1.0431                                         !
 ! A1    A(2,1,3)              108.9687                                         !
 ! A2    A(2,1,4)              108.8101                                         !
 ! A3    A(2,1,5)              113.1272                                         !
 ! A4    A(3,1,4)              111.0181                                         !
 ! A5    A(3,1,5)              112.7476                                         !
 ! A6    A(4,1,5)              101.9681                                         !
 ! A7    A(1,5,6)              107.8919                                         !
 ! A8    A(1,5,7)              102.1497                                         !
 ! A9    A(1,5,8)              109.6564                                         !
 ! A10   A(6,5,7)              112.0386                                         !
 ! A11   A(6,5,8)              110.8574                                         !
 ! A12   A(7,5,8)              113.7403                                         !
 ! A13   A(5,7,10)             117.7503                                         !
 ! A14   A(5,7,22)             117.5607                                         !
 ! A15   A(10,7,22)            124.6883                                         !
 ! A16   A(5,8,9)              104.9271                                         !
 ! A17   A(5,8,11)             112.3225                                         !
 ! A18   A(5,8,14)             112.1981                                         !
 ! A19   A(9,8,11)             107.2672                                         !
 ! A20   A(9,8,14)             109.6085                                         !
 ! A21   A(11,8,14)            110.2444                                         !
 ! A22   A(8,11,12)            108.8325                                         !
 ! A23   A(8,11,13)            106.1304                                         !
 ! A24   A(8,11,18)            115.3988                                         !
 ! A25   A(12,11,13)           105.466                                          !
 ! A26   A(12,11,18)           111.8057                                         !
 ! A27   A(13,11,18)           108.5915                                         !
 ! A28   A(8,14,15)            110.719                                          !
 ! A29   A(8,14,16)            109.1549                                         !
 ! A30   A(8,14,17)            113.5855                                         !
 ! A31   A(15,14,16)           107.9456                                         !
 ! A32   A(15,14,17)           108.4445                                         !
 ! A33   A(16,14,17)           106.7759                                         !
 ! A34   A(11,18,19)           110.3525                                         !
 ! A35   A(11,18,20)           113.5119                                         !
 ! A36   A(11,18,21)           111.5502                                         !
 ! A37   A(19,18,20)           106.5735                                         !
 ! A38   A(19,18,21)           107.4515                                         !
 ! A39   A(20,18,21)           107.0851                                         !
 ! A40   A(7,22,23)            117.8898                                         !
 ! A41   A(7,22,24)            120.6338                                         !
 ! A42   A(23,22,24)           116.3973                                         !
 ! A43   A(22,24,25)           108.2834                                         !
 ! A44   A(22,24,26)           108.8432                                         !
 ! A45   A(22,24,27)           108.8833                                         !
 ! A46   A(25,24,26)           110.4195                                         !
 ! A47   A(25,24,27)           110.2645                                         !
 ! A48   A(26,24,27)           110.0978                                         !
 ! A49   A(24,26,30)           120.468                                          !
 ! A50   A(24,26,42)           114.6354                                         !
 ! A51   A(30,26,42)           124.8214                                         !
 ! A52   A(24,27,28)           107.9048                                         !
 ! A53   A(24,27,29)           108.1815                                         !
 ! A54   A(24,27,31)           112.2094                                         !
 ! A55   A(28,27,29)           107.7712                                         !
 ! A56   A(28,27,31)           109.6007                                         !
 ! A57   A(29,27,31)           111.0221                                         !
 ! A58   A(27,31,32)           120.2904                                         !
 ! A59   A(27,31,34)           120.5688                                         !
 ! A60   A(32,31,34)           119.039                                          !
 ! A61   A(31,32,33)           119.4777                                         !
 ! A62   A(31,32,36)           120.5313                                         !
 ! A63   A(33,32,36)           119.9893                                         !
 ! A64   A(31,34,35)           119.7442                                         !
 ! A65   A(31,34,38)           120.5252                                         !
 ! A66   A(35,34,38)           119.7306                                         !
 ! A67   A(32,36,37)           119.7992                                         !
 ! A68   A(32,36,40)           120.0217                                         !
 ! A69   A(37,36,40)           120.1788                                         !
 ! A70   A(34,38,39)           119.8743                                         !
 ! A71   A(34,38,40)           120.0459                                         !
 ! A72   A(39,38,40)           120.0798                                         !
 ! A73   A(36,40,38)           119.8352                                         !
 ! A74   A(36,40,41)           120.222                                          !
 ! A75   A(38,40,41)           119.9424                                         !
 ! A76   A(26,42,43)           120.9338                                         !
 ! A77   A(26,42,44)           122.9859                                         !
 ! A78   A(43,42,44)           113.112                                          !
 ! A79   A(42,44,45)           108.1277                                         !
 ! A80   A(42,44,46)           104.7598                                         !
 ! A81   A(42,44,47)           111.925                                          !
 ! A82   A(45,44,46)           110.6141                                         !
 ! A83   A(45,44,47)           108.553                                          !
 ! A84   A(46,44,47)           112.752                                          !
 ! A85   A(44,46,49)           120.667                                          !
 ! A86   A(44,46,58)           116.6852                                         !
 ! A87   A(49,46,58)           122.6475                                         !
 ! A88   A(44,47,48)           104.165                                          !
 ! A89   A(44,47,50)           112.1081                                         !
 ! A90   A(44,47,54)           111.7861                                         !
 ! A91   A(48,47,50)           109.0217                                         !
 ! A92   A(48,47,54)           108.33                                           !
 ! A93   A(50,47,54)           111.1031                                         !
 ! A94   A(47,50,51)           110.9981                                         !
 ! A95   A(47,50,52)           110.0105                                         !
 ! A96   A(47,50,53)           111.4022                                         !
 ! A97   A(51,50,52)           108.0313                                         !
 ! A98   A(51,50,53)           108.3225                                         !
 ! A99   A(52,50,53)           107.9588                                         !
 ! A100  A(47,54,55)           110.9641                                         !
 ! A101  A(47,54,56)           111.7406                                         !
 ! A102  A(47,54,57)           109.9821                                         !
 ! A103  A(55,54,56)           109.2261                                         !
 ! A104  A(55,54,57)           107.5797                                         !
 ! A105  A(56,54,57)           107.1896                                         !
 ! A106  A(46,58,59)           118.3474                                         !
 ! A107  A(46,58,60)           119.2972                                         !
 ! A108  A(59,58,60)           117.5798                                         !
 ! A109  A(58,60,61)           107.9017                                         !
 ! A110  A(58,60,62)           110.93                                           !
 ! A111  A(58,60,63)           109.0486                                         !
 ! A112  A(61,60,62)           109.3756                                         !
 ! A113  A(61,60,63)           110.1243                                         !
 ! A114  A(62,60,63)           109.4439                                         !
 ! A115  A(60,62,66)           119.0744                                         !
 ! A116  A(60,62,75)           115.1608                                         !
 ! A117  A(66,62,75)           125.5286                                         !
 ! A118  A(60,63,64)           107.1779                                         !
 ! A119  A(60,63,65)           108.7964                                         !
 ! A120  A(60,63,67)           115.0447                                         !
 ! A121  A(64,63,65)           107.9416                                         !
 ! A122  A(64,63,67)           109.1706                                         !
 ! A123  A(65,63,67)           108.4982                                         !
 ! A124  A(63,67,68)           108.6888                                         !
 ! A125  A(63,67,69)           111.7432                                         !
 ! A126  A(63,67,70)           114.8166                                         !
 ! A127  A(68,67,69)           106.2166                                         !
 ! A128  A(68,67,70)           105.9571                                         !
 ! A129  A(69,67,70)           108.9136                                         !
 ! A130  A(67,70,71)           114.8587                                         !
 ! A131  A(67,70,74)           121.517                                          !
 ! A132  A(71,70,74)           123.4998                                         !
 ! A133  A(70,71,72)           117.7082                                         !
 ! A134  A(70,71,73)           117.1389                                         !
 ! A135  A(72,71,73)           112.8679                                         !
 ! A136  A(62,75,76)           120.8661                                         !
 ! A137  A(62,75,77)           126.0106                                         !
 ! A138  A(76,75,77)           107.1484                                         !
 ! A139  A(75,77,78)           106.8652                                         !
 ! A140  A(75,77,79)           106.4411                                         !
 ! A141  A(75,77,80)           116.7624                                         !
 ! A142  A(78,77,79)           102.6613                                         !
 ! A143  A(78,77,80)           108.6963                                         !
 ! A144  A(79,77,80)           114.272                                          !
 ! A145  A(77,79,83)           113.9009                                         !
 ! A146  A(77,79,97)           115.1729                                         !
 ! A147  A(83,79,97)           130.569                                          !
 ! A148  A(77,80,81)           107.1089                                         !
 ! A149  A(77,80,82)           109.7235                                         !
 ! A150  A(77,80,84)           112.5408                                         !
 ! A151  A(81,80,82)           107.9197                                         !
 ! A152  A(81,80,84)           108.9502                                         !
 ! A153  A(82,80,84)           110.435                                          !
 ! A154  A(80,84,85)           108.9302                                         !
 ! A155  A(80,84,86)           109.5508                                         !
 ! A156  A(80,84,87)           111.9176                                         !
 ! A157  A(85,84,86)           106.1314                                         !
 ! A158  A(85,84,87)           110.7813                                         !
 ! A159  A(86,84,87)           109.3588                                         !
 ! A160  A(84,87,88)           110.3462                                         !
 ! A161  A(84,87,89)           110.1438                                         !
 ! A162  A(84,87,90)           114.8605                                         !
 ! A163  A(88,87,89)           105.3133                                         !
 ! A164  A(88,87,90)           109.9713                                         !
 ! A165  A(89,87,90)           105.6863                                         !
 ! A166  A(87,90,91)           110.6315                                         !
 ! A167  A(87,90,92)           111.4575                                         !
 ! A168  A(87,90,93)           113.1958                                         !
 ! A169  A(91,90,92)           108.3104                                         !
 ! A170  A(91,90,93)           106.0128                                         !
 ! A171  A(92,90,93)           106.946                                          !
 ! A172  A(90,93,94)           111.2095                                         !
 ! A173  A(90,93,95)           113.7597                                         !
 ! A174  A(90,93,96)           116.1394                                         !
 ! A175  A(94,93,95)           106.7311                                         !
 ! A176  A(94,93,96)           105.3143                                         !
 ! A177  A(95,93,96)           102.7988                                         !
 ! D1    D(2,1,5,6)             18.814                                          !
 ! D2    D(2,1,5,7)            -99.4046                                         !
 ! D3    D(2,1,5,8)            139.6514                                         !
 ! D4    D(3,1,5,6)           -105.4041                                         !
 ! D5    D(3,1,5,7)            136.3772                                         !
 ! D6    D(3,1,5,8)             15.4332                                         !
 ! D7    D(4,1,5,6)            135.4894                                         !
 ! D8    D(4,1,5,7)             17.2707                                         !
 ! D9    D(4,1,5,8)           -103.6732                                         !
 ! D10   D(1,5,7,10)           -17.8713                                         !
 ! D11   D(1,5,7,22)           162.4157                                         !
 ! D12   D(6,5,7,10)          -133.097                                          !
 ! D13   D(6,5,7,22)            47.1899                                         !
 ! D14   D(8,5,7,10)           100.2007                                         !
 ! D15   D(8,5,7,22)           -79.5124                                         !
 ! D16   D(1,5,8,9)            -58.6328                                         !
 ! D17   D(1,5,8,11)          -174.8349                                         !
 ! D18   D(1,5,8,14)            60.3073                                         !
 ! D19   D(6,5,8,9)             60.3931                                         !
 ! D20   D(6,5,8,11)           -55.809                                          !
 ! D21   D(6,5,8,14)           179.3332                                         !
 ! D22   D(7,5,8,9)           -172.289                                          !
 ! D23   D(7,5,8,11)            71.5089                                         !
 ! D24   D(7,5,8,14)           -53.3489                                         !
 ! D25   D(5,7,22,23)            8.4644                                         !
 ! D26   D(5,7,22,24)          162.3635                                         !
 ! D27   D(10,7,22,23)        -171.2268                                         !
 ! D28   D(10,7,22,24)         -17.3277                                         !
 ! D29   D(5,8,11,12)          -71.8649                                         !
 ! D30   D(5,8,11,13)          175.0602                                         !
 ! D31   D(5,8,11,18)           54.7478                                         !
 ! D32   D(9,8,11,12)          173.3493                                         !
 ! D33   D(9,8,11,13)           60.2744                                         !
 ! D34   D(9,8,11,18)          -60.038                                          !
 ! D35   D(14,8,11,12)          54.0608                                         !
 ! D36   D(14,8,11,13)         -59.0141                                         !
 ! D37   D(14,8,11,18)        -179.3265                                         !
 ! D38   D(5,8,14,15)           68.3472                                         !
 ! D39   D(5,8,14,16)         -172.9602                                         !
 ! D40   D(5,8,14,17)          -53.9446                                         !
 ! D41   D(9,8,14,15)         -175.5038                                         !
 ! D42   D(9,8,14,16)          -56.8112                                         !
 ! D43   D(9,8,14,17)           62.2043                                         !
 ! D44   D(11,8,14,15)         -57.6487                                         !
 ! D45   D(11,8,14,16)          61.0439                                         !
 ! D46   D(11,8,14,17)        -179.9405                                         !
 ! D47   D(8,11,18,19)         172.4024                                         !
 ! D48   D(8,11,18,20)         -68.0484                                         !
 ! D49   D(8,11,18,21)          53.035                                          !
 ! D50   D(12,11,18,19)        -62.5088                                         !
 ! D51   D(12,11,18,20)         57.0403                                         !
 ! D52   D(12,11,18,21)        178.1238                                         !
 ! D53   D(13,11,18,19)         53.4426                                         !
 ! D54   D(13,11,18,20)        172.9918                                         !
 ! D55   D(13,11,18,21)        -65.9248                                         !
 ! D56   D(7,22,24,25)          58.8528                                         !
 ! D57   D(7,22,24,26)         -61.2136                                         !
 ! D58   D(7,22,24,27)         178.7555                                         !
 ! D59   D(23,22,24,25)       -146.8763                                         !
 ! D60   D(23,22,24,26)         93.0573                                         !
 ! D61   D(23,22,24,27)        -26.9736                                         !
 ! D62   D(22,24,26,30)        -34.0804                                         !
 ! D63   D(22,24,26,42)        148.9248                                         !
 ! D64   D(25,24,26,30)       -152.8153                                         !
 ! D65   D(25,24,26,42)         30.19                                           !
 ! D66   D(27,24,26,30)         85.1954                                         !
 ! D67   D(27,24,26,42)        -91.7994                                         !
 ! D68   D(22,24,27,28)         54.3829                                         !
 ! D69   D(22,24,27,29)        -61.9584                                         !
 ! D70   D(22,24,27,31)        175.2266                                         !
 ! D71   D(25,24,27,28)        173.0503                                         !
 ! D72   D(25,24,27,29)         56.709                                          !
 ! D73   D(25,24,27,31)        -66.106                                          !
 ! D74   D(26,24,27,28)        -64.8685                                         !
 ! D75   D(26,24,27,29)        178.7902                                         !
 ! D76   D(26,24,27,31)         55.9752                                         !
 ! D77   D(24,26,42,43)          3.3997                                         !
 ! D78   D(24,26,42,44)        162.5532                                         !
 ! D79   D(30,26,42,43)       -173.445                                          !
 ! D80   D(30,26,42,44)        -14.2915                                         !
 ! D81   D(24,27,31,32)        -97.4983                                         !
 ! D82   D(24,27,31,34)         78.7973                                         !
 ! D83   D(28,27,31,32)         22.3622                                         !
 ! D84   D(28,27,31,34)       -161.3422                                         !
 ! D85   D(29,27,31,32)        141.3055                                         !
 ! D86   D(29,27,31,34)        -42.3989                                         !
 ! D87   D(27,31,32,33)         -3.1628                                         !
 ! D88   D(27,31,32,36)        176.3591                                         !
 ! D89   D(34,31,32,33)       -179.5147                                         !
 ! D90   D(34,31,32,36)          0.0072                                         !
 ! D91   D(27,31,34,35)          4.0181                                         !
 ! D92   D(27,31,34,38)       -175.9934                                         !
 ! D93   D(32,31,34,35)       -179.6405                                         !
 ! D94   D(32,31,34,38)          0.3481                                         !
 ! D95   D(31,32,36,37)        179.8773                                         !
 ! D96   D(31,32,36,40)         -0.3018                                         !
 ! D97   D(33,32,36,37)         -0.6032                                         !
 ! D98   D(33,32,36,40)        179.2176                                         !
 ! D99   D(31,34,38,39)        179.5112                                         !
 ! D100  D(31,34,38,40)         -0.4089                                         !
 ! D101  D(35,34,38,39)         -0.5002                                         !
 ! D102  D(35,34,38,40)        179.5796                                         !
 ! D103  D(32,36,40,38)          0.2423                                         !
 ! D104  D(32,36,40,41)       -179.9649                                         !
 ! D105  D(37,36,40,38)       -179.9376                                         !
 ! D106  D(37,36,40,41)         -0.1448                                         !
 ! D107  D(34,38,40,36)          0.1109                                         !
 ! D108  D(34,38,40,41)       -179.6825                                         !
 ! D109  D(39,38,40,36)       -179.8091                                         !
 ! D110  D(39,38,40,41)          0.3974                                         !
 ! D111  D(26,42,44,45)        -27.9722                                         !
 ! D112  D(26,42,44,46)       -145.9645                                         !
 ! D113  D(26,42,44,47)         91.5445                                         !
 ! D114  D(43,42,44,45)        132.6446                                         !
 ! D115  D(43,42,44,46)         14.6522                                         !
 ! D116  D(43,42,44,47)       -107.8387                                         !
 ! D117  D(42,44,46,49)        -26.0913                                         !
 ! D118  D(42,44,46,58)        153.7293                                         !
 ! D119  D(45,44,46,49)       -142.3782                                         !
 ! D120  D(45,44,46,58)         37.4425                                         !
 ! D121  D(47,44,46,49)         95.8604                                         !
 ! D122  D(47,44,46,58)        -84.319                                          !
 ! D123  D(42,44,47,48)        -55.709                                          !
 ! D124  D(42,44,47,50)         62.0238                                         !
 ! D125  D(42,44,47,54)       -172.4641                                         !
 ! D126  D(45,44,47,48)         63.5574                                         !
 ! D127  D(45,44,47,50)       -178.7098                                         !
 ! D128  D(45,44,47,54)        -53.1977                                         !
 ! D129  D(46,44,47,48)       -173.523                                          !
 ! D130  D(46,44,47,50)        -55.7902                                         !
 ! D131  D(46,44,47,54)         69.7219                                         !
 ! D132  D(44,46,58,59)         12.6469                                         !
 ! D133  D(44,46,58,60)        167.5983                                         !
 ! D134  D(49,46,58,59)       -167.5363                                         !
 ! D135  D(49,46,58,60)        -12.5849                                         !
 ! D136  D(44,47,50,51)         67.2894                                         !
 ! D137  D(44,47,50,52)       -173.1965                                         !
 ! D138  D(44,47,50,53)        -53.5146                                         !
 ! D139  D(48,47,50,51)       -177.9115                                         !
 ! D140  D(48,47,50,52)        -58.3974                                         !
 ! D141  D(48,47,50,53)         61.2845                                         !
 ! D142  D(54,47,50,51)        -58.596                                          !
 ! D143  D(54,47,50,52)         60.9181                                         !
 ! D144  D(54,47,50,53)       -179.4001                                         !
 ! D145  D(44,47,54,55)        -71.2756                                         !
 ! D146  D(44,47,54,56)         50.8943                                         !
 ! D147  D(44,47,54,57)        169.8115                                         !
 ! D148  D(48,47,54,55)        174.517                                          !
 ! D149  D(48,47,54,56)        -63.3132                                         !
 ! D150  D(48,47,54,57)         55.6041                                         !
 ! D151  D(50,47,54,55)         54.7886                                         !
 ! D152  D(50,47,54,56)        176.9585                                         !
 ! D153  D(50,47,54,57)        -64.1243                                         !
 ! D154  D(46,58,60,61)         59.5017                                         !
 ! D155  D(46,58,60,62)        -60.2876                                         !
 ! D156  D(46,58,60,63)        179.1083                                         !
 ! D157  D(59,58,60,61)       -145.3573                                         !
 ! D158  D(59,58,60,62)         94.8534                                         !
 ! D159  D(59,58,60,63)        -25.7507                                         !
 ! D160  D(58,60,62,66)        -39.7743                                         !
 ! D161  D(58,60,62,75)        145.5007                                         !
 ! D162  D(61,60,62,66)       -158.6794                                         !
 ! D163  D(61,60,62,75)         26.5956                                         !
 ! D164  D(63,60,62,66)         80.5954                                         !
 ! D165  D(63,60,62,75)        -94.1296                                         !
 ! D166  D(58,60,63,64)        -54.461                                          !
 ! D167  D(58,60,63,65)         62.0141                                         !
 ! D168  D(58,60,63,67)       -176.0504                                         !
 ! D169  D(61,60,63,64)         63.7589                                         !
 ! D170  D(61,60,63,65)       -179.7661                                         !
 ! D171  D(61,60,63,67)        -57.8305                                         !
 ! D172  D(62,60,63,64)       -175.9724                                         !
 ! D173  D(62,60,63,65)        -59.4973                                         !
 ! D174  D(62,60,63,67)         62.4382                                         !
 ! D175  D(60,62,75,76)          1.8165                                         !
 ! D176  D(60,62,75,77)        151.027                                          !
 ! D177  D(66,62,75,76)       -172.5173                                         !
 ! D178  D(66,62,75,77)        -23.3067                                         !
 ! D179  D(60,63,67,68)        155.5914                                         !
 ! D180  D(60,63,67,69)         38.6999                                         !
 ! D181  D(60,63,67,70)        -85.9733                                         !
 ! D182  D(64,63,67,68)         35.0888                                         !
 ! D183  D(64,63,67,69)        -81.8027                                         !
 ! D184  D(64,63,67,70)        153.5241                                         !
 ! D185  D(65,63,67,68)        -82.3121                                         !
 ! D186  D(65,63,67,69)        160.7964                                         !
 ! D187  D(65,63,67,70)         36.1231                                         !
 ! D188  D(63,67,70,71)        159.551                                          !
 ! D189  D(63,67,70,74)        -24.3695                                         !
 ! D190  D(68,67,70,71)        -80.4889                                         !
 ! D191  D(68,67,70,74)         95.5906                                         !
 ! D192  D(69,67,70,71)         33.403                                          !
 ! D193  D(69,67,70,74)       -150.5175                                         !
 ! D194  D(67,70,71,72)        -32.7195                                         !
 ! D195  D(67,70,71,73)       -172.4003                                         !
 ! D196  D(74,70,71,72)        151.2886                                         !
 ! D197  D(74,70,71,73)         11.6078                                         !
 ! D198  D(62,75,77,78)        -33.6544                                         !
 ! D199  D(62,75,77,79)       -142.8178                                         !
 ! D200  D(62,75,77,80)         88.2182                                         !
 ! D201  D(76,75,77,78)        118.9696                                         !
 ! D202  D(76,75,77,79)          9.8062                                         !
 ! D203  D(76,75,77,80)       -119.1578                                         !
 ! D204  D(75,77,79,83)        171.7761                                         !
 ! D205  D(75,77,79,97)         -2.1002                                         !
 ! D206  D(78,77,79,83)         59.6701                                         !
 ! D207  D(78,77,79,97)       -114.2063                                         !
 ! D208  D(80,77,79,83)        -57.8268                                         !
 ! D209  D(80,77,79,97)        128.2968                                         !
 ! D210  D(75,77,80,81)        144.6133                                         !
 ! D211  D(75,77,80,82)         27.7188                                         !
 ! D212  D(75,77,80,84)        -95.6745                                         !
 ! D213  D(78,77,80,81)        -94.4765                                         !
 ! D214  D(78,77,80,82)        148.6289                                         !
 ! D215  D(78,77,80,84)         25.2357                                         !
 ! D216  D(79,77,80,81)         19.5046                                         !
 ! D217  D(79,77,80,82)        -97.39                                           !
 ! D218  D(79,77,80,84)        139.2168                                         !
 ! D219  D(77,80,84,85)         63.5888                                         !
 ! D220  D(77,80,84,86)        179.2781                                         !
 ! D221  D(77,80,84,87)        -59.2519                                         !
 ! D222  D(81,80,84,85)       -177.7725                                         !
 ! D223  D(81,80,84,86)        -62.0832                                         !
 ! D224  D(81,80,84,87)         59.3868                                         !
 ! D225  D(82,80,84,85)        -59.407                                          !
 ! D226  D(82,80,84,86)         56.2824                                         !
 ! D227  D(82,80,84,87)        177.7523                                         !
 ! D228  D(80,84,87,88)          0.9118                                         !
 ! D229  D(80,84,87,89)       -114.9402                                         !
 ! D230  D(80,84,87,90)        125.8925                                         !
 ! D231  D(85,84,87,88)       -120.872                                          !
 ! D232  D(85,84,87,89)        123.276                                          !
 ! D233  D(85,84,87,90)          4.1088                                         !
 ! D234  D(86,84,87,88)        122.4922                                         !
 ! D235  D(86,84,87,89)          6.6403                                         !
 ! D236  D(86,84,87,90)       -112.527                                          !
 ! D237  D(84,87,90,91)         56.1788                                         !
 ! D238  D(84,87,90,92)        176.7547                                         !
 ! D239  D(84,87,90,93)        -62.6382                                         !
 ! D240  D(88,87,90,91)       -178.6444                                         !
 ! D241  D(88,87,90,92)        -58.0685                                         !
 ! D242  D(88,87,90,93)         62.5385                                         !
 ! D243  D(89,87,90,91)        -65.4459                                         !
 ! D244  D(89,87,90,92)         55.13                                           !
 ! D245  D(89,87,90,93)        175.7371                                         !
 ! D246  D(87,90,93,94)        173.211                                          !
 ! D247  D(87,90,93,95)         52.6653                                         !
 ! D248  D(87,90,93,96)        -66.3898                                         !
 ! D249  D(91,90,93,94)         51.7582                                         !
 ! D250  D(91,90,93,95)        -68.7875                                         !
 ! D251  D(91,90,93,96)        172.1574                                         !
 ! D252  D(92,90,93,94)        -63.654                                          !
 ! D253  D(92,90,93,95)        175.8004                                         !
 ! D254  D(92,90,93,96)         56.7452                                         !
 --------------------------------------------------------------------------------
 Symmetry turned off by external request.
 Stoichiometry    C31H52N7O7(1+)
 Framework group  C1[X(C31H52N7O7)]
 Deg. of freedom   285
 Full point group                 C1      NOp   1
                          Input orientation:                          
 ---------------------------------------------------------------------
 Center     Atomic      Atomic             Coordinates (Angstroms)
 Number     Number       Type             X           Y           Z
 ---------------------------------------------------------------------
      1          7           0       -5.542796   -4.345300   -1.892019
      2          1           0       -5.663679   -5.200092   -2.441956
      3          1           0       -6.340592   -4.241075   -1.259449
      4          1           0       -4.633664   -4.413171   -1.349783
      5          6           0       -5.307806   -3.114909   -2.747287
      6          1           0       -5.647157   -3.340385   -3.759273
      7          6           0       -3.773976   -2.955406   -2.672658
      8          6           0       -6.089641   -1.913096   -2.157907
      9          1           0       -7.143544   -2.234627   -2.153796
     10          8           0       -3.177322   -3.542403   -1.761243
     11          6           0       -5.997054   -0.659491   -3.050947
     12          1           0       -4.984185   -0.247835   -2.978778
     13          1           0       -6.650644    0.090420   -2.591621
     14          6           0       -5.646853   -1.578977   -0.724934
     15          1           0       -4.627870   -1.181931   -0.717490
     16          1           0       -6.310020   -0.812769   -0.313911
     17          1           0       -5.690599   -2.436054   -0.040649
     18          6           0       -6.428711   -0.857100   -4.507963
     19          1           0       -6.459578    0.103884   -5.029212
     20          1           0       -5.750449   -1.503704   -5.082387
     21          1           0       -7.429572   -1.299840   -4.574991
     22          7           0       -3.187015   -2.187929   -3.594444
     23          1           0       -3.782156   -1.648576   -4.210143
     24          6           0       -1.831888   -1.675013   -3.385172
     25          1           0       -1.160039   -2.526444   -3.250270
     26          6           0       -1.826274   -0.781561   -2.129721
     27          6           0       -1.411378   -0.852249   -4.624596
     28          1           0       -2.178231   -0.086469   -4.797247
     29          1           0       -1.404974   -1.521092   -5.493044
     30          8           0       -2.812724   -0.095513   -1.845044
     31          6           0       -0.065900   -0.189798   -4.440721
     32          6           0        0.012968    1.148775   -4.040261
     33          1           0       -0.901004    1.723749   -3.912387
     34          6           0        1.115614   -0.924130   -4.592553
     35          1           0        1.067981   -1.963873   -4.909048
     36          6           0        1.250667    1.743482   -3.795867
     37          1           0        1.298132    2.783525   -3.487587
     38          6           0        2.353601   -0.333724   -4.341638
     39          1           0        3.262879   -0.915392   -4.455073
     40          6           0        2.422855    1.001724   -3.943926
     41          1           0        3.388146    1.461295   -3.753956
     42          7           0       -0.672219   -0.778570   -1.452376
     43          1           0        0.136855   -1.292540   -1.794896
     44          6           0       -0.327477    0.246721   -0.479455
     45          1           0       -0.843853    1.170953   -0.760797
     46          6           0        1.189393    0.415031   -0.610733
     47          6           0       -0.766300   -0.146808    0.958450
     48          1           0       -1.841977   -0.344642    0.866319
     49          8           0        1.889489   -0.508594   -1.019417
     50          6           0       -0.064781   -1.418204    1.447864
     51          1           0        1.007388   -1.245989    1.586666
     52          1           0       -0.485185   -1.731745    2.409704
     53          1           0       -0.191950   -2.242575    0.739160
     54          6           0       -0.571270    1.007933    1.949332
     55          1           0        0.492184    1.178245    2.148188
     56          1           0       -1.024351    1.938919    1.583315
     57          1           0       -1.051857    0.767428    2.903612
     58          7           0        1.700684    1.620101   -0.259817
     59          1           0        1.107187    2.265063    0.243547
     60          6           0        3.138180    1.763503   -0.099878
     61          1           0        3.609818    1.507919   -1.053449
     62          6           0        3.662670    0.828796    0.992646
     63          6           0        3.459537    3.224247    0.276379
     64          1           0        3.006360    3.862934   -0.489812
     65          1           0        2.980986    3.455488    1.235004
     66          8           0        2.985998    0.672444    2.038193
     67          6           0        4.954085    3.552763    0.386652
     68          1           0        5.090934    4.628268    0.218755
     69          1           0        5.539395    3.045269   -0.387978
     70          6           0        5.576890    3.257829    1.751279
     71          7           0        6.915085    3.125824    1.745286
     72          1           0        7.349865    2.726260    0.910021
     73          1           0        7.352921    2.813862    2.604973
     74          8           0        4.887726    3.223377    2.787364
     75          7           0        4.872346    0.334203    0.777604
     76          1           0        5.411786    0.600503   -0.060683
     77          6           0        5.834274   -0.054546    1.802337
     78          1           0        5.697081    0.629803    2.641314
     79          6           0        7.253487    0.348944    1.256767
     80          6           0        5.745021   -1.492532    2.322049
     81          1           0        6.767739   -1.825351    2.525871
     82          1           0        5.328223   -2.141292    1.544537
     83          8           0        8.164931    0.226877    2.088755
     84          6           0        4.917423   -1.602300    3.613457
     85          1           0        3.883145   -1.306767    3.399440
     86          1           0        4.874815   -2.649010    3.933687
     87          6           0        5.511894   -0.737579    4.758148
     88          1           0        6.403994   -0.202815    4.408463
     89          1           0        5.860961   -1.380088    5.574097
     90          6           0        4.531657    0.244569    5.396373
     91          1           0        3.648101   -0.280977    5.770618
     92          1           0        4.990427    0.782407    6.230548
     93          7           0        4.020764    1.281966    4.433599
     94          1           0        3.285873    1.852084    4.859467
     95          1           0        3.613076    0.874090    3.541603
     96          1           0        4.725041    1.962985    4.075465
     97          8           0        7.260516    0.855767    0.092411
 ---------------------------------------------------------------------
 Rotational constants (GHZ):           0.1395018           0.0329873           0.0303461
 Standard basis: 6-31G(d) (6D, 7F)
   779 basis functions,  1468 primitive gaussians,   779 cartesian basis functions
   171 alpha electrons      171 beta electrons
       nuclear repulsion energy      6158.1916007785 Hartrees.
 NAtoms=   97 NActive=   97 NUniq=   97 SFac= 1.00D+00 NAtFMM=   60 NAOKFM=T Big=T
 Integral buffers will be    131072 words long.
 Raffenetti 2 integral format.
 Two-electron integral symmetry is turned off.
 Nuclear repulsion after empirical dispersion term =     6157.9637852403 Hartrees.
 One-electron integrals computed using PRISM.
 NBasis=   779 RedAO= T EigKep=  4.59D-04  NBF=   779
 NBsUse=   779 1.00D-06 EigRej= -1.00D+00 NBFU=   779
 Initial guess from the checkpoint file:  "conf-578.chk"
 B after Tr=     0.000000    0.000000    0.000000
         Rot=    1.000000    0.000000    0.000000    0.000000 Ang=   0.00 deg.
 Requested convergence on RMS density matrix=1.00D-08 within 128 cycles.
 Requested convergence on MAX density matrix=1.00D-06.
 Requested convergence on             energy=1.00D-06.
 No special actions if energy rises.
 SCF Done:  E(RB3LYP) =  -2122.55632215     A.U. after    1 cycles
            NFock=  1  Conv=0.77D-08     -V/T= 2.0094

 **********************************************************************

            Population analysis using the SCF Density.

 **********************************************************************

 Alpha  occ. eigenvalues --  -19.27450 -19.21255 -19.19851 -19.19566 -19.19180
 Alpha  occ. eigenvalues --  -19.11438 -19.10417 -14.60496 -14.50273 -14.50249
 Alpha  occ. eigenvalues --  -14.44700 -14.44083 -14.41342 -14.40483 -10.43961
 Alpha  occ. eigenvalues --  -10.40749 -10.38218 -10.36634 -10.35938 -10.35652
 Alpha  occ. eigenvalues --  -10.34739 -10.34185 -10.32487 -10.31284 -10.30777
 Alpha  occ. eigenvalues --  -10.30108 -10.29966 -10.29571 -10.29437 -10.29155
 Alpha  occ. eigenvalues --  -10.27935 -10.27161 -10.26998 -10.26689 -10.26660
 Alpha  occ. eigenvalues --  -10.26510 -10.26427 -10.26331 -10.26223 -10.26048
 Alpha  occ. eigenvalues --  -10.25948 -10.24935 -10.24289 -10.23940 -10.22738
 Alpha  occ. eigenvalues --   -1.19994  -1.14514  -1.13137  -1.12049  -1.10512
 Alpha  occ. eigenvalues --   -1.09942  -1.06879  -1.05631  -1.04519  -1.01703
 Alpha  occ. eigenvalues --   -1.00671  -0.98517  -0.96402  -0.95644  -0.95527
 Alpha  occ. eigenvalues --   -0.93780  -0.90033  -0.88404  -0.87160  -0.86957
 Alpha  occ. eigenvalues --   -0.86668  -0.84732  -0.82446  -0.82190  -0.82032
 Alpha  occ. eigenvalues --   -0.80553  -0.78469  -0.76623  -0.75733  -0.75478
 Alpha  occ. eigenvalues --   -0.75007  -0.74532  -0.74146  -0.72969  -0.71775
 Alpha  occ. eigenvalues --   -0.69756  -0.68941  -0.68578  -0.68230  -0.67716
 Alpha  occ. eigenvalues --   -0.66607  -0.65960  -0.65791  -0.64340  -0.64178
 Alpha  occ. eigenvalues --   -0.63274  -0.62972  -0.62644  -0.62601  -0.62209
 Alpha  occ. eigenvalues --   -0.60837  -0.60448  -0.59545  -0.58449  -0.58257
 Alpha  occ. eigenvalues --   -0.57980  -0.56984  -0.56583  -0.56026  -0.55272
 Alpha  occ. eigenvalues --   -0.54978  -0.54881  -0.54627  -0.54334  -0.53736
 Alpha  occ. eigenvalues --   -0.53677  -0.53232  -0.52886  -0.52696  -0.52410
 Alpha  occ. eigenvalues --   -0.51966  -0.51811  -0.50961  -0.50917  -0.50096
 Alpha  occ. eigenvalues --   -0.49953  -0.49747  -0.49548  -0.49438  -0.48790
 Alpha  occ. eigenvalues --   -0.48683  -0.48207  -0.47880  -0.47252  -0.47182
 Alpha  occ. eigenvalues --   -0.46630  -0.46608  -0.46405  -0.46262  -0.46081
 Alpha  occ. eigenvalues --   -0.45540  -0.45357  -0.45100  -0.44947  -0.44776
 Alpha  occ. eigenvalues --   -0.43772  -0.43729  -0.43070  -0.42941  -0.42798
 Alpha  occ. eigenvalues --   -0.42271  -0.41818  -0.41689  -0.41315  -0.41180
 Alpha  occ. eigenvalues --   -0.41120  -0.40907  -0.40796  -0.40323  -0.40235
 Alpha  occ. eigenvalues --   -0.39103  -0.38813  -0.37826  -0.35391  -0.35178
 Alpha  occ. eigenvalues --   -0.34565  -0.33740  -0.33566  -0.33114  -0.32708
 Alpha  occ. eigenvalues --   -0.32319  -0.32117  -0.31751  -0.26715  -0.26204
 Alpha  occ. eigenvalues --   -0.24592
 Alpha virt. eigenvalues --   -0.13061  -0.11468  -0.08387  -0.08185  -0.07508
 Alpha virt. eigenvalues --   -0.07026  -0.06184  -0.05851  -0.05140  -0.04954
 Alpha virt. eigenvalues --   -0.02915  -0.02393  -0.01547  -0.00556  -0.00222
 Alpha virt. eigenvalues --    0.00490   0.01016   0.01534   0.01976   0.02243
 Alpha virt. eigenvalues --    0.02660   0.03181   0.03331   0.03812   0.03906
 Alpha virt. eigenvalues --    0.04336   0.04415   0.04779   0.04975   0.05509
 Alpha virt. eigenvalues --    0.05671   0.05801   0.06047   0.06630   0.06752
 Alpha virt. eigenvalues --    0.07278   0.07306   0.07606   0.07693   0.07998
 Alpha virt. eigenvalues --    0.08262   0.08360   0.08815   0.09063   0.09077
 Alpha virt. eigenvalues --    0.09318   0.09853   0.09888   0.10098   0.10234
 Alpha virt. eigenvalues --    0.10638   0.10764   0.10842   0.11168   0.11347
 Alpha virt. eigenvalues --    0.11678   0.12053   0.12462   0.12582   0.12866
 Alpha virt. eigenvalues --    0.13133   0.13314   0.13476   0.13668   0.14119
 Alpha virt. eigenvalues --    0.14258   0.14530   0.14900   0.15114   0.15301
 Alpha virt. eigenvalues --    0.15641   0.15918   0.16504   0.16946   0.17405
 Alpha virt. eigenvalues --    0.17720   0.17929   0.18518   0.18851   0.18981
 Alpha virt. eigenvalues --    0.19699   0.20919   0.21232   0.21586   0.22427
 Alpha virt. eigenvalues --    0.23468   0.23984   0.24115   0.24558   0.25180
 Alpha virt. eigenvalues --    0.25422   0.26602   0.26757   0.27844   0.28569
 Alpha virt. eigenvalues --    0.29141   0.29626   0.30805   0.32368   0.33684
 Alpha virt. eigenvalues --    0.34833   0.35199   0.35334   0.36583   0.37160
 Alpha virt. eigenvalues --    0.37220   0.38339   0.38887   0.39040   0.40647
 Alpha virt. eigenvalues --    0.41909   0.42235   0.43110   0.43303   0.43637
 Alpha virt. eigenvalues --    0.43792   0.44127   0.44414   0.44762   0.45145
 Alpha virt. eigenvalues --    0.45505   0.45755   0.45872   0.46344   0.46934
 Alpha virt. eigenvalues --    0.47132   0.47380   0.47763   0.48453   0.48896
 Alpha virt. eigenvalues --    0.49272   0.49442   0.49979   0.50189   0.50440
 Alpha virt. eigenvalues --    0.50793   0.51341   0.51587   0.51780   0.52029
 Alpha virt. eigenvalues --    0.52525   0.52919   0.53259   0.53398   0.53738
 Alpha virt. eigenvalues --    0.54225   0.54575   0.54808   0.55255   0.55361
 Alpha virt. eigenvalues --    0.55749   0.56094   0.56265   0.56832   0.57078
 Alpha virt. eigenvalues --    0.57425   0.57633   0.57828   0.58439   0.59098
 Alpha virt. eigenvalues --    0.59490   0.60115   0.60387   0.60772   0.61213
 Alpha virt. eigenvalues --    0.61477   0.62127   0.62446   0.62984   0.63264
 Alpha virt. eigenvalues --    0.63973   0.64831   0.65036   0.65394   0.65723
 Alpha virt. eigenvalues --    0.66001   0.66550   0.66842   0.66947   0.67269
 Alpha virt. eigenvalues --    0.67825   0.68406   0.68623   0.68679   0.69350
 Alpha virt. eigenvalues --    0.69866   0.70235   0.70501   0.71337   0.72102
 Alpha virt. eigenvalues --    0.72836   0.73048   0.73135   0.73483   0.73834
 Alpha virt. eigenvalues --    0.74510   0.74944   0.75178   0.75337   0.75961
 Alpha virt. eigenvalues --    0.76019   0.76634   0.77066   0.77185   0.77302
 Alpha virt. eigenvalues --    0.77568   0.77933   0.78092   0.78212   0.78693
 Alpha virt. eigenvalues --    0.78924   0.79393   0.79688   0.79717   0.80066
 Alpha virt. eigenvalues --    0.80117   0.80396   0.80750   0.81053   0.81180
 Alpha virt. eigenvalues --    0.81589   0.81804   0.82287   0.82426   0.82617
 Alpha virt. eigenvalues --    0.82859   0.83027   0.83278   0.83560   0.83858
 Alpha virt. eigenvalues --    0.84203   0.84639   0.85117   0.85443   0.85638
 Alpha virt. eigenvalues --    0.86029   0.86243   0.86420   0.86516   0.86910
 Alpha virt. eigenvalues --    0.87386   0.87611   0.88072   0.88243   0.88758
 Alpha virt. eigenvalues --    0.88944   0.89227   0.89704   0.89963   0.90470
 Alpha virt. eigenvalues --    0.90762   0.91308   0.91577   0.91848   0.92542
 Alpha virt. eigenvalues --    0.93250   0.93601   0.93911   0.93914   0.94685
 Alpha virt. eigenvalues --    0.94938   0.95729   0.96240   0.96829   0.98229
 Alpha virt. eigenvalues --    0.98990   0.99253   0.99800   1.00256   1.00767
 Alpha virt. eigenvalues --    1.01581   1.01922   1.02543   1.03153   1.03955
 Alpha virt. eigenvalues --    1.04677   1.05179   1.05536   1.06042   1.06874
 Alpha virt. eigenvalues --    1.07817   1.08603   1.09925   1.10133   1.10767
 Alpha virt. eigenvalues --    1.11073   1.12094   1.12261   1.13296   1.13840
 Alpha virt. eigenvalues --    1.15029   1.15869   1.16312   1.17091   1.17534
 Alpha virt. eigenvalues --    1.17768   1.18519   1.19856   1.20112   1.21077
 Alpha virt. eigenvalues --    1.21171   1.22063   1.22891   1.23186   1.24558
 Alpha virt. eigenvalues --    1.25314   1.25676   1.26975   1.27331   1.28662
 Alpha virt. eigenvalues --    1.29691   1.30288   1.30679   1.31744   1.32887
 Alpha virt. eigenvalues --    1.32958   1.33309   1.33638   1.35502   1.36309
 Alpha virt. eigenvalues --    1.36982   1.37239   1.37919   1.38194   1.39017
 Alpha virt. eigenvalues --    1.39729   1.39920   1.40592   1.41114   1.42406
 Alpha virt. eigenvalues --    1.42426   1.43271   1.43975   1.44070   1.44596
 Alpha virt. eigenvalues --    1.45233   1.45861   1.46917   1.48213   1.48956
 Alpha virt. eigenvalues --    1.49950   1.50462   1.50667   1.51335   1.52467
 Alpha virt. eigenvalues --    1.52724   1.53719   1.54692   1.55190   1.56368
 Alpha virt. eigenvalues --    1.57470   1.59135   1.59787   1.60312   1.60936
 Alpha virt. eigenvalues --    1.61811   1.62576   1.63205   1.63328   1.64779
 Alpha virt. eigenvalues --    1.64873   1.66251   1.66711   1.67460   1.67572
 Alpha virt. eigenvalues --    1.68421   1.68493   1.69502   1.69594   1.69892
 Alpha virt. eigenvalues --    1.70562   1.71202   1.71262   1.71768   1.72060
 Alpha virt. eigenvalues --    1.73211   1.73869   1.74316   1.75114   1.75481
 Alpha virt. eigenvalues --    1.75661   1.75909   1.76539   1.76884   1.77127
 Alpha virt. eigenvalues --    1.77844   1.78124   1.78412   1.78943   1.79646
 Alpha virt. eigenvalues --    1.80105   1.80174   1.81069   1.81426   1.81580
 Alpha virt. eigenvalues --    1.82764   1.82997   1.83183   1.83782   1.84029
 Alpha virt. eigenvalues --    1.84781   1.84928   1.85296   1.85947   1.85963
 Alpha virt. eigenvalues --    1.86861   1.87103   1.87755   1.88280   1.88839
 Alpha virt. eigenvalues --    1.89565   1.89903   1.90362   1.90906   1.91189
 Alpha virt. eigenvalues --    1.91902   1.92338   1.93087   1.93513   1.93795
 Alpha virt. eigenvalues --    1.94525   1.94609   1.95020   1.95190   1.96116
 Alpha virt. eigenvalues --    1.96959   1.97666   1.97941   1.98444   1.98893
 Alpha virt. eigenvalues --    1.99787   1.99951   2.00750   2.01237   2.01666
 Alpha virt. eigenvalues --    2.02243   2.02910   2.03567   2.04665   2.05041
 Alpha virt. eigenvalues --    2.05333   2.05691   2.06268   2.06346   2.07202
 Alpha virt. eigenvalues --    2.08237   2.08698   2.09460   2.09750   2.10435
 Alpha virt. eigenvalues --    2.10710   2.11401   2.11847   2.12473   2.13425
 Alpha virt. eigenvalues --    2.13772   2.14290   2.15478   2.15684   2.15932
 Alpha virt. eigenvalues --    2.16325   2.18013   2.18542   2.18591   2.19847
 Alpha virt. eigenvalues --    2.20153   2.20609   2.21342   2.21782   2.22269
 Alpha virt. eigenvalues --    2.23027   2.23694   2.23984   2.25057   2.25856
 Alpha virt. eigenvalues --    2.26546   2.27034   2.27504   2.27891   2.28515
 Alpha virt. eigenvalues --    2.29137   2.29597   2.30253   2.30720   2.31850
 Alpha virt. eigenvalues --    2.32353   2.33301   2.34010   2.34640   2.34904
 Alpha virt. eigenvalues --    2.35180   2.35939   2.36988   2.37600   2.38827
 Alpha virt. eigenvalues --    2.39634   2.39983   2.41129   2.42877   2.43020
 Alpha virt. eigenvalues --    2.45167   2.45786   2.46411   2.47108   2.48119
 Alpha virt. eigenvalues --    2.48600   2.49858   2.51037   2.51565   2.51747
 Alpha virt. eigenvalues --    2.52576   2.52873   2.53377   2.54283   2.54466
 Alpha virt. eigenvalues --    2.55778   2.56907   2.57024   2.58173   2.58835
 Alpha virt. eigenvalues --    2.59239   2.60337   2.61508   2.63150   2.63888
 Alpha virt. eigenvalues --    2.64258   2.64734   2.65695   2.65854   2.66858
 Alpha virt. eigenvalues --    2.67201   2.67892   2.68482   2.69872   2.70355
 Alpha virt. eigenvalues --    2.70699   2.71870   2.74448   2.75202   2.77979
 Alpha virt. eigenvalues --    2.79491   2.80518   2.80842   2.83559   2.86308
 Alpha virt. eigenvalues --    2.86996   2.88426   2.90300   2.91475   2.93694
 Alpha virt. eigenvalues --    2.94402   2.96441   2.97293   2.98948   2.99207
 Alpha virt. eigenvalues --    3.00504   3.03352   3.04296   3.07749   3.09611
 Alpha virt. eigenvalues --    3.13496   3.19877   3.34067   3.63378   3.82316
 Alpha virt. eigenvalues --    3.84944   3.91821   3.93503   3.97324   4.00009
 Alpha virt. eigenvalues --    4.00648   4.03275   4.05402   4.06347   4.08332
 Alpha virt. eigenvalues --    4.08941   4.10567   4.11884   4.13257   4.15639
 Alpha virt. eigenvalues --    4.17684   4.19813   4.20614   4.21186   4.21777
 Alpha virt. eigenvalues --    4.25050   4.26394   4.28058   4.29929   4.30945
 Alpha virt. eigenvalues --    4.32944   4.35568   4.36863   4.37316   4.37485
 Alpha virt. eigenvalues --    4.39244   4.43162   4.45748   4.48376   4.51218
 Alpha virt. eigenvalues --    4.51645   4.52997   4.56211   4.58693   4.62016
 Alpha virt. eigenvalues --    4.64281   4.66959   4.67319
          Condensed to atoms (all electrons):
 Mulliken charges:
               1
     1  N   -0.758183
     2  H    0.416930
     3  H    0.414000
     4  H    0.435191
     5  C   -0.125558
     6  H    0.211243
     7  C    0.673484
     8  C   -0.105799
     9  H    0.149761
    10  O   -0.539930
    11  C   -0.300556
    12  H    0.195098
    13  H    0.175612
    14  C   -0.496522
    15  H    0.228969
    16  H    0.186883
    17  H    0.125037
    18  C   -0.479595
    19  H    0.190101
    20  H    0.130309
    21  H    0.164766
    22  N   -0.596534
    23  H    0.363146
    24  C   -0.053942
    25  H    0.191248
    26  C    0.637762
    27  C   -0.391073
    28  H    0.161952
    29  H    0.177009
    30  O   -0.556021
    31  C    0.153439
    32  C   -0.181910
    33  H    0.136449
    34  C   -0.192567
    35  H    0.131628
    36  C   -0.131559
    37  H    0.139497
    38  C   -0.105069
    39  H    0.155733
    40  C   -0.120662
    41  H    0.147216
    42  N   -0.591548
    43  H    0.371135
    44  C   -0.057742
    45  H    0.166409
    46  C    0.659646
    47  C   -0.064249
    48  H    0.146293
    49  O   -0.543838
    50  C   -0.468757
    51  H    0.183147
    52  H    0.141865
    53  H    0.150120
    54  C   -0.493314
    55  H    0.176615
    56  H    0.136800
    57  H    0.153790
    58  N   -0.617682
    59  H    0.338227
    60  C   -0.028349
    61  H    0.178211
    62  C    0.645964
    63  C   -0.309557
    64  H    0.156953
    65  H    0.172230
    66  O   -0.617393
    67  C   -0.374546
    68  H    0.193336
    69  H    0.186357
    70  C    0.605803
    71  N   -0.717260
    72  H    0.387137
    73  H    0.348908
    74  O   -0.589720
    75  N   -0.576863
    76  H    0.365019
    77  C   -0.054948
    78  H    0.107500
    79  C    0.580179
    80  C   -0.265555
    81  H    0.185258
    82  H    0.149779
    83  O   -0.569261
    84  C   -0.298741
    85  H    0.147275
    86  H    0.148808
    87  C   -0.292473
    88  H    0.196887
    89  H    0.170936
    90  C   -0.184014
    91  H    0.182790
    92  H    0.188016
    93  N   -0.789497
    94  H    0.382334
    95  H    0.454875
    96  H    0.419649
    97  O   -0.629924
 Sum of Mulliken charges =   1.00000
 Mulliken charges with hydrogens summed into heavy atoms:
               1
     1  N    0.507939
     5  C    0.085685
     7  C    0.673484
     8  C    0.043962
    10  O   -0.539930
    11  C    0.070153
    14  C    0.044367
    18  C    0.005581
    22  N   -0.233388
    24  C    0.137307
    26  C    0.637762
    27  C   -0.052112
    30  O   -0.556021
    31  C    0.153439
    32  C   -0.045461
    34  C   -0.060939
    36  C    0.007938
    38  C    0.050663
    40  C    0.026553
    42  N   -0.220413
    44  C    0.108667
    46  C    0.659646
    47  C    0.082044
    49  O   -0.543838
    50  C    0.006374
    54  C   -0.026109
    58  N   -0.279455
    60  C    0.149862
    62  C    0.645964
    63  C    0.019625
    66  O   -0.617393
    67  C    0.005147
    70  C    0.605803
    71  N    0.018786
    74  O   -0.589720
    75  N   -0.211844
    77  C    0.052552
    79  C    0.580179
    80  C    0.069482
    83  O   -0.569261
    84  C   -0.002657
    87  C    0.075350
    90  C    0.186792
    93  N    0.467361
    97  O   -0.629924
 Electronic spatial extent (au):  <R**2>=          37136.4687
 Charge=              1.0000 electrons
 Dipole moment (field-independent basis, Debye):
    X=            -24.6187    Y=             -9.3406    Z=             -4.2554  Tot=             26.6727
 Quadrupole moment (field-independent basis, Debye-Ang):
   XX=           -205.6574   YY=           -192.0907   ZZ=           -176.1910
   XY=             92.5492   XZ=             75.3596   YZ=             38.1796
 Traceless Quadrupole moment (field-independent basis, Debye-Ang):
   XX=            -14.3444   YY=             -0.7776   ZZ=             15.1220
   XY=             92.5492   XZ=             75.3596   YZ=             38.1796
 Octapole moment (field-independent basis, Debye-Ang**2):
  XXX=          -2405.9097  YYY=           -196.5137  ZZZ=            510.6380  XYY=           -576.8218
  XXY=           -418.5841  XXZ=           -147.9979  XZZ=           -255.0266  YZZ=            -58.2554
  YYZ=            -15.6388  XYZ=           -158.3627
 Hexadecapole moment (field-independent basis, Debye-Ang**3):
 XXXX=         -32154.2833 YYYY=          -4239.1457 ZZZZ=         -11059.2044 XXXY=           -613.4853
 XXXZ=          -4051.3591 YYYX=          -1880.5073 YYYZ=           -761.2405 ZZZX=          -3668.0523
 ZZZY=           -664.3275 XXYY=          -3425.1954 XXZZ=          -5395.3717 YYZZ=          -2690.8323
 XXYZ=            632.4986 YYXZ=          -1071.8039 ZZXY=           -673.7457
 N-N= 6.157963785240D+03 E-N=-1.722856277178D+04  KE= 2.102801226598D+03
 Unable to Open any file for archive entry.
 1\1\GINC-VIM-001\SP\RB3LYP\6-31G(d)\C31H52N7O7(1+)\KENGMITH\30-Jun-202
 2\0\\# B3LYP/6-31G* empiricaldispersion=gd3bj guess=read geom=check no
 symm integral(ultrafinegrid)\\Candidate Structure: Conf:578 Charge cal
 c in gas phase\\1,1\N,0,-5.5427957486,-4.345299988,-1.8920192025\H,0,-
 5.6636788787,-5.2000918118,-2.4419557391\H,0,-6.3405919384,-4.24107527
 54,-1.2594492032\H,0,-4.6336643471,-4.4131710472,-1.3497829418\C,0,-5.
 3078055689,-3.1149091627,-2.7472866761\H,0,-5.6471573397,-3.3403845451
 ,-3.7592727119\C,0,-3.7739760794,-2.9554057386,-2.6726578164\C,0,-6.08
 9640744,-1.9130956737,-2.1579067041\H,0,-7.1435441555,-2.2346266067,-2
 .153796351\O,0,-3.1773219988,-3.5424027285,-1.7612428936\C,0,-5.997054
 3136,-0.6594914646,-3.0509465746\H,0,-4.9841849483,-0.247835204,-2.978
 7784522\H,0,-6.6506439835,0.0904197562,-2.5916213235\C,0,-5.6468528234
 ,-1.5789765954,-0.7249336492\H,0,-4.6278703042,-1.1819312341,-0.717489
 832\H,0,-6.310020298,-0.8127693521,-0.3139106242\H,0,-5.6905989505,-2.
 4360540223,-0.040648802\C,0,-6.428710665,-0.8570998474,-4.507963225\H,
 0,-6.4595775742,0.1038838538,-5.0292119061\H,0,-5.7504488519,-1.503703
 8994,-5.0823868359\H,0,-7.4295724165,-1.299839902,-4.5749907596\N,0,-3
 .1870147123,-2.1879288506,-3.5944440525\H,0,-3.7821557145,-1.648575796
 7,-4.2101433339\C,0,-1.8318881775,-1.6750132539,-3.3851716027\H,0,-1.1
 600386414,-2.5264441626,-3.2502701655\C,0,-1.8262739917,-0.7815607544,
 -2.1297206684\C,0,-1.4113775331,-0.8522493695,-4.6245959678\H,0,-2.178
 2305141,-0.0864692293,-4.7972465335\H,0,-1.4049741742,-1.521091558,-5.
 4930438423\O,0,-2.812724222,-0.0955126804,-1.845043903\C,0,-0.06589982
 76,-0.1897976231,-4.4407214304\C,0,0.012967595,1.1487745799,-4.0402606
 139\H,0,-0.9010039264,1.7237487699,-3.9123871697\C,0,1.1156138547,-0.9
 24130175,-4.5925530936\H,0,1.0679808864,-1.9638725163,-4.9090480445\C,
 0,1.2506670064,1.7434820185,-3.7958665047\H,0,1.298132458,2.783524875,
 -3.4875866594\C,0,2.3536012632,-0.3337240022,-4.3416377432\H,0,3.26287
 91673,-0.9153922418,-4.4550725509\C,0,2.4228551529,1.0017244898,-3.943
 9261075\H,0,3.3881463658,1.4612948937,-3.7539564887\N,0,-0.6722187956,
 -0.7785696835,-1.4523756735\H,0,0.1368546194,-1.292539608,-1.794896255
 6\C,0,-0.327477282,0.2467211575,-0.4794548736\H,0,-0.8438530038,1.1709
 531679,-0.7607970503\C,0,1.1893932332,0.4150306814,-0.6107332411\C,0,-
 0.7662996726,-0.1468083509,0.9584501285\H,0,-1.8419767058,-0.344641604
 3,0.866318639\O,0,1.8894892491,-0.5085939257,-1.0194168842\C,0,-0.0647
 80849,-1.4182040299,1.4478637042\H,0,1.0073883777,-1.2459885933,1.5866
 655834\H,0,-0.485185318,-1.7317445776,2.4097038636\H,0,-0.1919504886,-
 2.2425745122,0.7391600685\C,0,-0.5712704054,1.0079326275,1.949331815\H
 ,0,0.4921836489,1.1782454906,2.1481875462\H,0,-1.0243505973,1.93891872
 36,1.5833149308\H,0,-1.0518571995,0.7674278366,2.90361184\N,0,1.700683
 5157,1.6201005334,-0.2598169278\H,0,1.1071866982,2.2650625472,0.243546
 7617\C,0,3.1381795893,1.7635032688,-0.0998784868\H,0,3.6098176922,1.50
 79188136,-1.0534487715\C,0,3.6626701955,0.8287957681,0.9926462623\C,0,
 3.4595372344,3.2242473502,0.2763793154\H,0,3.0063604596,3.862934318,-0
 .4898115763\H,0,2.9809862037,3.4554881509,1.2350037804\O,0,2.985998233
 8,0.6724438414,2.0381930991\C,0,4.9540852324,3.5527629527,0.3866519573
 \H,0,5.0909343693,4.6282681016,0.2187553849\H,0,5.5393947629,3.0452685
 578,-0.3879776451\C,0,5.5768896782,3.2578292168,1.7512793412\N,0,6.915
 0851715,3.1258244444,1.7452857007\H,0,7.349865481,2.7262599167,0.91002
 07214\H,0,7.3529212678,2.8138615948,2.6049732511\O,0,4.8877256657,3.22
 33772317,2.7873636773\N,0,4.8723460788,0.3342028889,0.7776043328\H,0,5
 .4117864961,0.6005025059,-0.0606830307\C,0,5.8342739601,-0.0545463887,
 1.8023370262\H,0,5.6970805576,0.6298034607,2.6413142053\C,0,7.25348674
 55,0.3489436192,1.2567666134\C,0,5.7450211112,-1.4925320145,2.32204907
 26\H,0,6.7677389299,-1.8253507435,2.5258705944\H,0,5.3282232817,-2.141
 2918067,1.5445367901\O,0,8.1649308235,0.2268771059,2.0887546352\C,0,4.
 9174233023,-1.6023004873,3.6134571171\H,0,3.8831447113,-1.3067667404,3
 .3994402833\H,0,4.8748152102,-2.6490097345,3.9336872563\C,0,5.51189414
 19,-0.7375794341,4.7581482632\H,0,6.4039941413,-0.2028153702,4.4084625
 248\H,0,5.8609609161,-1.38008803,5.5740970802\C,0,4.5316565662,0.24456
 87129,5.3963728416\H,0,3.6481008882,-0.2809774666,5.7706182289\H,0,4.9
 904269706,0.7824072803,6.2305476119\N,0,4.0207636268,1.2819658802,4.43
 35985275\H,0,3.2858730013,1.8520836318,4.8594672354\H,0,3.6130762186,0
 .8740895015,3.5416030506\H,0,4.7250408281,1.962985238,4.0754650565\O,0
 ,7.2605155242,0.8557670694,0.092411457\\Version=ES64L-G16RevC.01\HF=-2
 122.5563222\RMSD=7.735e-09\Dipole=-11.7035263,-3.5371323,-0.8786003\Qu
 adrupole=-10.6647013,-0.578132,11.2428333,68.8080634,56.0280494,28.385
 5864\PG=C01 [X(C31H52N7O7)]\\@
 The archive entry for this job was punched.


 HE WHO LOVES TO READ, AND KNOWS HOW TO REFLECT,
 HAS LAID BY A PERPETUAL FEAST FOR HIS OLD AGE.
 -- UNCLE ESEK, "SCRIBNER'S MONTHLY", SEPT. 1880
 Job cpu time:       0 days  0 hours  4 minutes 34.4 seconds.
 Elapsed time:       0 days  0 hours  1 minutes 13.7 seconds.
 File lengths (MBytes):  RWF=    432 Int=      0 D2E=      0 Chk=     64 Scr=     16
 Normal termination of Gaussian 16 at Thu Jun 30 19:47:28 2022.
