 Entering Gaussian System, Link 0=/opt/software/Gaussian/g16-AVX2-C.01/g16/g16
 Input=charge-conf-112.com
 Output=charge-conf-112.log
 Initial command:
 /opt/software/Gaussian/g16-AVX2-C.01/g16/l1.exe "/mnt/gs18/scratch/users/kengmith/Gau-10531.inp" -scrdir="/mnt/gs18/scratch/users/kengmith/"
 Entering Link 1 = /opt/software/Gaussian/g16-AVX2-C.01/g16/l1.exe PID=     10541.
  
 Copyright (c) 1988-2019, Gaussian, Inc.  All Rights Reserved.
  
 This is part of the Gaussian(R) 16 program.  It is based on
 the Gaussian(R) 09 system (copyright 2009, Gaussian, Inc.),
 the Gaussian(R) 03 system (copyright 2003, Gaussian, Inc.),
 the Gaussian(R) 98 system (copyright 1998, Gaussian, Inc.),
 the Gaussian(R) 94 system (copyright 1995, Gaussian, Inc.),
 the Gaussian 92(TM) system (copyright 1992, Gaussian, Inc.),
 the Gaussian 90(TM) system (copyright 1990, Gaussian, Inc.),
 the Gaussian 88(TM) system (copyright 1988, Gaussian, Inc.),
 the Gaussian 86(TM) system (copyright 1986, Carnegie Mellon
 University), and the Gaussian 82(TM) system (copyright 1983,
 Carnegie Mellon University). Gaussian is a federally registered
 trademark of Gaussian, Inc.
  
 This software contains proprietary and confidential information,
 including trade secrets, belonging to Gaussian, Inc.
  
 This software is provided under written license and may be
 used, copied, transmitted, or stored only in accord with that
 written license.
  
 The following legend is applicable only to US Government
 contracts under FAR:
  
                    RESTRICTED RIGHTS LEGEND
  
 Use, reproduction and disclosure by the US Government is
 subject to restrictions as set forth in subparagraphs (a)
 and (c) of the Commercial Computer Software - Restricted
 Rights clause in FAR 52.227-19.
  
 Gaussian, Inc.
 340 Quinnipiac St., Bldg. 40, Wallingford CT 06492
  
  
 ---------------------------------------------------------------
 Warning -- This program may not be used in any manner that
 competes with the business of Gaussian, Inc. or will provide
 assistance to any competitor of Gaussian, Inc.  The licensee
 of this program is prohibited from giving any competitor of
 Gaussian, Inc. access to this program.  By using this program,
 the user acknowledges that Gaussian, Inc. is engaged in the
 business of creating and licensing software in the field of
 computational chemistry and represents and warrants to the
 licensee that it is not a competitor of Gaussian, Inc. and that
 it will not use this program in any manner prohibited above.
 ---------------------------------------------------------------
  

 Cite this work as:
 Gaussian 16, Revision C.01,
 M. J. Frisch, G. W. Trucks, H. B. Schlegel, G. E. Scuseria, 
 M. A. Robb, J. R. Cheeseman, G. Scalmani, V. Barone, 
 G. A. Petersson, H. Nakatsuji, X. Li, M. Caricato, A. V. Marenich, 
 J. Bloino, B. G. Janesko, R. Gomperts, B. Mennucci, H. P. Hratchian, 
 J. V. Ortiz, A. F. Izmaylov, J. L. Sonnenberg, D. Williams-Young, 
 F. Ding, F. Lipparini, F. Egidi, J. Goings, B. Peng, A. Petrone, 
 T. Henderson, D. Ranasinghe, V. G. Zakrzewski, J. Gao, N. Rega, 
 G. Zheng, W. Liang, M. Hada, M. Ehara, K. Toyota, R. Fukuda, 
 J. Hasegawa, M. Ishida, T. Nakajima, Y. Honda, O. Kitao, H. Nakai, 
 T. Vreven, K. Throssell, J. A. Montgomery, Jr., J. E. Peralta, 
 F. Ogliaro, M. J. Bearpark, J. J. Heyd, E. N. Brothers, K. N. Kudin, 
 V. N. Staroverov, T. A. Keith, R. Kobayashi, J. Normand, 
 K. Raghavachari, A. P. Rendell, J. C. Burant, S. S. Iyengar, 
 J. Tomasi, M. Cossi, J. M. Millam, M. Klene, C. Adamo, R. Cammi, 
 J. W. Ochterski, R. L. Martin, K. Morokuma, O. Farkas, 
 J. B. Foresman, and D. J. Fox, Gaussian, Inc., Wallingford CT, 2019.
 
 ******************************************
 Gaussian 16:  ES64L-G16RevC.01  3-Jul-2019
                30-Jun-2022 
 ******************************************
 %mem=8gb
 %nproc=4
 Will use up to    4 processors via shared memory.
 %chk=conf-112.chk
 ----------------------------------------------------------------------
 # B3LYP/6-31G* empiricaldispersion=gd3bj guess=read geom=check nosymm 
 integral(ultrafinegrid)
 ----------------------------------------------------------------------
 1/29=2,38=1,172=1/1;
 2/12=2,15=1,40=1/2;
 3/5=1,6=6,7=1,11=2,14=-4,25=1,30=1,74=-5,75=-5,116=-2,124=41/1,2,3;
 4/5=1/1;
 5/5=2,38=6/2;
 6/7=2,8=2,9=2,10=2,28=1/1;
 99/5=1,9=1/99;
 ------------------------------------------------------
 Candidate Structure: Conf:112 Charge calc in gas phase
 ------------------------------------------------------
 Structure from the checkpoint file:  "conf-112.chk"
 Charge =  1 Multiplicity = 1
 Redundant internal coordinates found in file.  (old form).
 N,0,-7.1601177887,-2.2123526682,-4.7387693101
 H,0,-7.7992338525,-1.422183582,-4.8549397379
 H,0,-7.686718816,-3.0830868362,-4.8424369435
 H,0,-6.3760773159,-2.1421292576,-5.4659652948
 C,0,-6.3615658655,-2.1497313104,-3.4521908498
 H,0,-6.823360274,-1.403176198,-2.8051935837
 C,0,-4.9743682692,-1.6853474975,-3.9613505344
 C,0,-6.3433330057,-3.5360721053,-2.7643572886
 H,0,-7.4017682701,-3.8106518891,-2.6321998673
 O,0,-4.7667447402,-1.7475173564,-5.187179945
 C,0,-5.7159635832,-3.4922320182,-1.3550994652
 H,0,-4.6341332909,-3.3353169056,-1.4276026318
 H,0,-5.8425392242,-4.4961644398,-0.93418745
 C,0,-5.6528617792,-4.5976462405,-3.6327769791
 H,0,-4.5900642586,-4.3701050754,-3.7622174289
 H,0,-5.7296351093,-5.5752112052,-3.1492508747
 H,0,-6.0914343592,-4.6996922117,-4.6331639604
 C,0,-6.3291706345,-2.4688996818,-0.3951360256
 H,0,-5.9169453422,-2.6021579514,0.6084575961
 H,0,-6.1141110001,-1.4319911759,-0.6813106949
 H,0,-7.418106174,-2.5804019841,-0.3283779165
 N,0,-4.111619547,-1.2914182139,-3.044260613
 H,0,-4.315785292,-1.314599157,-2.0422217046
 C,0,-2.7054348494,-0.9801520275,-3.2863013319
 H,0,-2.3317048986,-1.6379981155,-4.0749705776
 C,0,-2.0292794032,-1.3139250225,-1.9405643429
 C,0,-2.5311747381,0.4947040863,-3.7166548098
 H,0,-2.9483256825,1.1323528335,-2.9295238377
 H,0,-3.1473757272,0.6339613522,-4.6135111126
 O,0,-2.7315299633,-1.390833883,-0.9202727121
 C,0,-1.0938977978,0.8690447689,-3.988065882
 C,0,-0.460675404,1.8547465626,-3.2237080284
 H,0,-1.0160059594,2.3567564938,-2.4344688384
 C,0,-0.3702437137,0.2289723475,-5.0039573906
 H,0,-0.8553909496,-0.5236335447,-5.6235904424
 C,0,0.8635696863,2.2090415655,-3.4789672084
 H,0,1.3604434746,2.990337813,-2.9145921503
 C,0,0.9633526252,0.5639714415,-5.2412699992
 H,0,1.5141266587,0.0552067222,-6.0271706265
 C,0,1.5815136342,1.5574988104,-4.4817982536
 H,0,2.6117755363,1.8510032275,-4.6485120928
 N,0,-0.7141881663,-1.5361632459,-1.9825925891
 H,0,-0.1715790679,-1.3300515759,-2.8213310044
 C,0,0.1017160149,-1.7982620109,-0.8008890308
 H,0,-0.3930490402,-1.3475542189,0.0651110106
 C,0,1.4524752382,-1.1302182992,-1.1043740714
 C,0,0.2994187596,-3.3197642187,-0.5541096921
 H,0,0.8967358302,-3.6938265365,-1.3966285195
 O,0,1.8763161321,-1.1269893233,-2.2624032591
 C,0,1.0758412753,-3.5649750747,0.7467532229
 H,0,0.520082049,-3.1744675442,1.609457215
 H,0,1.2184544626,-4.6393147331,0.9042794936
 H,0,2.0607570798,-3.0908138257,0.7389912567
 C,0,-1.0343572311,-4.0754628287,-0.5310834945
 H,0,-1.691479949,-3.6924446436,0.2566905544
 H,0,-1.5632776544,-3.9855865701,-1.4846762009
 H,0,-0.8568696328,-5.1408299116,-0.3466178389
 N,0,2.1110646723,-0.601266365,-0.0623161256
 H,0,1.7744995522,-0.6529192314,0.8952406014
 C,0,3.4242170687,0.0010397643,-0.2017119633
 H,0,4.0490167593,-0.6621756402,-0.811040609
 C,0,3.9960570245,0.1221978907,1.2224187321
 C,0,3.3606431725,1.399175401,-0.8800234369
 H,0,2.4065645523,1.4797816748,-1.4033526203
 H,0,3.3798460184,2.1791384754,-0.1101824908
 O,0,3.2918807224,-0.1371395754,2.2090393411
 C,0,4.4922607794,1.6427780376,-1.8920441144
 H,0,4.3205740544,1.0142399765,-2.7710291496
 H,0,5.4676493859,1.3911874125,-1.4686569771
 C,0,4.4928306847,3.1056157242,-2.3285246038
 N,0,5.3560694204,3.8931723268,-1.6543109279
 H,0,5.9372908057,3.5419915103,-0.8803773914
 H,0,5.3422720405,4.8820445804,-1.8628409113
 O,0,3.7234185005,3.5217561646,-3.2013077569
 N,0,5.2582611382,0.5790232365,1.2787659659
 H,0,5.6818999179,0.9523230096,0.419664829
 C,0,5.7689912469,1.4086959245,2.3677107504
 H,0,4.9214264668,1.8572349151,2.9001847795
 C,0,6.6021958413,2.5792451057,1.7056085944
 C,0,6.6371878346,0.6556398123,3.3689042481
 H,0,7.1072520635,1.4168785058,4.0014146532
 H,0,7.4401396524,0.1367146281,2.827323739
 O,0,7.1207239611,3.372457429,2.4971057488
 C,0,5.8529990425,-0.345210519,4.2181632205
 H,0,5.0310826371,0.1727975719,4.7287753441
 H,0,5.384367544,-1.1012697539,3.5781698036
 C,0,6.7632248582,-1.0166975599,5.2571060571
 H,0,7.234464846,-0.2415582116,5.8782390074
 H,0,7.5700433076,-1.5592461567,4.7440812557
 C,0,5.9785701618,-1.9705526319,6.1360569348
 H,0,5.1866932864,-1.4688122107,6.6967356728
 H,0,5.548971162,-2.8049614205,5.5771947259
 N,0,6.9034282584,-2.5997210594,7.1897953466
 H,0,6.4144460563,-3.2526951569,7.8132028066
 H,0,7.3314880549,-1.8671926536,7.7686527563
 H,0,7.6704689675,-3.1081127158,6.7339936395
 O,0,6.6369211442,2.5355657554,0.4340962432
 Recover connectivity data from disk.
                           ----------------------------
                           !    Current Parameters    !
                           ! (Angstroms and Degrees)  !
 --------------------------                            --------------------------
 ! Name  Definition              Value                                          !
 --------------------------------------------------------------------------------
 ! R1    R(1,2)                  1.0229                                         !
 ! R2    R(1,3)                  1.0229                                         !
 ! R3    R(1,4)                  1.0717                                         !
 ! R4    R(1,5)                  1.5155                                         !
 ! R5    R(5,6)                  1.0905                                         !
 ! R6    R(5,7)                  1.5489                                         !
 ! R7    R(5,8)                  1.5477                                         !
 ! R8    R(7,10)                 1.2448                                         !
 ! R9    R(7,22)                 1.3193                                         !
 ! R10   R(8,9)                  1.1014                                         !
 ! R11   R(8,11)                 1.5432                                         !
 ! R12   R(8,14)                 1.5355                                         !
 ! R13   R(11,12)                1.0956                                         !
 ! R14   R(11,13)                1.0959                                         !
 ! R15   R(11,18)                1.5313                                         !
 ! R16   R(14,15)                1.0946                                         !
 ! R17   R(14,16)                1.0933                                         !
 ! R18   R(14,17)                1.0971                                         !
 ! R19   R(18,19)                1.0931                                         !
 ! R20   R(18,20)                1.097                                          !
 ! R21   R(18,21)                1.0967                                         !
 ! R22   R(22,23)                1.0229                                         !
 ! R23   R(22,24)                1.4604                                         !
 ! R24   R(24,25)                1.0929                                         !
 ! R25   R(24,26)                1.5426                                         !
 ! R26   R(24,27)                1.5462                                         !
 ! R27   R(26,30)                1.241                                          !
 ! R28   R(26,42)                1.3344                                         !
 ! R29   R(27,28)                1.0955                                         !
 ! R30   R(27,29)                1.097                                          !
 ! R31   R(27,31)                1.5098                                         !
 ! R32   R(31,32)                1.3989                                         !
 ! R33   R(31,34)                1.4019                                         !
 ! R34   R(32,33)                1.0878                                         !
 ! R35   R(32,36)                1.3944                                         !
 ! R36   R(34,35)                1.0889                                         !
 ! R37   R(34,38)                1.3954                                         !
 ! R38   R(36,37)                1.0844                                         !
 ! R39   R(36,40)                1.3949                                         !
 ! R40   R(38,39)                1.0862                                         !
 ! R41   R(38,40)                1.395                                          !
 ! R42   R(40,41)                1.0841                                         !
 ! R43   R(42,43)                1.02                                           !
 ! R44   R(42,44)                1.4597                                         !
 ! R45   R(44,45)                1.0945                                         !
 ! R46   R(44,46)                1.5372                                         !
 ! R47   R(44,47)                1.554                                          !
 ! R48   R(46,49)                1.2332                                         !
 ! R49   R(46,58)                1.3414                                         !
 ! R50   R(47,48)                1.0984                                         !
 ! R51   R(47,50)                1.5347                                         !
 ! R52   R(47,54)                1.5332                                         !
 ! R53   R(50,51)                1.098                                          !
 ! R54   R(50,52)                1.0952                                         !
 ! R55   R(50,53)                1.0931                                         !
 ! R56   R(54,55)                1.095                                          !
 ! R57   R(54,56)                1.0942                                         !
 ! R58   R(54,57)                1.0957                                         !
 ! R59   R(58,59)                1.0163                                         !
 ! R60   R(58,60)                1.4514                                         !
 ! R61   R(60,61)                1.0961                                         !
 ! R62   R(60,62)                1.5394                                         !
 ! R63   R(60,63)                1.5553                                         !
 ! R64   R(62,66)                1.2396                                         !
 ! R65   R(62,75)                1.3435                                         !
 ! R66   R(63,64)                1.0912                                         !
 ! R67   R(63,65)                1.0961                                         !
 ! R68   R(63,67)                1.5376                                         !
 ! R69   R(67,68)                1.0941                                         !
 ! R70   R(67,69)                1.0927                                         !
 ! R71   R(67,70)                1.5266                                         !
 ! R72   R(70,71)                1.3491                                         !
 ! R73   R(70,74)                1.2357                                         !
 ! R74   R(71,72)                1.0296                                         !
 ! R75   R(71,73)                1.0107                                         !
 ! R76   R(75,76)                1.028                                          !
 ! R77   R(75,77)                1.4612                                         !
 ! R78   R(77,78)                1.0969                                         !
 ! R79   R(77,79)                1.582                                          !
 ! R80   R(77,80)                1.5242                                         !
 ! R81   R(79,83)                1.2347                                         !
 ! R82   R(79,97)                1.2727                                         !
 ! R83   R(80,81)                1.0957                                         !
 ! R84   R(80,82)                1.0988                                         !
 ! R85   R(80,84)                1.529                                          !
 ! R86   R(84,85)                1.0975                                         !
 ! R87   R(84,86)                1.0958                                         !
 ! R88   R(84,87)                1.5358                                         !
 ! R89   R(87,88)                1.0994                                         !
 ! R90   R(87,89)                1.0993                                         !
 ! R91   R(87,90)                1.5159                                         !
 ! R92   R(90,91)                1.0923                                         !
 ! R93   R(90,92)                1.0923                                         !
 ! R94   R(90,93)                1.5367                                         !
 ! R95   R(93,94)                1.0267                                         !
 ! R96   R(93,95)                1.0271                                         !
 ! R97   R(93,96)                1.0269                                         !
 ! A1    A(2,1,3)              108.9299                                         !
 ! A2    A(2,1,4)              109.2343                                         !
 ! A3    A(2,1,5)              113.1853                                         !
 ! A4    A(3,1,4)              111.3255                                         !
 ! A5    A(3,1,5)              113.109                                          !
 ! A6    A(4,1,5)              100.8274                                         !
 ! A7    A(1,5,6)              107.9883                                         !
 ! A8    A(1,5,7)              101.8425                                         !
 ! A9    A(1,5,8)              110.2718                                         !
 ! A10   A(6,5,7)              111.6557                                         !
 ! A11   A(6,5,8)              110.7648                                         !
 ! A12   A(7,5,8)              113.834                                          !
 ! A13   A(5,7,10)             117.2641                                         !
 ! A14   A(5,7,22)             116.5306                                         !
 ! A15   A(10,7,22)            126.1823                                         !
 ! A16   A(5,8,9)              105.3852                                         !
 ! A17   A(5,8,11)             112.6553                                         !
 ! A18   A(5,8,14)             111.9141                                         !
 ! A19   A(9,8,11)             106.7487                                         !
 ! A20   A(9,8,14)             109.1246                                         !
 ! A21   A(11,8,14)            110.689                                          !
 ! A22   A(8,11,12)            110.1864                                         !
 ! A23   A(8,11,13)            106.1261                                         !
 ! A24   A(8,11,18)            115.3836                                         !
 ! A25   A(12,11,13)           105.7043                                         !
 ! A26   A(12,11,18)           109.9507                                         !
 ! A27   A(13,11,18)           108.9756                                         !
 ! A28   A(8,14,15)            111.0865                                         !
 ! A29   A(8,14,16)            109.6611                                         !
 ! A30   A(8,14,17)            113.5945                                         !
 ! A31   A(15,14,16)           107.8399                                         !
 ! A32   A(15,14,17)           107.4378                                         !
 ! A33   A(16,14,17)           106.9805                                         !
 ! A34   A(11,18,19)           110.0649                                         !
 ! A35   A(11,18,20)           112.9327                                         !
 ! A36   A(11,18,21)           111.5832                                         !
 ! A37   A(19,18,20)           106.3089                                         !
 ! A38   A(19,18,21)           107.8287                                         !
 ! A39   A(20,18,21)           107.8579                                         !
 ! A40   A(7,22,23)            122.9338                                         !
 ! A41   A(7,22,24)            125.3162                                         !
 ! A42   A(23,22,24)           111.0615                                         !
 ! A43   A(22,24,25)           108.6973                                         !
 ! A44   A(22,24,26)           103.3763                                         !
 ! A45   A(22,24,27)           110.9739                                         !
 ! A46   A(25,24,26)           110.4512                                         !
 ! A47   A(25,24,27)           109.5579                                         !
 ! A48   A(26,24,27)           113.5654                                         !
 ! A49   A(24,26,30)           118.856                                          !
 ! A50   A(24,26,42)           116.1384                                         !
 ! A51   A(30,26,42)           124.9781                                         !
 ! A52   A(24,27,28)           108.1976                                         !
 ! A53   A(24,27,29)           106.5781                                         !
 ! A54   A(24,27,31)           113.1921                                         !
 ! A55   A(28,27,29)           107.4352                                         !
 ! A56   A(28,27,31)           110.324                                          !
 ! A57   A(29,27,31)           110.8719                                         !
 ! A58   A(27,31,32)           120.4909                                         !
 ! A59   A(27,31,34)           120.5604                                         !
 ! A60   A(32,31,34)           118.9475                                         !
 ! A61   A(31,32,33)           119.3761                                         !
 ! A62   A(31,32,36)           120.5914                                         !
 ! A63   A(33,32,36)           120.0258                                         !
 ! A64   A(31,34,35)           119.8629                                         !
 ! A65   A(31,34,38)           120.462                                          !
 ! A66   A(35,34,38)           119.6677                                         !
 ! A67   A(32,36,37)           121.5315                                         !
 ! A68   A(32,36,40)           120.1156                                         !
 ! A69   A(37,36,40)           118.3528                                         !
 ! A70   A(34,38,39)           119.6844                                         !
 ! A71   A(34,38,40)           120.1264                                         !
 ! A72   A(39,38,40)           120.1857                                         !
 ! A73   A(36,40,38)           119.7363                                         !
 ! A74   A(36,40,41)           118.2439                                         !
 ! A75   A(38,40,41)           122.0186                                         !
 ! A76   A(26,42,43)           121.0991                                         !
 ! A77   A(26,42,44)           123.7286                                         !
 ! A78   A(43,42,44)           113.8672                                         !
 ! A79   A(42,44,45)           108.296                                          !
 ! A80   A(42,44,46)           104.6727                                         !
 ! A81   A(42,44,47)           112.0528                                         !
 ! A82   A(45,44,46)           111.9923                                         !
 ! A83   A(45,44,47)           109.5753                                         !
 ! A84   A(46,44,47)           110.1853                                         !
 ! A85   A(44,46,49)           119.2459                                         !
 ! A86   A(44,46,58)           116.7065                                         !
 ! A87   A(49,46,58)           124.0367                                         !
 ! A88   A(44,47,48)           106.3077                                         !
 ! A89   A(44,47,50)           110.8186                                         !
 ! A90   A(44,47,54)           111.9811                                         !
 ! A91   A(48,47,50)           108.7015                                         !
 ! A92   A(48,47,54)           108.4658                                         !
 ! A93   A(50,47,54)           110.4043                                         !
 ! A94   A(47,50,51)           110.677                                          !
 ! A95   A(47,50,52)           110.1545                                         !
 ! A96   A(47,50,53)           112.3653                                         !
 ! A97   A(51,50,52)           107.5651                                         !
 ! A98   A(51,50,53)           107.8998                                         !
 ! A99   A(52,50,53)           108.0116                                         !
 ! A100  A(47,54,55)           111.1279                                         !
 ! A101  A(47,54,56)           111.5285                                         !
 ! A102  A(47,54,57)           109.9299                                         !
 ! A103  A(55,54,56)           107.9488                                         !
 ! A104  A(55,54,57)           108.4326                                         !
 ! A105  A(56,54,57)           107.7523                                         !
 ! A106  A(46,58,59)           123.3189                                         !
 ! A107  A(46,58,60)           122.2236                                         !
 ! A108  A(59,58,60)           114.2806                                         !
 ! A109  A(58,60,61)           108.5428                                         !
 ! A110  A(58,60,62)           106.2537                                         !
 ! A111  A(58,60,63)           112.207                                          !
 ! A112  A(61,60,62)           110.4959                                         !
 ! A113  A(61,60,63)           108.9517                                         !
 ! A114  A(62,60,63)           110.359                                          !
 ! A115  A(60,62,66)           120.5865                                         !
 ! A116  A(60,62,75)           114.4905                                         !
 ! A117  A(66,62,75)           124.8519                                         !
 ! A118  A(60,63,64)           108.1388                                         !
 ! A119  A(60,63,65)           109.4301                                         !
 ! A120  A(60,63,67)           113.5409                                         !
 ! A121  A(64,63,65)           107.4342                                         !
 ! A122  A(64,63,67)           108.4296                                         !
 ! A123  A(65,63,67)           109.6735                                         !
 ! A124  A(63,67,68)           108.8001                                         !
 ! A125  A(63,67,69)           111.4363                                         !
 ! A126  A(63,67,70)           109.8945                                         !
 ! A127  A(68,67,69)           108.6075                                         !
 ! A128  A(68,67,70)           108.7135                                         !
 ! A129  A(69,67,70)           109.3353                                         !
 ! A130  A(67,70,71)           114.6297                                         !
 ! A131  A(67,70,74)           121.6298                                         !
 ! A132  A(71,70,74)           123.6981                                         !
 ! A133  A(70,71,72)           122.5308                                         !
 ! A134  A(70,71,73)           117.343                                          !
 ! A135  A(72,71,73)           119.7685                                         !
 ! A136  A(62,75,76)           118.396                                          !
 ! A137  A(62,75,77)           123.5531                                         !
 ! A138  A(76,75,77)           105.817                                          !
 ! A139  A(75,77,78)           108.8986                                         !
 ! A140  A(75,77,79)           106.9968                                         !
 ! A141  A(75,77,80)           114.0848                                         !
 ! A142  A(78,77,79)           107.9129                                         !
 ! A143  A(78,77,80)           108.863                                          !
 ! A144  A(79,77,80)           109.9056                                         !
 ! A145  A(77,79,83)           115.3553                                         !
 ! A146  A(77,79,97)           114.0222                                         !
 ! A147  A(83,79,97)           130.6177                                         !
 ! A148  A(77,80,81)           106.2781                                         !
 ! A149  A(77,80,82)           109.015                                          !
 ! A150  A(77,80,84)           113.3347                                         !
 ! A151  A(81,80,82)           107.4061                                         !
 ! A152  A(81,80,84)           110.7424                                         !
 ! A153  A(82,80,84)           109.8414                                         !
 ! A154  A(80,84,85)           109.4836                                         !
 ! A155  A(80,84,86)           110.2772                                         !
 ! A156  A(80,84,87)           110.9748                                         !
 ! A157  A(85,84,86)           106.0864                                         !
 ! A158  A(85,84,87)           109.6005                                         !
 ! A159  A(86,84,87)           110.2962                                         !
 ! A160  A(84,87,88)           109.1447                                         !
 ! A161  A(84,87,89)           109.5757                                         !
 ! A162  A(84,87,90)           111.1345                                         !
 ! A163  A(88,87,89)           107.2797                                         !
 ! A164  A(88,87,90)           109.7499                                         !
 ! A165  A(89,87,90)           109.8722                                         !
 ! A166  A(87,90,91)           112.5707                                         !
 ! A167  A(87,90,92)           112.804                                          !
 ! A168  A(87,90,93)           110.1008                                         !
 ! A169  A(91,90,92)           109.1707                                         !
 ! A170  A(91,90,93)           105.8067                                         !
 ! A171  A(92,90,93)           105.9485                                         !
 ! A172  A(90,93,94)           112.9611                                         !
 ! A173  A(90,93,95)           110.1987                                         !
 ! A174  A(90,93,96)           110.3568                                         !
 ! A175  A(94,93,95)           108.052                                          !
 ! A176  A(94,93,96)           108.0825                                         !
 ! A177  A(95,93,96)           106.9739                                         !
 ! D1    D(2,1,5,6)             14.1909                                         !
 ! D2    D(2,1,5,7)           -103.4879                                         !
 ! D3    D(2,1,5,8)            135.3417                                         !
 ! D4    D(3,1,5,6)           -110.3132                                         !
 ! D5    D(3,1,5,7)            132.008                                          !
 ! D6    D(3,1,5,8)             10.8376                                         !
 ! D7    D(4,1,5,6)            130.7285                                         !
 ! D8    D(4,1,5,7)             13.0497                                         !
 ! D9    D(4,1,5,8)           -108.1207                                         !
 ! D10   D(1,5,7,10)           -13.9989                                         !
 ! D11   D(1,5,7,22)           167.6362                                         !
 ! D12   D(6,5,7,10)          -129.0077                                         !
 ! D13   D(6,5,7,22)            52.6274                                         !
 ! D14   D(8,5,7,10)           104.6632                                         !
 ! D15   D(8,5,7,22)           -73.7017                                         !
 ! D16   D(1,5,8,9)            -55.9279                                         !
 ! D17   D(1,5,8,11)          -171.9507                                         !
 ! D18   D(1,5,8,14)            62.5592                                         !
 ! D19   D(6,5,8,9)             63.5527                                         !
 ! D20   D(6,5,8,11)           -52.4702                                         !
 ! D21   D(6,5,8,14)          -177.9602                                         !
 ! D22   D(7,5,8,9)           -169.652                                          !
 ! D23   D(7,5,8,11)            74.3251                                         !
 ! D24   D(7,5,8,14)           -51.1649                                         !
 ! D25   D(5,7,22,23)            2.1133                                         !
 ! D26   D(5,7,22,24)          171.743                                          !
 ! D27   D(10,7,22,23)        -176.0859                                         !
 ! D28   D(10,7,22,24)          -6.4562                                         !
 ! D29   D(5,8,11,12)          -71.2097                                         !
 ! D30   D(5,8,11,13)          174.8052                                         !
 ! D31   D(5,8,11,18)           54.0188                                         !
 ! D32   D(9,8,11,12)          173.5866                                         !
 ! D33   D(9,8,11,13)           59.6016                                         !
 ! D34   D(9,8,11,18)          -61.1849                                         !
 ! D35   D(14,8,11,12)          54.9422                                         !
 ! D36   D(14,8,11,13)         -59.0428                                         !
 ! D37   D(14,8,11,18)        -179.8293                                         !
 ! D38   D(5,8,14,15)           65.3082                                         !
 ! D39   D(5,8,14,16)         -175.5848                                         !
 ! D40   D(5,8,14,17)          -55.9499                                         !
 ! D41   D(9,8,14,15)         -178.4492                                         !
 ! D42   D(9,8,14,16)          -59.3422                                         !
 ! D43   D(9,8,14,17)           60.2926                                         !
 ! D44   D(11,8,14,15)         -61.2563                                         !
 ! D45   D(11,8,14,16)          57.8507                                         !
 ! D46   D(11,8,14,17)         177.4856                                         !
 ! D47   D(8,11,18,19)         172.4091                                         !
 ! D48   D(8,11,18,20)         -68.9607                                         !
 ! D49   D(8,11,18,21)          52.7379                                         !
 ! D50   D(12,11,18,19)        -62.2408                                         !
 ! D51   D(12,11,18,20)         56.3894                                         !
 ! D52   D(12,11,18,21)        178.088                                          !
 ! D53   D(13,11,18,19)         53.1835                                         !
 ! D54   D(13,11,18,20)        171.8136                                         !
 ! D55   D(13,11,18,21)        -66.4878                                         !
 ! D56   D(7,22,24,25)         -33.697                                          !
 ! D57   D(7,22,24,26)        -151.0609                                         !
 ! D58   D(7,22,24,27)          86.8484                                         !
 ! D59   D(23,22,24,25)        136.986                                          !
 ! D60   D(23,22,24,26)         19.6221                                         !
 ! D61   D(23,22,24,27)       -102.4686                                         !
 ! D62   D(22,24,26,30)        -18.9324                                         !
 ! D63   D(22,24,26,42)        159.2519                                         !
 ! D64   D(25,24,26,30)       -135.0587                                         !
 ! D65   D(25,24,26,42)         43.1256                                         !
 ! D66   D(27,24,26,30)        101.4069                                         !
 ! D67   D(27,24,26,42)        -80.4089                                         !
 ! D68   D(22,24,27,28)         57.742                                          !
 ! D69   D(22,24,27,29)        -57.5318                                         !
 ! D70   D(22,24,27,31)       -179.6696                                         !
 ! D71   D(25,24,27,28)        177.7765                                         !
 ! D72   D(25,24,27,29)         62.5026                                         !
 ! D73   D(25,24,27,31)        -59.6351                                         !
 ! D74   D(26,24,27,28)        -58.2028                                         !
 ! D75   D(26,24,27,29)       -173.4767                                         !
 ! D76   D(26,24,27,31)         64.3856                                         !
 ! D77   D(24,26,42,43)         10.6543                                         !
 ! D78   D(24,26,42,44)        176.7986                                         !
 ! D79   D(30,26,42,43)       -171.2866                                         !
 ! D80   D(30,26,42,44)         -5.1423                                         !
 ! D81   D(24,27,31,32)       -117.9494                                         !
 ! D82   D(24,27,31,34)         61.6487                                         !
 ! D83   D(28,27,31,32)          3.4495                                         !
 ! D84   D(28,27,31,34)       -176.9524                                         !
 ! D85   D(29,27,31,32)        122.3434                                         !
 ! D86   D(29,27,31,34)        -58.0585                                         !
 ! D87   D(27,31,32,33)         -0.4714                                         !
 ! D88   D(27,31,32,36)       -179.5263                                         !
 ! D89   D(34,31,32,33)        179.9241                                         !
 ! D90   D(34,31,32,36)          0.8692                                         !
 ! D91   D(27,31,34,35)          1.851                                          !
 ! D92   D(27,31,34,38)       -179.1405                                         !
 ! D93   D(32,31,34,35)       -178.5448                                         !
 ! D94   D(32,31,34,38)          0.4637                                         !
 ! D95   D(31,32,36,37)        178.2472                                         !
 ! D96   D(31,32,36,40)         -1.5796                                         !
 ! D97   D(33,32,36,37)         -0.8016                                         !
 ! D98   D(33,32,36,40)        179.3716                                         !
 ! D99   D(31,34,38,39)        179.581                                          !
 ! D100  D(31,34,38,40)         -1.0908                                         !
 ! D101  D(35,34,38,39)         -1.4086                                         !
 ! D102  D(35,34,38,40)        177.9195                                         !
 ! D103  D(32,36,40,38)          0.9439                                         !
 ! D104  D(32,36,40,41)       -179.4593                                         !
 ! D105  D(37,36,40,38)       -178.8884                                         !
 ! D106  D(37,36,40,41)          0.7084                                         !
 ! D107  D(34,38,40,36)          0.383                                          !
 ! D108  D(34,38,40,41)       -179.1981                                         !
 ! D109  D(39,38,40,36)        179.7077                                         !
 ! D110  D(39,38,40,41)          0.1267                                         !
 ! D111  D(26,42,44,45)        -25.3956                                         !
 ! D112  D(26,42,44,46)       -145.0186                                         !
 ! D113  D(26,42,44,47)         95.5807                                         !
 ! D114  D(43,42,44,45)        141.6465                                         !
 ! D115  D(43,42,44,46)         22.0236                                         !
 ! D116  D(43,42,44,47)        -97.3772                                         !
 ! D117  D(42,44,46,49)        -34.8937                                         !
 ! D118  D(42,44,46,58)        146.2627                                         !
 ! D119  D(45,44,46,49)       -152.0052                                         !
 ! D120  D(45,44,46,58)         29.1512                                         !
 ! D121  D(47,44,46,49)         85.7552                                         !
 ! D122  D(47,44,46,58)        -93.0885                                         !
 ! D123  D(42,44,47,48)         66.0386                                         !
 ! D124  D(42,44,47,50)       -176.0142                                         !
 ! D125  D(42,44,47,54)        -52.2543                                         !
 ! D126  D(45,44,47,48)       -173.7271                                         !
 ! D127  D(45,44,47,50)        -55.7799                                         !
 ! D128  D(45,44,47,54)         67.98                                           !
 ! D129  D(46,44,47,48)        -50.0719                                         !
 ! D130  D(46,44,47,50)         67.8753                                         !
 ! D131  D(46,44,47,54)       -168.3648                                         !
 ! D132  D(44,46,58,59)          2.1091                                         !
 ! D133  D(44,46,58,60)        176.9968                                         !
 ! D134  D(49,46,58,59)       -176.6733                                         !
 ! D135  D(49,46,58,60)         -1.7857                                         !
 ! D136  D(44,47,50,51)         61.7939                                         !
 ! D137  D(44,47,50,52)       -179.3817                                         !
 ! D138  D(44,47,50,53)        -58.905                                          !
 ! D139  D(48,47,50,51)        178.2728                                         !
 ! D140  D(48,47,50,52)        -62.9028                                         !
 ! D141  D(48,47,50,53)         57.574                                          !
 ! D142  D(54,47,50,51)        -62.8653                                         !
 ! D143  D(54,47,50,52)         55.9591                                         !
 ! D144  D(54,47,50,53)        176.4358                                         !
 ! D145  D(44,47,54,55)        -59.4637                                         !
 ! D146  D(44,47,54,56)         61.0399                                         !
 ! D147  D(44,47,54,57)       -179.5088                                         !
 ! D148  D(48,47,54,55)       -176.4665                                         !
 ! D149  D(48,47,54,56)        -55.9629                                         !
 ! D150  D(48,47,54,57)         63.4883                                         !
 ! D151  D(50,47,54,55)         64.5283                                         !
 ! D152  D(50,47,54,56)       -174.9681                                         !
 ! D153  D(50,47,54,57)        -55.5169                                         !
 ! D154  D(46,58,60,61)        -45.7031                                         !
 ! D155  D(46,58,60,62)       -164.5506                                         !
 ! D156  D(46,58,60,63)         74.7565                                         !
 ! D157  D(59,58,60,61)        129.6113                                         !
 ! D158  D(59,58,60,62)         10.7638                                         !
 ! D159  D(59,58,60,63)       -109.9291                                         !
 ! D160  D(58,60,62,66)         -7.3567                                         !
 ! D161  D(58,60,62,75)        175.5645                                         !
 ! D162  D(61,60,62,66)       -124.9129                                         !
 ! D163  D(61,60,62,75)         58.0083                                         !
 ! D164  D(63,60,62,66)        114.521                                          !
 ! D165  D(63,60,62,75)        -62.5578                                         !
 ! D166  D(58,60,63,64)        -18.9707                                         !
 ! D167  D(58,60,63,65)         97.7651                                         !
 ! D168  D(58,60,63,67)       -139.3415                                         !
 ! D169  D(61,60,63,64)        101.2518                                         !
 ! D170  D(61,60,63,65)       -142.0123                                         !
 ! D171  D(61,60,63,67)        -19.119                                          !
 ! D172  D(62,60,63,64)       -137.2616                                         !
 ! D173  D(62,60,63,65)        -20.5258                                         !
 ! D174  D(62,60,63,67)        102.3676                                         !
 ! D175  D(60,62,75,76)          9.92                                           !
 ! D176  D(60,62,75,77)        146.8347                                         !
 ! D177  D(66,62,75,76)       -167.0154                                         !
 ! D178  D(66,62,75,77)        -30.1007                                         !
 ! D179  D(60,63,67,68)         70.595                                          !
 ! D180  D(60,63,67,69)        -49.1261                                         !
 ! D181  D(60,63,67,70)       -170.4826                                         !
 ! D182  D(64,63,67,68)        -49.6113                                         !
 ! D183  D(64,63,67,69)       -169.3323                                         !
 ! D184  D(64,63,67,70)         69.3111                                         !
 ! D185  D(65,63,67,68)       -166.6457                                         !
 ! D186  D(65,63,67,69)         73.6333                                         !
 ! D187  D(65,63,67,70)        -47.7233                                         !
 ! D188  D(63,67,70,71)         96.224                                          !
 ! D189  D(63,67,70,74)        -81.4905                                         !
 ! D190  D(68,67,70,71)       -144.8005                                         !
 ! D191  D(68,67,70,74)         37.485                                          !
 ! D192  D(69,67,70,71)        -26.3831                                         !
 ! D193  D(69,67,70,74)        155.9024                                         !
 ! D194  D(67,70,71,72)         -2.5206                                         !
 ! D195  D(67,70,71,73)       -175.6292                                         !
 ! D196  D(74,70,71,72)        175.1404                                         !
 ! D197  D(74,70,71,73)          2.0318                                         !
 ! D198  D(62,75,77,78)        -18.9821                                         !
 ! D199  D(62,75,77,79)       -135.3792                                         !
 ! D200  D(62,75,77,80)        102.8442                                         !
 ! D201  D(76,75,77,78)        122.3691                                         !
 ! D202  D(76,75,77,79)          5.972                                          !
 ! D203  D(76,75,77,80)       -115.8046                                         !
 ! D204  D(75,77,79,83)       -179.2604                                         !
 ! D205  D(75,77,79,97)          0.0242                                         !
 ! D206  D(78,77,79,83)         63.6909                                         !
 ! D207  D(78,77,79,97)       -117.0244                                         !
 ! D208  D(80,77,79,83)        -54.891                                          !
 ! D209  D(80,77,79,97)        124.3937                                         !
 ! D210  D(75,77,80,81)        169.0149                                         !
 ! D211  D(75,77,80,82)         53.5313                                         !
 ! D212  D(75,77,80,84)        -69.1287                                         !
 ! D213  D(78,77,80,81)        -69.1391                                         !
 ! D214  D(78,77,80,82)        175.3772                                         !
 ! D215  D(78,77,80,84)         52.7172                                         !
 ! D216  D(79,77,80,81)         48.8559                                         !
 ! D217  D(79,77,80,82)        -66.6278                                         !
 ! D218  D(79,77,80,84)        170.7122                                         !
 ! D219  D(77,80,84,85)        -55.8234                                         !
 ! D220  D(77,80,84,86)         60.5391                                         !
 ! D221  D(77,80,84,87)       -176.9358                                         !
 ! D222  D(81,80,84,85)         63.504                                          !
 ! D223  D(81,80,84,86)        179.8666                                         !
 ! D224  D(81,80,84,87)        -57.6084                                         !
 ! D225  D(82,80,84,85)       -178.0247                                         !
 ! D226  D(82,80,84,86)        -61.6621                                         !
 ! D227  D(82,80,84,87)         60.8629                                         !
 ! D228  D(80,84,87,88)         56.6504                                         !
 ! D229  D(80,84,87,89)        -60.554                                          !
 ! D230  D(80,84,87,90)        177.8277                                         !
 ! D231  D(85,84,87,88)        -64.3932                                         !
 ! D232  D(85,84,87,89)        178.4024                                         !
 ! D233  D(85,84,87,90)         56.7841                                         !
 ! D234  D(86,84,87,88)        179.1644                                         !
 ! D235  D(86,84,87,89)         61.96                                           !
 ! D236  D(86,84,87,90)        -59.6582                                         !
 ! D237  D(84,87,90,91)        -60.6897                                         !
 ! D238  D(84,87,90,92)         63.4031                                         !
 ! D239  D(84,87,90,93)       -178.48                                           !
 ! D240  D(88,87,90,91)         60.132                                          !
 ! D241  D(88,87,90,92)       -175.7751                                         !
 ! D242  D(88,87,90,93)        -57.6583                                         !
 ! D243  D(89,87,90,91)        177.8653                                         !
 ! D244  D(89,87,90,92)        -58.0419                                         !
 ! D245  D(89,87,90,93)         60.075                                          !
 ! D246  D(87,90,93,94)        179.7757                                         !
 ! D247  D(87,90,93,95)         58.8138                                         !
 ! D248  D(87,90,93,96)        -59.1098                                         !
 ! D249  D(91,90,93,94)         57.8794                                         !
 ! D250  D(91,90,93,95)        -63.0825                                         !
 ! D251  D(91,90,93,96)        178.9939                                         !
 ! D252  D(92,90,93,94)        -57.9601                                         !
 ! D253  D(92,90,93,95)       -178.922                                          !
 ! D254  D(92,90,93,96)         63.1543                                         !
 --------------------------------------------------------------------------------
 Symmetry turned off by external request.
 Stoichiometry    C31H52N7O7(1+)
 Framework group  C1[X(C31H52N7O7)]
 Deg. of freedom   285
 Full point group                 C1      NOp   1
                          Input orientation:                          
 ---------------------------------------------------------------------
 Center     Atomic      Atomic             Coordinates (Angstroms)
 Number     Number       Type             X           Y           Z
 ---------------------------------------------------------------------
      1          7           0       -7.160118   -2.212353   -4.738769
      2          1           0       -7.799234   -1.422184   -4.854940
      3          1           0       -7.686719   -3.083087   -4.842437
      4          1           0       -6.376077   -2.142129   -5.465965
      5          6           0       -6.361566   -2.149731   -3.452191
      6          1           0       -6.823360   -1.403176   -2.805194
      7          6           0       -4.974368   -1.685347   -3.961351
      8          6           0       -6.343333   -3.536072   -2.764357
      9          1           0       -7.401768   -3.810652   -2.632200
     10          8           0       -4.766745   -1.747517   -5.187180
     11          6           0       -5.715964   -3.492232   -1.355099
     12          1           0       -4.634133   -3.335317   -1.427603
     13          1           0       -5.842539   -4.496164   -0.934187
     14          6           0       -5.652862   -4.597646   -3.632777
     15          1           0       -4.590064   -4.370105   -3.762217
     16          1           0       -5.729635   -5.575211   -3.149251
     17          1           0       -6.091434   -4.699692   -4.633164
     18          6           0       -6.329171   -2.468900   -0.395136
     19          1           0       -5.916945   -2.602158    0.608458
     20          1           0       -6.114111   -1.431991   -0.681311
     21          1           0       -7.418106   -2.580402   -0.328378
     22          7           0       -4.111620   -1.291418   -3.044261
     23          1           0       -4.315785   -1.314599   -2.042222
     24          6           0       -2.705435   -0.980152   -3.286301
     25          1           0       -2.331705   -1.637998   -4.074971
     26          6           0       -2.029279   -1.313925   -1.940564
     27          6           0       -2.531175    0.494704   -3.716655
     28          1           0       -2.948326    1.132353   -2.929524
     29          1           0       -3.147376    0.633961   -4.613511
     30          8           0       -2.731530   -1.390834   -0.920273
     31          6           0       -1.093898    0.869045   -3.988066
     32          6           0       -0.460675    1.854747   -3.223708
     33          1           0       -1.016006    2.356756   -2.434469
     34          6           0       -0.370244    0.228972   -5.003957
     35          1           0       -0.855391   -0.523634   -5.623590
     36          6           0        0.863570    2.209042   -3.478967
     37          1           0        1.360443    2.990338   -2.914592
     38          6           0        0.963353    0.563971   -5.241270
     39          1           0        1.514127    0.055207   -6.027171
     40          6           0        1.581514    1.557499   -4.481798
     41          1           0        2.611776    1.851003   -4.648512
     42          7           0       -0.714188   -1.536163   -1.982593
     43          1           0       -0.171579   -1.330052   -2.821331
     44          6           0        0.101716   -1.798262   -0.800889
     45          1           0       -0.393049   -1.347554    0.065111
     46          6           0        1.452475   -1.130218   -1.104374
     47          6           0        0.299419   -3.319764   -0.554110
     48          1           0        0.896736   -3.693827   -1.396629
     49          8           0        1.876316   -1.126989   -2.262403
     50          6           0        1.075841   -3.564975    0.746753
     51          1           0        0.520082   -3.174468    1.609457
     52          1           0        1.218454   -4.639315    0.904279
     53          1           0        2.060757   -3.090814    0.738991
     54          6           0       -1.034357   -4.075463   -0.531083
     55          1           0       -1.691480   -3.692445    0.256691
     56          1           0       -1.563278   -3.985587   -1.484676
     57          1           0       -0.856870   -5.140830   -0.346618
     58          7           0        2.111065   -0.601266   -0.062316
     59          1           0        1.774500   -0.652919    0.895241
     60          6           0        3.424217    0.001040   -0.201712
     61          1           0        4.049017   -0.662176   -0.811041
     62          6           0        3.996057    0.122198    1.222419
     63          6           0        3.360643    1.399175   -0.880023
     64          1           0        2.406565    1.479782   -1.403353
     65          1           0        3.379846    2.179138   -0.110182
     66          8           0        3.291881   -0.137140    2.209039
     67          6           0        4.492261    1.642778   -1.892044
     68          1           0        4.320574    1.014240   -2.771029
     69          1           0        5.467649    1.391187   -1.468657
     70          6           0        4.492831    3.105616   -2.328525
     71          7           0        5.356069    3.893172   -1.654311
     72          1           0        5.937291    3.541992   -0.880377
     73          1           0        5.342272    4.882045   -1.862841
     74          8           0        3.723419    3.521756   -3.201308
     75          7           0        5.258261    0.579023    1.278766
     76          1           0        5.681900    0.952323    0.419665
     77          6           0        5.768991    1.408696    2.367711
     78          1           0        4.921426    1.857235    2.900185
     79          6           0        6.602196    2.579245    1.705609
     80          6           0        6.637188    0.655640    3.368904
     81          1           0        7.107252    1.416879    4.001415
     82          1           0        7.440140    0.136715    2.827324
     83          8           0        7.120724    3.372457    2.497106
     84          6           0        5.852999   -0.345211    4.218163
     85          1           0        5.031083    0.172798    4.728775
     86          1           0        5.384368   -1.101270    3.578170
     87          6           0        6.763225   -1.016698    5.257106
     88          1           0        7.234465   -0.241558    5.878239
     89          1           0        7.570043   -1.559246    4.744081
     90          6           0        5.978570   -1.970553    6.136057
     91          1           0        5.186693   -1.468812    6.696736
     92          1           0        5.548971   -2.804961    5.577195
     93          7           0        6.903428   -2.599721    7.189795
     94          1           0        6.414446   -3.252695    7.813203
     95          1           0        7.331488   -1.867193    7.768653
     96          1           0        7.670469   -3.108113    6.733994
     97          8           0        6.636921    2.535566    0.434096
 ---------------------------------------------------------------------
 Rotational constants (GHZ):           0.1036448           0.0295439           0.0241608
 Standard basis: 6-31G(d) (6D, 7F)
   779 basis functions,  1468 primitive gaussians,   779 cartesian basis functions
   171 alpha electrons      171 beta electrons
       nuclear repulsion energy      5811.5788088096 Hartrees.
 NAtoms=   97 NActive=   97 NUniq=   97 SFac= 1.00D+00 NAtFMM=   60 NAOKFM=T Big=T
 Integral buffers will be    131072 words long.
 Raffenetti 2 integral format.
 Two-electron integral symmetry is turned off.
 Nuclear repulsion after empirical dispersion term =     5811.3688981042 Hartrees.
 One-electron integrals computed using PRISM.
 NBasis=   779 RedAO= T EigKep=  4.57D-04  NBF=   779
 NBsUse=   779 1.00D-06 EigRej= -1.00D+00 NBFU=   779
 Initial guess from the checkpoint file:  "conf-112.chk"
 B after Tr=     0.000000    0.000000    0.000000
         Rot=    1.000000    0.000000    0.000000    0.000000 Ang=   0.00 deg.
 Requested convergence on RMS density matrix=1.00D-08 within 128 cycles.
 Requested convergence on MAX density matrix=1.00D-06.
 Requested convergence on             energy=1.00D-06.
 No special actions if energy rises.
 SCF Done:  E(RB3LYP) =  -2122.49262864     A.U. after    3 cycles
            NFock=  3  Conv=0.65D-09     -V/T= 2.0094

 **********************************************************************

            Population analysis using the SCF Density.

 **********************************************************************

 Alpha  occ. eigenvalues --  -19.25542 -19.20044 -19.16488 -19.15624 -19.11199
 Alpha  occ. eigenvalues --  -19.09007 -19.07597 -14.62860 -14.58728 -14.47854
 Alpha  occ. eigenvalues --  -14.43213 -14.40534 -14.37106 -14.34304 -10.42103
 Alpha  occ. eigenvalues --  -10.39276 -10.39242 -10.36928 -10.33645 -10.33351
 Alpha  occ. eigenvalues --  -10.32614 -10.32039 -10.30881 -10.29691 -10.29393
 Alpha  occ. eigenvalues --  -10.29279 -10.28865 -10.27838 -10.26987 -10.26781
 Alpha  occ. eigenvalues --  -10.26621 -10.25786 -10.25749 -10.24460 -10.23576
 Alpha  occ. eigenvalues --  -10.23557 -10.23365 -10.23348 -10.22964 -10.22758
 Alpha  occ. eigenvalues --  -10.22267 -10.21829 -10.21793 -10.21598 -10.20424
 Alpha  occ. eigenvalues --   -1.18056  -1.16726  -1.12689  -1.11835  -1.08689
 Alpha  occ. eigenvalues --   -1.06849  -1.04758  -1.02631  -1.01757  -0.99926
 Alpha  occ. eigenvalues --   -0.97121  -0.94960  -0.94564  -0.92930  -0.92334
 Alpha  occ. eigenvalues --   -0.90389  -0.89474  -0.87722  -0.86604  -0.85028
 Alpha  occ. eigenvalues --   -0.84126  -0.83591  -0.82269  -0.79872  -0.78258
 Alpha  occ. eigenvalues --   -0.78124  -0.77837  -0.75546  -0.75378  -0.75347
 Alpha  occ. eigenvalues --   -0.74578  -0.73956  -0.73534  -0.73272  -0.72449
 Alpha  occ. eigenvalues --   -0.70014  -0.69525  -0.67438  -0.66890  -0.66264
 Alpha  occ. eigenvalues --   -0.65731  -0.65186  -0.64378  -0.63631  -0.63264
 Alpha  occ. eigenvalues --   -0.62553  -0.62249  -0.61197  -0.60621  -0.60018
 Alpha  occ. eigenvalues --   -0.59685  -0.58908  -0.58100  -0.57448  -0.56011
 Alpha  occ. eigenvalues --   -0.55457  -0.54868  -0.54580  -0.53901  -0.53700
 Alpha  occ. eigenvalues --   -0.53551  -0.53329  -0.53067  -0.52995  -0.52325
 Alpha  occ. eigenvalues --   -0.51910  -0.51248  -0.50977  -0.50803  -0.49995
 Alpha  occ. eigenvalues --   -0.49566  -0.49365  -0.48934  -0.48773  -0.48656
 Alpha  occ. eigenvalues --   -0.48282  -0.47750  -0.47542  -0.47319  -0.46830
 Alpha  occ. eigenvalues --   -0.46208  -0.45807  -0.45651  -0.45346  -0.45156
 Alpha  occ. eigenvalues --   -0.44994  -0.44696  -0.44517  -0.44395  -0.44264
 Alpha  occ. eigenvalues --   -0.44125  -0.43821  -0.43506  -0.43171  -0.42924
 Alpha  occ. eigenvalues --   -0.41617  -0.41133  -0.40381  -0.40116  -0.40020
 Alpha  occ. eigenvalues --   -0.39821  -0.39724  -0.39352  -0.39148  -0.38822
 Alpha  occ. eigenvalues --   -0.38559  -0.37941  -0.37780  -0.37447  -0.37155
 Alpha  occ. eigenvalues --   -0.36611  -0.36308  -0.35552  -0.34383  -0.33073
 Alpha  occ. eigenvalues --   -0.30696  -0.30160  -0.29545  -0.28866  -0.28781
 Alpha  occ. eigenvalues --   -0.28211  -0.26255  -0.25298  -0.23977  -0.23805
 Alpha  occ. eigenvalues --   -0.21714
 Alpha virt. eigenvalues --   -0.13469  -0.10899  -0.10176  -0.06843  -0.06647
 Alpha virt. eigenvalues --   -0.06007  -0.05808  -0.04590  -0.04147  -0.03816
 Alpha virt. eigenvalues --   -0.03731  -0.02715  -0.01271  -0.00600  -0.00367
 Alpha virt. eigenvalues --    0.00420   0.01014   0.01157   0.01530   0.02714
 Alpha virt. eigenvalues --    0.02842   0.03069   0.03285   0.03829   0.04404
 Alpha virt. eigenvalues --    0.04449   0.05116   0.05507   0.05700   0.06077
 Alpha virt. eigenvalues --    0.06488   0.06969   0.07326   0.07624   0.07792
 Alpha virt. eigenvalues --    0.07996   0.08159   0.08543   0.08684   0.08979
 Alpha virt. eigenvalues --    0.09306   0.09424   0.09772   0.10194   0.10359
 Alpha virt. eigenvalues --    0.10455   0.10969   0.11231   0.11471   0.11573
 Alpha virt. eigenvalues --    0.11699   0.11920   0.12320   0.12383   0.12760
 Alpha virt. eigenvalues --    0.12904   0.13244   0.13310   0.13720   0.14049
 Alpha virt. eigenvalues --    0.14349   0.14538   0.14859   0.15083   0.15420
 Alpha virt. eigenvalues --    0.15565   0.16235   0.16814   0.17075   0.17540
 Alpha virt. eigenvalues --    0.17648   0.18084   0.18914   0.19282   0.19440
 Alpha virt. eigenvalues --    0.19893   0.19992   0.20573   0.21515   0.21884
 Alpha virt. eigenvalues --    0.22063   0.22674   0.24012   0.24426   0.25121
 Alpha virt. eigenvalues --    0.25673   0.26215   0.27084   0.27387   0.27942
 Alpha virt. eigenvalues --    0.28704   0.29095   0.29569   0.30942   0.31236
 Alpha virt. eigenvalues --    0.31977   0.32200   0.34361   0.35219   0.36003
 Alpha virt. eigenvalues --    0.36570   0.37180   0.37497   0.38115   0.38911
 Alpha virt. eigenvalues --    0.39039   0.39313   0.39747   0.40441   0.41013
 Alpha virt. eigenvalues --    0.42409   0.42773   0.43023   0.43765   0.44199
 Alpha virt. eigenvalues --    0.44870   0.45333   0.45897   0.46363   0.46593
 Alpha virt. eigenvalues --    0.47191   0.47620   0.48597   0.48736   0.49374
 Alpha virt. eigenvalues --    0.49763   0.50297   0.50456   0.50672   0.50808
 Alpha virt. eigenvalues --    0.51068   0.51135   0.51793   0.52146   0.52473
 Alpha virt. eigenvalues --    0.52729   0.53066   0.53477   0.53717   0.54238
 Alpha virt. eigenvalues --    0.54551   0.54894   0.55403   0.55727   0.55889
 Alpha virt. eigenvalues --    0.56247   0.56703   0.57019   0.57450   0.57557
 Alpha virt. eigenvalues --    0.57904   0.58232   0.58467   0.58685   0.58747
 Alpha virt. eigenvalues --    0.59334   0.59545   0.60335   0.60755   0.61147
 Alpha virt. eigenvalues --    0.61610   0.61687   0.62433   0.62809   0.63040
 Alpha virt. eigenvalues --    0.63421   0.64252   0.64648   0.64774   0.65427
 Alpha virt. eigenvalues --    0.65548   0.65800   0.65890   0.66100   0.66602
 Alpha virt. eigenvalues --    0.66879   0.67039   0.67574   0.67824   0.68627
 Alpha virt. eigenvalues --    0.68751   0.68948   0.69014   0.69668   0.69948
 Alpha virt. eigenvalues --    0.70462   0.71157   0.71410   0.71900   0.72239
 Alpha virt. eigenvalues --    0.72876   0.72953   0.73266   0.73635   0.74094
 Alpha virt. eigenvalues --    0.74333   0.74614   0.75089   0.75416   0.75968
 Alpha virt. eigenvalues --    0.76384   0.76752   0.77243   0.77386   0.77792
 Alpha virt. eigenvalues --    0.77815   0.78184   0.78580   0.79095   0.79474
 Alpha virt. eigenvalues --    0.79781   0.80205   0.80520   0.80791   0.80904
 Alpha virt. eigenvalues --    0.80993   0.81386   0.81820   0.82043   0.82460
 Alpha virt. eigenvalues --    0.82571   0.83068   0.83269   0.83374   0.83586
 Alpha virt. eigenvalues --    0.84023   0.84217   0.84423   0.84616   0.84856
 Alpha virt. eigenvalues --    0.85212   0.85294   0.85854   0.86063   0.86217
 Alpha virt. eigenvalues --    0.86530   0.86707   0.86895   0.87226   0.87891
 Alpha virt. eigenvalues --    0.88214   0.88706   0.88763   0.88838   0.89369
 Alpha virt. eigenvalues --    0.89923   0.89975   0.90279   0.90460   0.91050
 Alpha virt. eigenvalues --    0.91782   0.92015   0.92237   0.93069   0.93386
 Alpha virt. eigenvalues --    0.93934   0.94686   0.95222   0.95404   0.96017
 Alpha virt. eigenvalues --    0.96407   0.97493   0.98105   0.98168   0.98454
 Alpha virt. eigenvalues --    0.98805   1.00167   1.00778   1.01124   1.01795
 Alpha virt. eigenvalues --    1.02275   1.03118   1.03658   1.04580   1.05583
 Alpha virt. eigenvalues --    1.05803   1.07049   1.08405   1.08774   1.09629
 Alpha virt. eigenvalues --    1.09886   1.10656   1.11366   1.11669   1.12357
 Alpha virt. eigenvalues --    1.12782   1.13528   1.13641   1.14792   1.15560
 Alpha virt. eigenvalues --    1.15647   1.16597   1.17147   1.18387   1.18549
 Alpha virt. eigenvalues --    1.19954   1.20716   1.21216   1.22560   1.22634
 Alpha virt. eigenvalues --    1.22834   1.23985   1.24914   1.25816   1.25992
 Alpha virt. eigenvalues --    1.27197   1.28547   1.29434   1.30244   1.30834
 Alpha virt. eigenvalues --    1.31690   1.31937   1.32596   1.33755   1.34207
 Alpha virt. eigenvalues --    1.34788   1.35843   1.36452   1.37039   1.37928
 Alpha virt. eigenvalues --    1.38833   1.39941   1.40594   1.40903   1.41513
 Alpha virt. eigenvalues --    1.42085   1.43250   1.43415   1.43845   1.44256
 Alpha virt. eigenvalues --    1.45023   1.45245   1.45700   1.45981   1.46356
 Alpha virt. eigenvalues --    1.46877   1.47915   1.48307   1.49020   1.49755
 Alpha virt. eigenvalues --    1.50082   1.50825   1.51480   1.52217   1.53232
 Alpha virt. eigenvalues --    1.54156   1.54588   1.54969   1.55862   1.55977
 Alpha virt. eigenvalues --    1.56345   1.58873   1.60781   1.60984   1.62628
 Alpha virt. eigenvalues --    1.63254   1.63858   1.64200   1.64816   1.65360
 Alpha virt. eigenvalues --    1.65498   1.65944   1.66307   1.68224   1.69402
 Alpha virt. eigenvalues --    1.70029   1.70167   1.70429   1.70767   1.71149
 Alpha virt. eigenvalues --    1.72086   1.72139   1.72347   1.72755   1.73241
 Alpha virt. eigenvalues --    1.73531   1.74366   1.75262   1.75968   1.76406
 Alpha virt. eigenvalues --    1.77257   1.77506   1.77877   1.78428   1.78626
 Alpha virt. eigenvalues --    1.78882   1.79751   1.80438   1.80611   1.80854
 Alpha virt. eigenvalues --    1.81013   1.81553   1.82241   1.82651   1.83035
 Alpha virt. eigenvalues --    1.83427   1.84291   1.84531   1.84605   1.85292
 Alpha virt. eigenvalues --    1.86158   1.86344   1.86765   1.86876   1.87049
 Alpha virt. eigenvalues --    1.87593   1.87931   1.88671   1.89441   1.89815
 Alpha virt. eigenvalues --    1.90181   1.90456   1.90874   1.91123   1.91522
 Alpha virt. eigenvalues --    1.91988   1.92452   1.92973   1.93812   1.94101
 Alpha virt. eigenvalues --    1.94804   1.95022   1.95611   1.95836   1.96059
 Alpha virt. eigenvalues --    1.96978   1.97376   1.98765   1.98825   1.99709
 Alpha virt. eigenvalues --    2.00254   2.00320   2.00622   2.01301   2.01655
 Alpha virt. eigenvalues --    2.02194   2.02523   2.02754   2.03910   2.04311
 Alpha virt. eigenvalues --    2.05035   2.05399   2.05560   2.06636   2.06866
 Alpha virt. eigenvalues --    2.07457   2.08215   2.08827   2.09736   2.10547
 Alpha virt. eigenvalues --    2.11122   2.11736   2.12698   2.12967   2.13719
 Alpha virt. eigenvalues --    2.13806   2.15028   2.15435   2.16139   2.17051
 Alpha virt. eigenvalues --    2.17198   2.17915   2.18817   2.19310   2.19372
 Alpha virt. eigenvalues --    2.19889   2.20359   2.20725   2.22216   2.22537
 Alpha virt. eigenvalues --    2.23192   2.23678   2.24500   2.25939   2.26253
 Alpha virt. eigenvalues --    2.26783   2.27781   2.28057   2.28449   2.29315
 Alpha virt. eigenvalues --    2.29495   2.30143   2.31180   2.32480   2.32909
 Alpha virt. eigenvalues --    2.33545   2.34059   2.34343   2.35521   2.35795
 Alpha virt. eigenvalues --    2.36503   2.37539   2.38172   2.39405   2.39504
 Alpha virt. eigenvalues --    2.40194   2.41538   2.42694   2.43887   2.44506
 Alpha virt. eigenvalues --    2.45540   2.46356   2.47083   2.48018   2.48116
 Alpha virt. eigenvalues --    2.50340   2.51025   2.51596   2.51747   2.53169
 Alpha virt. eigenvalues --    2.54256   2.55131   2.55468   2.56574   2.56771
 Alpha virt. eigenvalues --    2.57831   2.58687   2.59739   2.59969   2.61781
 Alpha virt. eigenvalues --    2.62383   2.63709   2.63928   2.65217   2.65753
 Alpha virt. eigenvalues --    2.67520   2.68643   2.69744   2.70346   2.71187
 Alpha virt. eigenvalues --    2.71654   2.72324   2.72493   2.72812   2.73876
 Alpha virt. eigenvalues --    2.75250   2.75913   2.76951   2.78737   2.80214
 Alpha virt. eigenvalues --    2.81812   2.82148   2.82971   2.85543   2.85547
 Alpha virt. eigenvalues --    2.88384   2.89955   2.91638   2.92261   2.94586
 Alpha virt. eigenvalues --    2.95157   2.97368   2.98354   3.00697   3.02245
 Alpha virt. eigenvalues --    3.03149   3.06294   3.07626   3.10391   3.13931
 Alpha virt. eigenvalues --    3.18102   3.20251   3.37707   3.56274   3.65484
 Alpha virt. eigenvalues --    3.87058   3.96593   3.97221   3.99660   4.00212
 Alpha virt. eigenvalues --    4.01279   4.04686   4.05813   4.07501   4.08529
 Alpha virt. eigenvalues --    4.09373   4.09869   4.10526   4.14164   4.14912
 Alpha virt. eigenvalues --    4.15699   4.17085   4.18597   4.19700   4.19959
 Alpha virt. eigenvalues --    4.23393   4.24076   4.26398   4.26647   4.32582
 Alpha virt. eigenvalues --    4.33180   4.34875   4.35415   4.36795   4.37691
 Alpha virt. eigenvalues --    4.38942   4.40993   4.44497   4.47477   4.48920
 Alpha virt. eigenvalues --    4.50077   4.51473   4.57577   4.58597   4.62822
 Alpha virt. eigenvalues --    4.64550   4.66436   4.68595
          Condensed to atoms (all electrons):
 Mulliken charges:
               1
     1  N   -0.763911
     2  H    0.414189
     3  H    0.408487
     4  H    0.435248
     5  C   -0.111210
     6  H    0.212232
     7  C    0.652544
     8  C   -0.109853
     9  H    0.150623
    10  O   -0.555701
    11  C   -0.287831
    12  H    0.180109
    13  H    0.169452
    14  C   -0.475566
    15  H    0.187717
    16  H    0.190168
    17  H    0.138404
    18  C   -0.468790
    19  H    0.190827
    20  H    0.147692
    21  H    0.153883
    22  N   -0.613514
    23  H    0.391376
    24  C   -0.074988
    25  H    0.191612
    26  C    0.637163
    27  C   -0.342702
    28  H    0.156697
    29  H    0.172965
    30  O   -0.569513
    31  C    0.153659
    32  C   -0.190061
    33  H    0.122464
    34  C   -0.215430
    35  H    0.119015
    36  C   -0.137707
    37  H    0.176678
    38  C   -0.110852
    39  H    0.136257
    40  C   -0.120256
    41  H    0.177068
    42  N   -0.616184
    43  H    0.382911
    44  C   -0.040318
    45  H    0.166850
    46  C    0.623626
    47  C   -0.070853
    48  H    0.147917
    49  O   -0.546317
    50  C   -0.466219
    51  H    0.142902
    52  H    0.147890
    53  H    0.165548
    54  C   -0.445832
    55  H    0.156985
    56  H    0.132847
    57  H    0.144296
    58  N   -0.623457
    59  H    0.350312
    60  C   -0.027061
    61  H    0.177869
    62  C    0.572286
    63  C   -0.290626
    64  H    0.178129
    65  H    0.163386
    66  O   -0.573793
    67  C   -0.369053
    68  H    0.166125
    69  H    0.173564
    70  C    0.560986
    71  N   -0.763379
    72  H    0.411304
    73  H    0.324985
    74  O   -0.540299
    75  N   -0.610259
    76  H    0.377768
    77  C   -0.080566
    78  H    0.149810
    79  C    0.589260
    80  C   -0.257473
    81  H    0.169115
    82  H    0.133679
    83  O   -0.559839
    84  C   -0.264792
    85  H    0.154922
    86  H    0.167832
    87  C   -0.291852
    88  H    0.164677
    89  H    0.161688
    90  C   -0.205906
    91  H    0.226362
    92  H    0.224859
    93  N   -0.730735
    94  H    0.423872
    95  H    0.425402
    96  H    0.424134
    97  O   -0.627929
 Sum of Mulliken charges =   1.00000
 Mulliken charges with hydrogens summed into heavy atoms:
               1
     1  N    0.494013
     5  C    0.101022
     7  C    0.652544
     8  C    0.040771
    10  O   -0.555701
    11  C    0.061730
    14  C    0.040723
    18  C    0.023612
    22  N   -0.222138
    24  C    0.116624
    26  C    0.637163
    27  C   -0.013040
    30  O   -0.569513
    31  C    0.153659
    32  C   -0.067597
    34  C   -0.096416
    36  C    0.038971
    38  C    0.025406
    40  C    0.056813
    42  N   -0.233273
    44  C    0.126532
    46  C    0.623626
    47  C    0.077064
    49  O   -0.546317
    50  C   -0.009879
    54  C   -0.011703
    58  N   -0.273145
    60  C    0.150807
    62  C    0.572286
    63  C    0.050889
    66  O   -0.573793
    67  C   -0.029364
    70  C    0.560986
    71  N   -0.027091
    74  O   -0.540299
    75  N   -0.232491
    77  C    0.069244
    79  C    0.589260
    80  C    0.045320
    83  O   -0.559839
    84  C    0.057962
    87  C    0.034512
    90  C    0.245314
    93  N    0.542673
    97  O   -0.627929
 Electronic spatial extent (au):  <R**2>=          44748.8776
 Charge=              1.0000 electrons
 Dipole moment (field-independent basis, Debye):
    X=            -13.3419    Y=            -27.5455    Z=             13.5732  Tot=             33.4812
 Quadrupole moment (field-independent basis, Debye-Ang):
   XX=              2.3609   YY=           -235.4206   ZZ=            -25.8624
   XY=            -64.1795   XZ=            279.0539   YZ=            -45.5565
 Traceless Quadrupole moment (field-independent basis, Debye-Ang):
   XX=             88.6683   YY=           -149.1132   ZZ=             60.4450
   XY=            -64.1795   XZ=            279.0539   YZ=            -45.5565
 Octapole moment (field-independent basis, Debye-Ang**2):
  XXX=          -1484.4833  YYY=            102.5779  ZZZ=           2027.5129  XYY=           -384.1128
  XXY=          -1180.8933  XXZ=            662.6983  XZZ=            668.2979  YZZ=           -638.3671
  YYZ=            338.3568  XYZ=           -830.7514
 Hexadecapole moment (field-independent basis, Debye-Ang**3):
 XXXX=         -18173.3268 YYYY=          -7866.4201 ZZZZ=          -4386.8717 XXXY=          -7297.9390
 XXXZ=           7610.9028 YYYX=          -4682.3359 YYYZ=           -590.0723 ZZZX=           5800.1504
 ZZZY=          -3365.3112 XXYY=          -5336.6672 XXZZ=           4791.1490 YYZZ=          -2638.0613
 XXYZ=          -2584.4669 YYXZ=           -426.5706 ZZXY=          -4460.4500
 N-N= 5.811368898104D+03 E-N=-1.654193667927D+04  KE= 2.102738479927D+03
 Unable to Open any file for archive entry.
 1\1\GINC-LAC-307\SP\RB3LYP\6-31G(d)\C31H52N7O7(1+)\KENGMITH\30-Jun-202
 2\0\\# B3LYP/6-31G* empiricaldispersion=gd3bj guess=read geom=check no
 symm integral(ultrafinegrid)\\Candidate Structure: Conf:112 Charge cal
 c in gas phase\\1,1\N,0,-7.1601177887,-2.2123526682,-4.7387693101\H,0,
 -7.7992338525,-1.422183582,-4.8549397379\H,0,-7.686718816,-3.083086836
 2,-4.8424369435\H,0,-6.3760773159,-2.1421292576,-5.4659652948\C,0,-6.3
 615658655,-2.1497313104,-3.4521908498\H,0,-6.823360274,-1.403176198,-2
 .8051935837\C,0,-4.9743682692,-1.6853474975,-3.9613505344\C,0,-6.34333
 30057,-3.5360721053,-2.7643572886\H,0,-7.4017682701,-3.8106518891,-2.6
 321998673\O,0,-4.7667447402,-1.7475173564,-5.187179945\C,0,-5.71596358
 32,-3.4922320182,-1.3550994652\H,0,-4.6341332909,-3.3353169056,-1.4276
 026318\H,0,-5.8425392242,-4.4961644398,-0.93418745\C,0,-5.6528617792,-
 4.5976462405,-3.6327769791\H,0,-4.5900642586,-4.3701050754,-3.76221742
 89\H,0,-5.7296351093,-5.5752112052,-3.1492508747\H,0,-6.0914343592,-4.
 6996922117,-4.6331639604\C,0,-6.3291706345,-2.4688996818,-0.3951360256
 \H,0,-5.9169453422,-2.6021579514,0.6084575961\H,0,-6.1141110001,-1.431
 9911759,-0.6813106949\H,0,-7.418106174,-2.5804019841,-0.3283779165\N,0
 ,-4.111619547,-1.2914182139,-3.044260613\H,0,-4.315785292,-1.314599157
 ,-2.0422217046\C,0,-2.7054348494,-0.9801520275,-3.2863013319\H,0,-2.33
 17048986,-1.6379981155,-4.0749705776\C,0,-2.0292794032,-1.3139250225,-
 1.9405643429\C,0,-2.5311747381,0.4947040863,-3.7166548098\H,0,-2.94832
 56825,1.1323528335,-2.9295238377\H,0,-3.1473757272,0.6339613522,-4.613
 5111126\O,0,-2.7315299633,-1.390833883,-0.9202727121\C,0,-1.0938977978
 ,0.8690447689,-3.988065882\C,0,-0.460675404,1.8547465626,-3.2237080284
 \H,0,-1.0160059594,2.3567564938,-2.4344688384\C,0,-0.3702437137,0.2289
 723475,-5.0039573906\H,0,-0.8553909496,-0.5236335447,-5.6235904424\C,0
 ,0.8635696863,2.2090415655,-3.4789672084\H,0,1.3604434746,2.990337813,
 -2.9145921503\C,0,0.9633526252,0.5639714415,-5.2412699992\H,0,1.514126
 6587,0.0552067222,-6.0271706265\C,0,1.5815136342,1.5574988104,-4.48179
 82536\H,0,2.6117755363,1.8510032275,-4.6485120928\N,0,-0.7141881663,-1
 .5361632459,-1.9825925891\H,0,-0.1715790679,-1.3300515759,-2.821331004
 4\C,0,0.1017160149,-1.7982620109,-0.8008890308\H,0,-0.3930490402,-1.34
 75542189,0.0651110106\C,0,1.4524752382,-1.1302182992,-1.1043740714\C,0
 ,0.2994187596,-3.3197642187,-0.5541096921\H,0,0.8967358302,-3.69382653
 65,-1.3966285195\O,0,1.8763161321,-1.1269893233,-2.2624032591\C,0,1.07
 58412753,-3.5649750747,0.7467532229\H,0,0.520082049,-3.1744675442,1.60
 9457215\H,0,1.2184544626,-4.6393147331,0.9042794936\H,0,2.0607570798,-
 3.0908138257,0.7389912567\C,0,-1.0343572311,-4.0754628287,-0.531083494
 5\H,0,-1.691479949,-3.6924446436,0.2566905544\H,0,-1.5632776544,-3.985
 5865701,-1.4846762009\H,0,-0.8568696328,-5.1408299116,-0.3466178389\N,
 0,2.1110646723,-0.601266365,-0.0623161256\H,0,1.7744995522,-0.65291923
 14,0.8952406014\C,0,3.4242170687,0.0010397643,-0.2017119633\H,0,4.0490
 167593,-0.6621756402,-0.811040609\C,0,3.9960570245,0.1221978907,1.2224
 187321\C,0,3.3606431725,1.399175401,-0.8800234369\H,0,2.4065645523,1.4
 797816748,-1.4033526203\H,0,3.3798460184,2.1791384754,-0.1101824908\O,
 0,3.2918807224,-0.1371395754,2.2090393411\C,0,4.4922607794,1.642778037
 6,-1.8920441144\H,0,4.3205740544,1.0142399765,-2.7710291496\H,0,5.4676
 493859,1.3911874125,-1.4686569771\C,0,4.4928306847,3.1056157242,-2.328
 5246038\N,0,5.3560694204,3.8931723268,-1.6543109279\H,0,5.9372908057,3
 .5419915103,-0.8803773914\H,0,5.3422720405,4.8820445804,-1.8628409113\
 O,0,3.7234185005,3.5217561646,-3.2013077569\N,0,5.2582611382,0.5790232
 365,1.2787659659\H,0,5.6818999179,0.9523230096,0.419664829\C,0,5.76899
 12469,1.4086959245,2.3677107504\H,0,4.9214264668,1.8572349151,2.900184
 7795\C,0,6.6021958413,2.5792451057,1.7056085944\C,0,6.6371878346,0.655
 6398123,3.3689042481\H,0,7.1072520635,1.4168785058,4.0014146532\H,0,7.
 4401396524,0.1367146281,2.827323739\O,0,7.1207239611,3.372457429,2.497
 1057488\C,0,5.8529990425,-0.345210519,4.2181632205\H,0,5.0310826371,0.
 1727975719,4.7287753441\H,0,5.384367544,-1.1012697539,3.5781698036\C,0
 ,6.7632248582,-1.0166975599,5.2571060571\H,0,7.234464846,-0.2415582116
 ,5.8782390074\H,0,7.5700433076,-1.5592461567,4.7440812557\C,0,5.978570
 1618,-1.9705526319,6.1360569348\H,0,5.1866932864,-1.4688122107,6.69673
 56728\H,0,5.548971162,-2.8049614205,5.5771947259\N,0,6.9034282584,-2.5
 997210594,7.1897953466\H,0,6.4144460563,-3.2526951569,7.8132028066\H,0
 ,7.3314880549,-1.8671926536,7.7686527563\H,0,7.6704689675,-3.108112715
 8,6.7339936395\O,0,6.6369211442,2.5355657554,0.4340962432\\Version=ES6
 4L-G16RevC.01\HF=-2122.4926286\RMSD=6.458e-10\Dipole=-6.940518,-9.9453
 683,6.9330492\Quadrupole=65.9226968,-110.8620403,44.9393435,-47.715864
 8,207.4697006,-33.8701764\PG=C01 [X(C31H52N7O7)]\\@
 The archive entry for this job was punched.


 PATIENCE IS THE ABILITY TO IDLE YOUR MOTOR WHEN
 YOU FEEL LIKE STRIPPING YOUR GEARS.
 Job cpu time:       0 days  0 hours  6 minutes 44.3 seconds.
 Elapsed time:       0 days  0 hours  1 minutes 46.7 seconds.
 File lengths (MBytes):  RWF=    432 Int=      0 D2E=      0 Chk=     64 Scr=     16
 Normal termination of Gaussian 16 at Thu Jun 30 19:48:01 2022.
