 Entering Gaussian System, Link 0=/opt/software/Gaussian/g16-AVX2-C.01/g16/g16
 Input=charge-conf-121.com
 Output=charge-conf-121.log
 Initial command:
 /opt/software/Gaussian/g16-AVX2-C.01/g16/l1.exe "/mnt/gs18/scratch/users/kengmith/Gau-29948.inp" -scrdir="/mnt/gs18/scratch/users/kengmith/"
 Entering Link 1 = /opt/software/Gaussian/g16-AVX2-C.01/g16/l1.exe PID=     29960.
  
 Copyright (c) 1988-2019, Gaussian, Inc.  All Rights Reserved.
  
 This is part of the Gaussian(R) 16 program.  It is based on
 the Gaussian(R) 09 system (copyright 2009, Gaussian, Inc.),
 the Gaussian(R) 03 system (copyright 2003, Gaussian, Inc.),
 the Gaussian(R) 98 system (copyright 1998, Gaussian, Inc.),
 the Gaussian(R) 94 system (copyright 1995, Gaussian, Inc.),
 the Gaussian 92(TM) system (copyright 1992, Gaussian, Inc.),
 the Gaussian 90(TM) system (copyright 1990, Gaussian, Inc.),
 the Gaussian 88(TM) system (copyright 1988, Gaussian, Inc.),
 the Gaussian 86(TM) system (copyright 1986, Carnegie Mellon
 University), and the Gaussian 82(TM) system (copyright 1983,
 Carnegie Mellon University). Gaussian is a federally registered
 trademark of Gaussian, Inc.
  
 This software contains proprietary and confidential information,
 including trade secrets, belonging to Gaussian, Inc.
  
 This software is provided under written license and may be
 used, copied, transmitted, or stored only in accord with that
 written license.
  
 The following legend is applicable only to US Government
 contracts under FAR:
  
                    RESTRICTED RIGHTS LEGEND
  
 Use, reproduction and disclosure by the US Government is
 subject to restrictions as set forth in subparagraphs (a)
 and (c) of the Commercial Computer Software - Restricted
 Rights clause in FAR 52.227-19.
  
 Gaussian, Inc.
 340 Quinnipiac St., Bldg. 40, Wallingford CT 06492
  
  
 ---------------------------------------------------------------
 Warning -- This program may not be used in any manner that
 competes with the business of Gaussian, Inc. or will provide
 assistance to any competitor of Gaussian, Inc.  The licensee
 of this program is prohibited from giving any competitor of
 Gaussian, Inc. access to this program.  By using this program,
 the user acknowledges that Gaussian, Inc. is engaged in the
 business of creating and licensing software in the field of
 computational chemistry and represents and warrants to the
 licensee that it is not a competitor of Gaussian, Inc. and that
 it will not use this program in any manner prohibited above.
 ---------------------------------------------------------------
  

 Cite this work as:
 Gaussian 16, Revision C.01,
 M. J. Frisch, G. W. Trucks, H. B. Schlegel, G. E. Scuseria, 
 M. A. Robb, J. R. Cheeseman, G. Scalmani, V. Barone, 
 G. A. Petersson, H. Nakatsuji, X. Li, M. Caricato, A. V. Marenich, 
 J. Bloino, B. G. Janesko, R. Gomperts, B. Mennucci, H. P. Hratchian, 
 J. V. Ortiz, A. F. Izmaylov, J. L. Sonnenberg, D. Williams-Young, 
 F. Ding, F. Lipparini, F. Egidi, J. Goings, B. Peng, A. Petrone, 
 T. Henderson, D. Ranasinghe, V. G. Zakrzewski, J. Gao, N. Rega, 
 G. Zheng, W. Liang, M. Hada, M. Ehara, K. Toyota, R. Fukuda, 
 J. Hasegawa, M. Ishida, T. Nakajima, Y. Honda, O. Kitao, H. Nakai, 
 T. Vreven, K. Throssell, J. A. Montgomery, Jr., J. E. Peralta, 
 F. Ogliaro, M. J. Bearpark, J. J. Heyd, E. N. Brothers, K. N. Kudin, 
 V. N. Staroverov, T. A. Keith, R. Kobayashi, J. Normand, 
 K. Raghavachari, A. P. Rendell, J. C. Burant, S. S. Iyengar, 
 J. Tomasi, M. Cossi, J. M. Millam, M. Klene, C. Adamo, R. Cammi, 
 J. W. Ochterski, R. L. Martin, K. Morokuma, O. Farkas, 
 J. B. Foresman, and D. J. Fox, Gaussian, Inc., Wallingford CT, 2019.
 
 ******************************************
 Gaussian 16:  ES64L-G16RevC.01  3-Jul-2019
                30-Jun-2022 
 ******************************************
 %mem=8gb
 %nproc=4
 Will use up to    4 processors via shared memory.
 %chk=conf-121.chk
 ----------------------------------------------------------------------
 # B3LYP/6-31G* empiricaldispersion=gd3bj guess=read geom=check nosymm 
 integral(ultrafinegrid)
 ----------------------------------------------------------------------
 1/29=2,38=1,172=1/1;
 2/12=2,15=1,40=1/2;
 3/5=1,6=6,7=1,11=2,14=-4,25=1,30=1,74=-5,75=-5,116=-2,124=41/1,2,3;
 4/5=1/1;
 5/5=2,38=6/2;
 6/7=2,8=2,9=2,10=2,28=1/1;
 99/5=1,9=1/99;
 ------------------------------------------------------
 Candidate Structure: Conf:121 Charge calc in gas phase
 ------------------------------------------------------
 Structure from the checkpoint file:  "conf-121.chk"
 Charge =  1 Multiplicity = 1
 Redundant internal coordinates found in file.  (old form).
 N,0,-4.8394927296,-3.3778548783,-4.5239350206
 H,0,-4.7266775861,-3.7637291634,-5.4650380473
 H,0,-5.8233865961,-3.4448137155,-4.2509389947
 H,0,-4.2179239294,-3.9188287792,-3.8525635994
 C,0,-4.2853726055,-1.9735347309,-4.3841409404
 H,0,-4.2099913154,-1.536754922,-5.3809521536
 C,0,-2.9058186808,-2.2317034041,-3.745548814
 C,0,-5.2212125964,-1.1337580704,-3.4771647714
 H,0,-6.2035852805,-1.1598046713,-3.9760197862
 O,0,-2.7310300015,-3.3266104263,-3.1865243142
 C,0,-4.7867677644,0.3429391901,-3.4042414073
 H,0,-3.8449794856,0.4091280682,-2.8482843183
 H,0,-5.5321758752,0.850182081,-2.7816449323
 C,0,-5.3456997948,-1.726354766,-2.0644589833
 H,0,-4.4010034183,-1.6415144056,-1.5196461546
 H,0,-6.1075774581,-1.1719408745,-1.509430345
 H,0,-5.6522742455,-2.7801998003,-2.0573726825
 C,0,-4.7000673388,1.0628626834,-4.7537156565
 H,0,-4.5243833496,2.1322055594,-4.6029598687
 H,0,-3.8825611513,0.70087001,-5.3897000453
 H,0,-5.6329926958,0.9605524771,-5.3209058574
 N,0,-2.0178027111,-1.2470971867,-3.7907974716
 H,0,-2.2087211606,-0.4078596143,-4.3281535893
 C,0,-0.8190748327,-1.2471039383,-2.9548129411
 H,0,-0.15180211,-2.0446088331,-3.2973569956
 C,0,-1.2643406084,-1.4648777281,-1.4942114769
 C,0,-0.1057597685,0.1294919252,-3.0506650205
 H,0,0.9051760765,0.007251132,-2.6540865841
 H,0,-0.650055902,0.8272990468,-2.4056766344
 O,0,-2.2225908644,-0.8389632117,-1.0423955879
 C,0,-0.0450968273,0.665678017,-4.4595478395
 C,0,0.9688150271,0.2639048219,-5.3384986251
 H,0,1.7761188011,-0.3588983101,-4.9671680393
 C,0,-1.0419290855,1.5362981453,-4.9245291774
 H,0,-1.797285847,1.902483979,-4.2310385991
 C,0,0.9665845953,0.7064116001,-6.6606874182
 H,0,1.7628447429,0.3968710418,-7.3314602004
 C,0,-1.0464525047,1.9757898688,-6.2509674422
 H,0,-1.8189158395,2.6588936609,-6.5929415003
 C,0,-0.0443906579,1.5530566347,-7.123873226
 H,0,-0.0385575399,1.8961675554,-8.154203383
 N,0,-0.503658661,-2.3158470532,-0.7823924589
 H,0,0.2617414405,-2.8048065582,-1.2311662667
 C,0,-0.5704859382,-2.451915642,0.6778900669
 H,0,-1.2669738415,-1.6850029649,1.0270775789
 C,0,0.8783151971,-2.1442010549,1.0818149282
 C,0,-1.0473115384,-3.8414131722,1.1186456172
 H,0,-0.3214129565,-4.5657260284,0.727501427
 O,0,1.7704437994,-2.9467433431,0.815659025
 C,0,-1.0391407197,-3.9291563345,2.6491853871
 H,0,-1.719765554,-3.189124588,3.0890673944
 H,0,-1.3674686205,-4.9199054602,2.9790693242
 H,0,-0.0370332159,-3.7573937963,3.0554993242
 C,0,-2.4323279727,-4.1488082268,0.5395784556
 H,0,-3.1777183149,-3.4370586276,0.9161781567
 H,0,-2.4332028806,-4.0910184824,-0.5535032253
 H,0,-2.7521217391,-5.1550757462,0.8309457661
 N,0,1.1141586074,-0.8944879214,1.5511680358
 H,0,0.35253769,-0.2319388272,1.6612043409
 C,0,2.4021882766,-0.2602675235,1.300745357
 H,0,3.2032584834,-0.8857293199,1.7046156646
 C,0,2.352097566,1.1217779535,1.9557461006
 C,0,2.5607724746,-0.0703734478,-0.22768258
 H,0,2.2719660217,-1.0018921301,-0.7164708331
 H,0,1.8330046921,0.6944683983,-0.5249523768
 O,0,1.2794536771,1.7066337943,2.0834380644
 C,0,3.9566223054,0.3164608447,-0.7244712039
 H,0,4.608935681,-0.5647595487,-0.7227423901
 H,0,4.4115073179,1.086709022,-0.1020208932
 C,0,3.8316956087,0.8225261085,-2.1552580191
 N,0,4.3568492878,2.0546364463,-2.368378292
 H,0,4.6624006696,2.6327341912,-1.5928005303
 H,0,4.223425808,2.477544749,-3.2768845602
 O,0,3.2675384081,0.1647986352,-3.0309444299
 N,0,3.5507896981,1.661674123,2.3029938889
 H,0,4.3877251202,1.1533328658,2.0528836437
 C,0,3.6958131806,3.0793189836,2.5835281648
 H,0,2.6867709455,3.4630645992,2.751213338
 C,0,4.3166971333,3.8077753903,1.3963839581
 C,0,4.5469432498,3.3415140417,3.8495606557
 H,0,4.1568816794,2.6697141843,4.6211956323
 H,0,4.3469480771,4.3636694512,4.1847843346
 O,0,4.3845994293,5.1099787129,1.5909273088
 C,0,6.0762562613,3.1408148161,3.7235128121
 H,0,6.4353347519,2.8550332992,4.7174686316
 H,0,6.301315555,2.2779321553,3.0805096212
 C,0,6.9077306221,4.3727176816,3.2607225666
 H,0,7.7822434973,4.4493998991,3.914506441
 H,0,6.3223228155,5.2822448747,3.4375251456
 C,0,7.4113151594,4.3776123136,1.7945722428
 H,0,8.5084663513,4.376388743,1.7772016031
 H,0,7.0790401441,3.4813349954,1.2671878198
 N,0,6.8801574174,5.5351960381,1.0249998859
 H,0,7.1967151649,5.4830076522,0.0576367109
 H,0,7.2479120365,6.4069522355,1.4061820993
 H,0,5.2716923796,5.4381111954,1.1543331437
 O,0,4.8061634969,3.2242377256,0.4336594809
 Recover connectivity data from disk.
                           ----------------------------
                           !    Current Parameters    !
                           ! (Angstroms and Degrees)  !
 --------------------------                            --------------------------
 ! Name  Definition              Value                                          !
 --------------------------------------------------------------------------------
 ! R1    R(1,2)                  1.0234                                         !
 ! R2    R(1,3)                  1.0233                                         !
 ! R3    R(1,4)                  1.0629                                         !
 ! R4    R(1,5)                  1.5161                                         !
 ! R5    R(5,6)                  1.0909                                         !
 ! R6    R(5,7)                  1.542                                          !
 ! R7    R(5,8)                  1.5504                                         !
 ! R8    R(7,10)                 1.2417                                         !
 ! R9    R(7,22)                 1.3267                                         !
 ! R10   R(8,9)                  1.1021                                         !
 ! R11   R(8,11)                 1.541                                          !
 ! R12   R(8,14)                 1.537                                          !
 ! R13   R(11,12)                1.0956                                         !
 ! R14   R(11,13)                1.0957                                         !
 ! R15   R(11,18)                1.532                                          !
 ! R16   R(14,15)                1.0938                                         !
 ! R17   R(14,16)                1.0936                                         !
 ! R18   R(14,17)                1.0976                                         !
 ! R19   R(18,19)                1.0941                                         !
 ! R20   R(18,20)                1.0972                                         !
 ! R21   R(18,21)                1.0966                                         !
 ! R22   R(22,23)                1.0147                                         !
 ! R23   R(22,24)                1.4614                                         !
 ! R24   R(24,25)                1.0948                                         !
 ! R25   R(24,26)                1.5424                                         !
 ! R26   R(24,27)                1.5534                                         !
 ! R27   R(26,30)                1.2305                                         !
 ! R28   R(26,42)                1.3452                                         !
 ! R29   R(27,28)                1.0928                                         !
 ! R30   R(27,29)                1.0951                                         !
 ! R31   R(27,31)                1.5087                                         !
 ! R32   R(31,32)                1.4007                                         !
 ! R33   R(31,34)                1.4028                                         !
 ! R34   R(32,33)                1.0851                                         !
 ! R35   R(32,36)                1.3943                                         !
 ! R36   R(34,35)                1.0888                                         !
 ! R37   R(34,38)                1.3974                                         !
 ! R38   R(36,37)                1.0862                                         !
 ! R39   R(36,40)                1.3976                                         !
 ! R40   R(38,39)                1.0864                                         !
 ! R41   R(38,40)                1.3946                                         !
 ! R42   R(40,41)                1.086                                          !
 ! R43   R(42,43)                1.0131                                         !
 ! R44   R(42,44)                1.4681                                         !
 ! R45   R(44,45)                1.0932                                         !
 ! R46   R(44,46)                1.5352                                         !
 ! R47   R(44,47)                1.5337                                         !
 ! R48   R(46,49)                1.2291                                         !
 ! R49   R(46,58)                1.3556                                         !
 ! R50   R(47,48)                1.0975                                         !
 ! R51   R(47,50)                1.5331                                         !
 ! R52   R(47,54)                1.5323                                         !
 ! R53   R(50,51)                1.0974                                         !
 ! R54   R(50,52)                1.0946                                         !
 ! R55   R(50,53)                1.0949                                         !
 ! R56   R(54,55)                1.0973                                         !
 ! R57   R(54,56)                1.0946                                         !
 ! R58   R(54,57)                1.0953                                         !
 ! R59   R(58,59)                1.0155                                         !
 ! R60   R(58,60)                1.4574                                         !
 ! R61   R(60,61)                1.0936                                         !
 ! R62   R(60,62)                1.5302                                         !
 ! R63   R(60,63)                1.5483                                         !
 ! R64   R(62,66)                1.2284                                         !
 ! R65   R(62,75)                1.3598                                         !
 ! R66   R(63,64)                1.0909                                         !
 ! R67   R(63,65)                1.0968                                         !
 ! R68   R(63,67)                1.5313                                         !
 ! R69   R(67,68)                1.0964                                         !
 ! R70   R(67,69)                1.0898                                         !
 ! R71   R(67,70)                1.5228                                         !
 ! R72   R(70,71)                1.3562                                         !
 ! R73   R(70,74)                1.232                                          !
 ! R74   R(71,72)                1.0144                                         !
 ! R75   R(71,73)                1.011                                          !
 ! R76   R(75,76)                1.0107                                         !
 ! R77   R(75,77)                1.4524                                         !
 ! R78   R(77,78)                1.0925                                         !
 ! R79   R(77,79)                1.5249                                         !
 ! R80   R(77,80)                1.5479                                         !
 ! R81   R(79,83)                1.3184                                         !
 ! R82   R(79,97)                1.2276                                         !
 ! R83   R(80,81)                1.0949                                         !
 ! R84   R(80,82)                1.0942                                         !
 ! R85   R(80,84)                1.5476                                         !
 ! R86   R(84,85)                1.0948                                         !
 ! R87   R(84,86)                1.0994                                         !
 ! R88   R(84,87)                1.5566                                         !
 ! R89   R(87,88)                1.0946                                         !
 ! R90   R(87,89)                1.096                                          !
 ! R91   R(87,90)                1.5502                                         !
 ! R92   R(90,91)                1.0973                                         !
 ! R93   R(90,92)                1.0917                                         !
 ! R94   R(90,93)                1.4881                                         !
 ! R95   R(93,94)                1.0192                                         !
 ! R96   R(93,95)                1.0201                                         !
 ! R97   R(93,96)                1.6166                                         !
 ! A1    A(2,1,3)              109.0665                                         !
 ! A2    A(2,1,4)              108.9346                                         !
 ! A3    A(2,1,5)              113.188                                          !
 ! A4    A(3,1,4)              111.1291                                         !
 ! A5    A(3,1,5)              112.7947                                         !
 ! A6    A(4,1,5)              101.5051                                         !
 ! A7    A(1,5,6)              108.1709                                         !
 ! A8    A(1,5,7)              102.1277                                         !
 ! A9    A(1,5,8)              109.5749                                         !
 ! A10   A(6,5,7)              112.559                                          !
 ! A11   A(6,5,8)              111.0624                                         !
 ! A12   A(7,5,8)              112.859                                          !
 ! A13   A(5,7,10)             117.3883                                         !
 ! A14   A(5,7,22)             117.4176                                         !
 ! A15   A(10,7,22)            125.1377                                         !
 ! A16   A(5,8,9)              105.097                                          !
 ! A17   A(5,8,11)             112.1213                                         !
 ! A18   A(5,8,14)             112.1941                                         !
 ! A19   A(9,8,11)             107.1796                                         !
 ! A20   A(9,8,14)             109.5562                                         !
 ! A21   A(11,8,14)            110.414                                          !
 ! A22   A(8,11,12)            108.9193                                         !
 ! A23   A(8,11,13)            106.1837                                         !
 ! A24   A(8,11,18)            115.1252                                         !
 ! A25   A(12,11,13)           105.5737                                         !
 ! A26   A(12,11,18)           111.7123                                         !
 ! A27   A(13,11,18)           108.7526                                         !
 ! A28   A(8,14,15)            110.9738                                         !
 ! A29   A(8,14,16)            109.1143                                         !
 ! A30   A(8,14,17)            113.5003                                         !
 ! A31   A(15,14,16)           108.0342                                         !
 ! A32   A(15,14,17)           108.2099                                         !
 ! A33   A(16,14,17)           106.7925                                         !
 ! A34   A(11,18,19)           110.3046                                         !
 ! A35   A(11,18,20)           113.436                                          !
 ! A36   A(11,18,21)           111.323                                          !
 ! A37   A(19,18,20)           106.4205                                         !
 ! A38   A(19,18,21)           107.4011                                         !
 ! A39   A(20,18,21)           107.6554                                         !
 ! A40   A(7,22,23)            120.3958                                         !
 ! A41   A(7,22,24)            121.9726                                         !
 ! A42   A(23,22,24)           117.2119                                         !
 ! A43   A(22,24,25)           108.7205                                         !
 ! A44   A(22,24,26)           107.7521                                         !
 ! A45   A(22,24,27)           109.9591                                         !
 ! A46   A(25,24,26)           111.6776                                         !
 ! A47   A(25,24,27)           110.2645                                         !
 ! A48   A(26,24,27)           108.4281                                         !
 ! A49   A(24,26,30)           120.0458                                         !
 ! A50   A(24,26,42)           115.2882                                         !
 ! A51   A(30,26,42)           124.6013                                         !
 ! A52   A(24,27,28)           107.6546                                         !
 ! A53   A(24,27,29)           107.4644                                         !
 ! A54   A(24,27,31)           113.0191                                         !
 ! A55   A(28,27,29)           108.5021                                         !
 ! A56   A(28,27,31)           109.9655                                         !
 ! A57   A(29,27,31)           110.0928                                         !
 ! A58   A(27,31,32)           120.8744                                         !
 ! A59   A(27,31,34)           120.1018                                         !
 ! A60   A(32,31,34)           118.9727                                         !
 ! A61   A(31,32,33)           119.2369                                         !
 ! A62   A(31,32,36)           120.19                                           !
 ! A63   A(33,32,36)           120.5208                                         !
 ! A64   A(31,34,35)           119.3779                                         !
 ! A65   A(31,34,38)           120.8065                                         !
 ! A66   A(35,34,38)           119.7727                                         !
 ! A67   A(32,36,37)           119.6043                                         !
 ! A68   A(32,36,40)           120.5095                                         !
 ! A69   A(37,36,40)           119.8837                                         !
 ! A70   A(34,38,39)           119.9247                                         !
 ! A71   A(34,38,40)           119.7689                                         !
 ! A72   A(39,38,40)           120.2968                                         !
 ! A73   A(36,40,38)           119.7321                                         !
 ! A74   A(36,40,41)           120.1276                                         !
 ! A75   A(38,40,41)           120.1291                                         !
 ! A76   A(26,42,43)           119.8784                                         !
 ! A77   A(26,42,44)           124.0026                                         !
 ! A78   A(43,42,44)           115.4849                                         !
 ! A79   A(42,44,45)           106.3605                                         !
 ! A80   A(42,44,46)           101.5467                                         !
 ! A81   A(42,44,47)           112.5789                                         !
 ! A82   A(45,44,46)           112.122                                          !
 ! A83   A(45,44,47)           110.2232                                         !
 ! A84   A(46,44,47)           113.539                                          !
 ! A85   A(44,46,49)           119.8093                                         !
 ! A86   A(44,46,58)           116.1076                                         !
 ! A87   A(49,46,58)           123.4093                                         !
 ! A88   A(44,47,48)           106.849                                          !
 ! A89   A(44,47,50)           109.6999                                         !
 ! A90   A(44,47,54)           110.7409                                         !
 ! A91   A(48,47,50)           108.3308                                         !
 ! A92   A(48,47,54)           109.3137                                         !
 ! A93   A(50,47,54)           111.7531                                         !
 ! A94   A(47,50,51)           110.9934                                         !
 ! A95   A(47,50,52)           110.5529                                         !
 ! A96   A(47,50,53)           111.4926                                         !
 ! A97   A(51,50,52)           107.6687                                         !
 ! A98   A(51,50,53)           108.2461                                         !
 ! A99   A(52,50,53)           107.7387                                         !
 ! A100  A(47,54,55)           110.7429                                         !
 ! A101  A(47,54,56)           111.5615                                         !
 ! A102  A(47,54,57)           110.3443                                         !
 ! A103  A(55,54,56)           107.9354                                         !
 ! A104  A(55,54,57)           107.8352                                         !
 ! A105  A(56,54,57)           108.2949                                         !
 ! A106  A(46,58,59)           120.5657                                         !
 ! A107  A(46,58,60)           119.6992                                         !
 ! A108  A(59,58,60)           113.4254                                         !
 ! A109  A(58,60,61)           109.5743                                         !
 ! A110  A(58,60,62)           106.8913                                         !
 ! A111  A(58,60,63)           108.2713                                         !
 ! A112  A(61,60,62)           112.4847                                         !
 ! A113  A(61,60,63)           111.0797                                         !
 ! A114  A(62,60,63)           108.3685                                         !
 ! A115  A(60,62,66)           120.2049                                         !
 ! A116  A(60,62,75)           116.0439                                         !
 ! A117  A(66,62,75)           123.6551                                         !
 ! A118  A(60,63,64)           108.0871                                         !
 ! A119  A(60,63,65)           106.5655                                         !
 ! A120  A(60,63,67)           116.398                                          !
 ! A121  A(64,63,65)           107.3586                                         !
 ! A122  A(64,63,67)           108.1604                                         !
 ! A123  A(65,63,67)           109.9228                                         !
 ! A124  A(63,67,68)           109.8031                                         !
 ! A125  A(63,67,69)           111.9462                                         !
 ! A126  A(63,67,70)           108.3003                                         !
 ! A127  A(68,67,69)           108.5925                                         !
 ! A128  A(68,67,70)           108.5059                                         !
 ! A129  A(69,67,70)           109.6344                                         !
 ! A130  A(67,70,71)           114.696                                          !
 ! A131  A(67,70,74)           121.8712                                         !
 ! A132  A(71,70,74)           123.4124                                         !
 ! A133  A(70,71,72)           120.945                                          !
 ! A134  A(70,71,73)           118.0447                                         !
 ! A135  A(72,71,73)           119.2369                                         !
 ! A136  A(62,75,76)           117.847                                          !
 ! A137  A(62,75,77)           121.6619                                         !
 ! A138  A(76,75,77)           117.1331                                         !
 ! A139  A(75,77,78)           106.2766                                         !
 ! A140  A(75,77,79)           110.8886                                         !
 ! A141  A(75,77,80)           112.2234                                         !
 ! A142  A(78,77,79)           109.132                                          !
 ! A143  A(78,77,80)           108.8336                                         !
 ! A144  A(79,77,80)           109.386                                          !
 ! A145  A(77,79,83)           112.2049                                         !
 ! A146  A(77,79,97)           123.0789                                         !
 ! A147  A(83,79,97)           124.3819                                         !
 ! A148  A(77,80,81)           106.0568                                         !
 ! A149  A(77,80,82)           107.9581                                         !
 ! A150  A(77,80,84)           117.0514                                         !
 ! A151  A(81,80,82)           106.9867                                         !
 ! A152  A(81,80,84)           109.2609                                         !
 ! A153  A(82,80,84)           109.0708                                         !
 ! A154  A(80,84,85)           106.5007                                         !
 ! A155  A(80,84,86)           110.5926                                         !
 ! A156  A(80,84,87)           116.7071                                         !
 ! A157  A(85,84,86)           105.0094                                         !
 ! A158  A(85,84,87)           107.5362                                         !
 ! A159  A(86,84,87)           109.7495                                         !
 ! A160  A(84,87,88)           107.7356                                         !
 ! A161  A(84,87,89)           108.8735                                         !
 ! A162  A(84,87,90)           117.206                                          !
 ! A163  A(88,87,89)           105.7986                                         !
 ! A164  A(88,87,90)           107.7668                                         !
 ! A165  A(89,87,90)           108.8722                                         !
 ! A166  A(87,90,91)           109.863                                          !
 ! A167  A(87,90,92)           110.8188                                         !
 ! A168  A(87,90,93)           112.0623                                         !
 ! A169  A(91,90,92)           107.203                                          !
 ! A170  A(91,90,93)           110.4615                                         !
 ! A171  A(92,90,93)           106.2708                                         !
 ! A172  A(90,93,94)           109.887                                          !
 ! A173  A(90,93,95)           110.0519                                         !
 ! A174  A(90,93,96)           105.4893                                         !
 ! A175  A(94,93,95)           106.647                                          !
 ! A176  A(94,93,96)           112.4517                                         !
 ! A177  A(95,93,96)           112.3427                                         !
 ! D1    D(2,1,5,6)             20.1878                                         !
 ! D2    D(2,1,5,7)            -98.7277                                         !
 ! D3    D(2,1,5,8)            141.3968                                         !
 ! D4    D(3,1,5,6)           -104.249                                          !
 ! D5    D(3,1,5,7)            136.8355                                         !
 ! D6    D(3,1,5,8)             16.9601                                         !
 ! D7    D(4,1,5,6)            136.7669                                         !
 ! D8    D(4,1,5,7)             17.8514                                         !
 ! D9    D(4,1,5,8)           -102.0241                                         !
 ! D10   D(1,5,7,10)           -19.0772                                         !
 ! D11   D(1,5,7,22)           163.5104                                         !
 ! D12   D(6,5,7,10)          -134.8415                                         !
 ! D13   D(6,5,7,22)            47.7461                                         !
 ! D14   D(8,5,7,10)            98.4704                                         !
 ! D15   D(8,5,7,22)           -78.942                                          !
 ! D16   D(1,5,8,9)            -58.3996                                         !
 ! D17   D(1,5,8,11)          -174.4965                                         !
 ! D18   D(1,5,8,14)            60.5799                                         !
 ! D19   D(6,5,8,9)             61.0477                                         !
 ! D20   D(6,5,8,11)           -55.0493                                         !
 ! D21   D(6,5,8,14)          -179.9728                                         !
 ! D22   D(7,5,8,9)           -171.4718                                         !
 ! D23   D(7,5,8,11)            72.4312                                         !
 ! D24   D(7,5,8,14)           -52.4923                                         !
 ! D25   D(5,7,22,23)           -7.4833                                         !
 ! D26   D(5,7,22,24)          164.8732                                         !
 ! D27   D(10,7,22,23)         175.3264                                         !
 ! D28   D(10,7,22,24)         -12.3171                                         !
 ! D29   D(5,8,11,12)          -69.1865                                         !
 ! D30   D(5,8,11,13)          177.548                                          !
 ! D31   D(5,8,11,18)           57.1612                                         !
 ! D32   D(9,8,11,12)          175.9821                                         !
 ! D33   D(9,8,11,13)           62.7165                                         !
 ! D34   D(9,8,11,18)          -57.6703                                         !
 ! D35   D(14,8,11,12)          56.7135                                         !
 ! D36   D(14,8,11,13)         -56.5521                                         !
 ! D37   D(14,8,11,18)        -176.9388                                         !
 ! D38   D(5,8,14,15)           68.0519                                         !
 ! D39   D(5,8,14,16)         -173.0176                                         !
 ! D40   D(5,8,14,17)          -54.0634                                         !
 ! D41   D(9,8,14,15)         -175.6247                                         !
 ! D42   D(9,8,14,16)          -56.6942                                         !
 ! D43   D(9,8,14,17)           62.2601                                         !
 ! D44   D(11,8,14,15)         -57.807                                          !
 ! D45   D(11,8,14,16)          61.1235                                         !
 ! D46   D(11,8,14,17)        -179.9223                                         !
 ! D47   D(8,11,18,19)         172.0797                                         !
 ! D48   D(8,11,18,20)         -68.6517                                         !
 ! D49   D(8,11,18,21)          52.9535                                         !
 ! D50   D(12,11,18,19)        -63.0158                                         !
 ! D51   D(12,11,18,20)         56.2529                                         !
 ! D52   D(12,11,18,21)        177.858                                          !
 ! D53   D(13,11,18,19)         53.1117                                         !
 ! D54   D(13,11,18,20)        172.3804                                         !
 ! D55   D(13,11,18,21)        -66.0145                                         !
 ! D56   D(7,22,24,25)          68.6931                                         !
 ! D57   D(7,22,24,26)         -52.5056                                         !
 ! D58   D(7,22,24,27)        -170.5005                                         !
 ! D59   D(23,22,24,25)       -118.719                                          !
 ! D60   D(23,22,24,26)        120.0824                                         !
 ! D61   D(23,22,24,27)          2.0874                                         !
 ! D62   D(22,24,26,30)        -45.1536                                         !
 ! D63   D(22,24,26,42)        137.6392                                         !
 ! D64   D(25,24,26,30)       -164.4876                                         !
 ! D65   D(25,24,26,42)         18.3051                                         !
 ! D66   D(27,24,26,30)         73.8236                                         !
 ! D67   D(27,24,26,42)       -103.3837                                         !
 ! D68   D(22,24,27,28)       -164.4437                                         !
 ! D69   D(22,24,27,29)         78.8608                                         !
 ! D70   D(22,24,27,31)        -42.8055                                         !
 ! D71   D(25,24,27,28)        -44.5711                                         !
 ! D72   D(25,24,27,29)       -161.2666                                         !
 ! D73   D(25,24,27,31)         77.067                                          !
 ! D74   D(26,24,27,28)         77.9805                                         !
 ! D75   D(26,24,27,29)        -38.715                                          !
 ! D76   D(26,24,27,31)       -160.3814                                         !
 ! D77   D(24,26,42,43)         -3.8251                                         !
 ! D78   D(24,26,42,44)        166.624                                          !
 ! D79   D(30,26,42,43)        179.1119                                         !
 ! D80   D(30,26,42,44)        -10.439                                          !
 ! D81   D(24,27,31,32)        -83.9148                                         !
 ! D82   D(24,27,31,34)         93.4574                                         !
 ! D83   D(28,27,31,32)         36.4123                                         !
 ! D84   D(28,27,31,34)       -146.2155                                         !
 ! D85   D(29,27,31,32)        155.9111                                         !
 ! D86   D(29,27,31,34)        -26.7167                                         !
 ! D87   D(27,31,32,33)         -6.4157                                         !
 ! D88   D(27,31,32,36)        176.2012                                         !
 ! D89   D(34,31,32,33)        176.1829                                         !
 ! D90   D(34,31,32,36)         -1.2003                                         !
 ! D91   D(27,31,34,35)          6.4015                                         !
 ! D92   D(27,31,34,38)       -175.9864                                         !
 ! D93   D(32,31,34,35)       -176.1765                                         !
 ! D94   D(32,31,34,38)          1.4356                                         !
 ! D95   D(31,32,36,37)        179.3974                                         !
 ! D96   D(31,32,36,40)         -0.0283                                         !
 ! D97   D(33,32,36,37)          2.0482                                         !
 ! D98   D(33,32,36,40)       -177.3775                                         !
 ! D99   D(31,34,38,39)       -179.3091                                         !
 ! D100  D(31,34,38,40)         -0.4324                                         !
 ! D101  D(35,34,38,39)         -1.7064                                         !
 ! D102  D(35,34,38,40)        177.1703                                         !
 ! D103  D(32,36,40,38)          1.0468                                         !
 ! D104  D(32,36,40,41)        179.8318                                         !
 ! D105  D(37,36,40,38)       -178.3773                                         !
 ! D106  D(37,36,40,41)          0.4077                                         !
 ! D107  D(34,38,40,36)         -0.8135                                         !
 ! D108  D(34,38,40,41)       -179.5985                                         !
 ! D109  D(39,38,40,36)        178.0589                                         !
 ! D110  D(39,38,40,41)         -0.7261                                         !
 ! D111  D(26,42,44,45)         -4.8882                                         !
 ! D112  D(26,42,44,46)       -122.3112                                         !
 ! D113  D(26,42,44,47)        115.9254                                         !
 ! D114  D(43,42,44,45)        165.941                                          !
 ! D115  D(43,42,44,46)         48.5181                                         !
 ! D116  D(43,42,44,47)        -73.2454                                         !
 ! D117  D(42,44,46,49)        -70.2401                                         !
 ! D118  D(42,44,46,58)        100.6724                                         !
 ! D119  D(45,44,46,49)        176.594                                          !
 ! D120  D(45,44,46,58)        -12.4935                                         !
 ! D121  D(47,44,46,49)         50.8546                                         !
 ! D122  D(47,44,46,58)       -138.2329                                         !
 ! D123  D(42,44,47,48)         60.5333                                         !
 ! D124  D(42,44,47,50)        177.7576                                         !
 ! D125  D(42,44,47,54)        -58.4273                                         !
 ! D126  D(45,44,47,48)        179.1072                                         !
 ! D127  D(45,44,47,50)        -63.6686                                         !
 ! D128  D(45,44,47,54)         60.1466                                         !
 ! D129  D(46,44,47,48)        -54.15                                           !
 ! D130  D(46,44,47,50)         63.0742                                         !
 ! D131  D(46,44,47,54)       -173.1106                                         !
 ! D132  D(44,46,58,59)          2.7462                                         !
 ! D133  D(44,46,58,60)       -147.5258                                         !
 ! D134  D(49,46,58,59)        173.2971                                         !
 ! D135  D(49,46,58,60)         23.025                                          !
 ! D136  D(44,47,50,51)         61.1833                                         !
 ! D137  D(44,47,50,52)       -179.4061                                         !
 ! D138  D(44,47,50,53)        -59.5819                                         !
 ! D139  D(48,47,50,51)        177.4758                                         !
 ! D140  D(48,47,50,52)        -63.1136                                         !
 ! D141  D(48,47,50,53)         56.7106                                         !
 ! D142  D(54,47,50,51)        -62.0377                                         !
 ! D143  D(54,47,50,52)         57.373                                          !
 ! D144  D(54,47,50,53)        177.1972                                         !
 ! D145  D(44,47,54,55)        -62.5425                                         !
 ! D146  D(44,47,54,56)         57.7039                                         !
 ! D147  D(44,47,54,57)        178.1349                                         !
 ! D148  D(48,47,54,55)        179.9971                                         !
 ! D149  D(48,47,54,56)        -59.7565                                         !
 ! D150  D(48,47,54,57)         60.6746                                         !
 ! D151  D(50,47,54,55)         60.0862                                         !
 ! D152  D(50,47,54,56)       -179.6673                                         !
 ! D153  D(50,47,54,57)        -59.2363                                         !
 ! D154  D(46,58,60,61)        -57.6507                                         !
 ! D155  D(46,58,60,62)       -179.8028                                         !
 ! D156  D(46,58,60,63)         63.6409                                         !
 ! D157  D(59,58,60,61)        150.081                                          !
 ! D158  D(59,58,60,62)         27.9289                                         !
 ! D159  D(59,58,60,63)        -88.6274                                         !
 ! D160  D(58,60,62,66)        -28.2299                                         !
 ! D161  D(58,60,62,75)        155.2054                                         !
 ! D162  D(61,60,62,66)       -148.5364                                         !
 ! D163  D(61,60,62,75)         34.8989                                         !
 ! D164  D(63,60,62,66)         88.2618                                         !
 ! D165  D(63,60,62,75)        -88.3028                                         !
 ! D166  D(58,60,63,64)        -46.0986                                         !
 ! D167  D(58,60,63,65)         69.0268                                         !
 ! D168  D(58,60,63,67)       -167.9799                                         !
 ! D169  D(61,60,63,64)         74.2584                                         !
 ! D170  D(61,60,63,65)       -170.6162                                         !
 ! D171  D(61,60,63,67)        -47.6229                                         !
 ! D172  D(62,60,63,64)       -161.6955                                         !
 ! D173  D(62,60,63,65)        -46.5702                                         !
 ! D174  D(62,60,63,67)         76.4232                                         !
 ! D175  D(60,62,75,76)          4.0791                                         !
 ! D176  D(60,62,75,77)        162.7922                                         !
 ! D177  D(66,62,75,76)       -172.354                                          !
 ! D178  D(66,62,75,77)        -13.6408                                         !
 ! D179  D(60,63,67,68)         76.9831                                         !
 ! D180  D(60,63,67,69)        -43.71                                           !
 ! D181  D(60,63,67,70)       -164.6959                                         !
 ! D182  D(64,63,67,68)        -44.8596                                         !
 ! D183  D(64,63,67,69)       -165.5527                                         !
 ! D184  D(64,63,67,70)         73.4614                                         !
 ! D185  D(65,63,67,68)       -161.7874                                         !
 ! D186  D(65,63,67,69)         77.5195                                         !
 ! D187  D(65,63,67,70)        -43.4664                                         !
 ! D188  D(63,67,70,71)        125.6114                                         !
 ! D189  D(63,67,70,74)        -52.7986                                         !
 ! D190  D(68,67,70,71)       -115.2457                                         !
 ! D191  D(68,67,70,74)         66.3443                                         !
 ! D192  D(69,67,70,71)          3.204                                          !
 ! D193  D(69,67,70,74)       -175.2059                                         !
 ! D194  D(67,70,71,72)         -9.5046                                         !
 ! D195  D(67,70,71,73)       -174.2215                                         !
 ! D196  D(74,70,71,72)        168.8777                                         !
 ! D197  D(74,70,71,73)          4.1609                                         !
 ! D198  D(62,75,77,78)         16.6807                                         !
 ! D199  D(62,75,77,79)       -101.801                                          !
 ! D200  D(62,75,77,80)        135.5347                                         !
 ! D201  D(76,75,77,78)        175.5381                                         !
 ! D202  D(76,75,77,79)         57.0563                                         !
 ! D203  D(76,75,77,80)        -65.608                                          !
 ! D204  D(75,77,79,83)        176.0913                                         !
 ! D205  D(75,77,79,97)        -10.2898                                         !
 ! D206  D(78,77,79,83)         59.3526                                         !
 ! D207  D(78,77,79,97)       -127.0285                                         !
 ! D208  D(80,77,79,83)        -59.6141                                         !
 ! D209  D(80,77,79,97)        114.0048                                         !
 ! D210  D(75,77,80,81)        -47.3314                                         !
 ! D211  D(75,77,80,82)       -161.7162                                         !
 ! D212  D(75,77,80,84)         74.8365                                         !
 ! D213  D(78,77,80,81)         70.0072                                         !
 ! D214  D(78,77,80,82)        -44.3776                                         !
 ! D215  D(78,77,80,84)       -167.8249                                         !
 ! D216  D(79,77,80,81)       -170.8413                                         !
 ! D217  D(79,77,80,82)         74.7738                                         !
 ! D218  D(79,77,80,84)        -48.6734                                         !
 ! D219  D(77,80,84,85)       -151.3725                                         !
 ! D220  D(77,80,84,86)        -37.8044                                         !
 ! D221  D(77,80,84,87)         88.5738                                         !
 ! D222  D(81,80,84,85)        -30.8805                                         !
 ! D223  D(81,80,84,86)         82.6876                                         !
 ! D224  D(81,80,84,87)       -150.9343                                         !
 ! D225  D(82,80,84,85)         85.7505                                         !
 ! D226  D(82,80,84,86)       -160.6814                                         !
 ! D227  D(82,80,84,87)        -34.3032                                         !
 ! D228  D(80,84,87,88)        134.3598                                         !
 ! D229  D(80,84,87,89)         20.0658                                         !
 ! D230  D(80,84,87,90)       -103.9967                                         !
 ! D231  D(85,84,87,88)         14.86                                           !
 ! D232  D(85,84,87,89)        -99.434                                          !
 ! D233  D(85,84,87,90)        136.5035                                         !
 ! D234  D(86,84,87,88)        -98.8447                                         !
 ! D235  D(86,84,87,89)        146.8612                                         !
 ! D236  D(86,84,87,90)         22.7987                                         !
 ! D237  D(84,87,90,91)       -117.2171                                         !
 ! D238  D(84,87,90,92)          1.0641                                         !
 ! D239  D(84,87,90,93)        119.5889                                         !
 ! D240  D(88,87,90,91)          4.4102                                         !
 ! D241  D(88,87,90,92)        122.6914                                         !
 ! D242  D(88,87,90,93)       -118.7838                                         !
 ! D243  D(89,87,90,91)        118.7198                                         !
 ! D244  D(89,87,90,92)       -122.999                                          !
 ! D245  D(89,87,90,93)         -4.4742                                         !
 ! D246  D(87,90,93,94)       -177.4481                                         !
 ! D247  D(87,90,93,95)         65.4012                                         !
 ! D248  D(87,90,93,96)        -56.0033                                         !
 ! D249  D(91,90,93,94)         59.696                                          !
 ! D250  D(91,90,93,95)        -57.4547                                         !
 ! D251  D(91,90,93,96)       -178.8592                                         !
 ! D252  D(92,90,93,94)        -56.2642                                         !
 ! D253  D(92,90,93,95)       -173.4149                                         !
 ! D254  D(92,90,93,96)         65.1806                                         !
 --------------------------------------------------------------------------------
 Symmetry turned off by external request.
 Stoichiometry    C31H52N7O7(1+)
 Framework group  C1[X(C31H52N7O7)]
 Deg. of freedom   285
 Full point group                 C1      NOp   1
                          Input orientation:                          
 ---------------------------------------------------------------------
 Center     Atomic      Atomic             Coordinates (Angstroms)
 Number     Number       Type             X           Y           Z
 ---------------------------------------------------------------------
      1          7           0       -4.839493   -3.377855   -4.523935
      2          1           0       -4.726678   -3.763729   -5.465038
      3          1           0       -5.823387   -3.444814   -4.250939
      4          1           0       -4.217924   -3.918829   -3.852564
      5          6           0       -4.285373   -1.973535   -4.384141
      6          1           0       -4.209991   -1.536755   -5.380952
      7          6           0       -2.905819   -2.231703   -3.745549
      8          6           0       -5.221213   -1.133758   -3.477165
      9          1           0       -6.203585   -1.159805   -3.976020
     10          8           0       -2.731030   -3.326610   -3.186524
     11          6           0       -4.786768    0.342939   -3.404241
     12          1           0       -3.844979    0.409128   -2.848284
     13          1           0       -5.532176    0.850182   -2.781645
     14          6           0       -5.345700   -1.726355   -2.064459
     15          1           0       -4.401003   -1.641514   -1.519646
     16          1           0       -6.107577   -1.171941   -1.509430
     17          1           0       -5.652274   -2.780200   -2.057373
     18          6           0       -4.700067    1.062863   -4.753716
     19          1           0       -4.524383    2.132206   -4.602960
     20          1           0       -3.882561    0.700870   -5.389700
     21          1           0       -5.632993    0.960552   -5.320906
     22          7           0       -2.017803   -1.247097   -3.790797
     23          1           0       -2.208721   -0.407860   -4.328154
     24          6           0       -0.819075   -1.247104   -2.954813
     25          1           0       -0.151802   -2.044609   -3.297357
     26          6           0       -1.264341   -1.464878   -1.494211
     27          6           0       -0.105760    0.129492   -3.050665
     28          1           0        0.905176    0.007251   -2.654087
     29          1           0       -0.650056    0.827299   -2.405677
     30          8           0       -2.222591   -0.838963   -1.042396
     31          6           0       -0.045097    0.665678   -4.459548
     32          6           0        0.968815    0.263905   -5.338499
     33          1           0        1.776119   -0.358898   -4.967168
     34          6           0       -1.041929    1.536298   -4.924529
     35          1           0       -1.797286    1.902484   -4.231039
     36          6           0        0.966585    0.706412   -6.660687
     37          1           0        1.762845    0.396871   -7.331460
     38          6           0       -1.046453    1.975790   -6.250967
     39          1           0       -1.818916    2.658894   -6.592942
     40          6           0       -0.044391    1.553057   -7.123873
     41          1           0       -0.038558    1.896168   -8.154203
     42          7           0       -0.503659   -2.315847   -0.782392
     43          1           0        0.261741   -2.804807   -1.231166
     44          6           0       -0.570486   -2.451916    0.677890
     45          1           0       -1.266974   -1.685003    1.027078
     46          6           0        0.878315   -2.144201    1.081815
     47          6           0       -1.047312   -3.841413    1.118646
     48          1           0       -0.321413   -4.565726    0.727501
     49          8           0        1.770444   -2.946743    0.815659
     50          6           0       -1.039141   -3.929156    2.649185
     51          1           0       -1.719766   -3.189125    3.089067
     52          1           0       -1.367469   -4.919905    2.979069
     53          1           0       -0.037033   -3.757394    3.055499
     54          6           0       -2.432328   -4.148808    0.539578
     55          1           0       -3.177718   -3.437059    0.916178
     56          1           0       -2.433203   -4.091018   -0.553503
     57          1           0       -2.752122   -5.155076    0.830946
     58          7           0        1.114159   -0.894488    1.551168
     59          1           0        0.352538   -0.231939    1.661204
     60          6           0        2.402188   -0.260268    1.300745
     61          1           0        3.203258   -0.885729    1.704616
     62          6           0        2.352098    1.121778    1.955746
     63          6           0        2.560772   -0.070373   -0.227683
     64          1           0        2.271966   -1.001892   -0.716471
     65          1           0        1.833005    0.694468   -0.524952
     66          8           0        1.279454    1.706634    2.083438
     67          6           0        3.956622    0.316461   -0.724471
     68          1           0        4.608936   -0.564760   -0.722742
     69          1           0        4.411507    1.086709   -0.102021
     70          6           0        3.831696    0.822526   -2.155258
     71          7           0        4.356849    2.054636   -2.368378
     72          1           0        4.662401    2.632734   -1.592801
     73          1           0        4.223426    2.477545   -3.276885
     74          8           0        3.267538    0.164799   -3.030944
     75          7           0        3.550790    1.661674    2.302994
     76          1           0        4.387725    1.153333    2.052884
     77          6           0        3.695813    3.079319    2.583528
     78          1           0        2.686771    3.463065    2.751213
     79          6           0        4.316697    3.807775    1.396384
     80          6           0        4.546943    3.341514    3.849561
     81          1           0        4.156882    2.669714    4.621196
     82          1           0        4.346948    4.363669    4.184784
     83          8           0        4.384599    5.109979    1.590927
     84          6           0        6.076256    3.140815    3.723513
     85          1           0        6.435335    2.855033    4.717469
     86          1           0        6.301316    2.277932    3.080510
     87          6           0        6.907731    4.372718    3.260723
     88          1           0        7.782243    4.449400    3.914506
     89          1           0        6.322323    5.282245    3.437525
     90          6           0        7.411315    4.377612    1.794572
     91          1           0        8.508466    4.376389    1.777202
     92          1           0        7.079040    3.481335    1.267188
     93          7           0        6.880157    5.535196    1.025000
     94          1           0        7.196715    5.483008    0.057637
     95          1           0        7.247912    6.406952    1.406182
     96          1           0        5.271692    5.438111    1.154333
     97          8           0        4.806163    3.224238    0.433659
 ---------------------------------------------------------------------
 Rotational constants (GHZ):           0.1015465           0.0364260           0.0303208
 Standard basis: 6-31G(d) (6D, 7F)
   779 basis functions,  1468 primitive gaussians,   779 cartesian basis functions
   171 alpha electrons      171 beta electrons
       nuclear repulsion energy      6023.8661150079 Hartrees.
 NAtoms=   97 NActive=   97 NUniq=   97 SFac= 1.00D+00 NAtFMM=   60 NAOKFM=T Big=T
 Integral buffers will be    131072 words long.
 Raffenetti 2 integral format.
 Two-electron integral symmetry is turned off.
 Nuclear repulsion after empirical dispersion term =     6023.6508084499 Hartrees.
 One-electron integrals computed using PRISM.
 NBasis=   779 RedAO= T EigKep=  4.65D-04  NBF=   779
 NBsUse=   779 1.00D-06 EigRej= -1.00D+00 NBFU=   779
 Initial guess from the checkpoint file:  "conf-121.chk"
 B after Tr=     0.000000    0.000000    0.000000
         Rot=    1.000000    0.000000    0.000000    0.000000 Ang=   0.00 deg.
 Requested convergence on RMS density matrix=1.00D-08 within 128 cycles.
 Requested convergence on MAX density matrix=1.00D-06.
 Requested convergence on             energy=1.00D-06.
 No special actions if energy rises.
 SCF Done:  E(RB3LYP) =  -2122.56266584     A.U. after    2 cycles
            NFock=  2  Conv=0.65D-08     -V/T= 2.0094

 **********************************************************************

            Population analysis using the SCF Density.

 **********************************************************************

 Alpha  occ. eigenvalues --  -19.26105 -19.23101 -19.20761 -19.20293 -19.18947
 Alpha  occ. eigenvalues --  -19.18330 -19.17014 -14.59349 -14.48765 -14.44973
 Alpha  occ. eigenvalues --  -14.43427 -14.42506 -14.42398 -14.41105 -10.42569
 Alpha  occ. eigenvalues --  -10.39566 -10.38317 -10.37643 -10.36077 -10.35382
 Alpha  occ. eigenvalues --  -10.34706 -10.33707 -10.33060 -10.30396 -10.30205
 Alpha  occ. eigenvalues --  -10.30114 -10.29120 -10.28843 -10.28359 -10.28159
 Alpha  occ. eigenvalues --  -10.27718 -10.27685 -10.27051 -10.26943 -10.26545
 Alpha  occ. eigenvalues --  -10.26450 -10.26034 -10.25814 -10.25794 -10.25774
 Alpha  occ. eigenvalues --  -10.25647 -10.25605 -10.24970 -10.23607 -10.23405
 Alpha  occ. eigenvalues --   -1.18655  -1.15815  -1.13354  -1.12257  -1.11202
 Alpha  occ. eigenvalues --   -1.10216  -1.08583  -1.07063  -1.05620  -1.01212
 Alpha  occ. eigenvalues --   -1.00040  -0.99289  -0.97707  -0.95934  -0.94546
 Alpha  occ. eigenvalues --   -0.93446  -0.89025  -0.87590  -0.87052  -0.85859
 Alpha  occ. eigenvalues --   -0.85801  -0.83637  -0.82410  -0.82201  -0.81975
 Alpha  occ. eigenvalues --   -0.79871  -0.77417  -0.76131  -0.75471  -0.74594
 Alpha  occ. eigenvalues --   -0.74085  -0.73415  -0.73058  -0.72014  -0.70578
 Alpha  occ. eigenvalues --   -0.69877  -0.68350  -0.67899  -0.67452  -0.67216
 Alpha  occ. eigenvalues --   -0.66573  -0.66522  -0.64827  -0.64751  -0.64419
 Alpha  occ. eigenvalues --   -0.63792  -0.63516  -0.61830  -0.61536  -0.60484
 Alpha  occ. eigenvalues --   -0.59761  -0.59500  -0.58423  -0.58264  -0.57870
 Alpha  occ. eigenvalues --   -0.57174  -0.56104  -0.55709  -0.55038  -0.54757
 Alpha  occ. eigenvalues --   -0.54364  -0.54146  -0.54066  -0.53802  -0.53554
 Alpha  occ. eigenvalues --   -0.53032  -0.52917  -0.52613  -0.52367  -0.51625
 Alpha  occ. eigenvalues --   -0.51402  -0.51167  -0.50910  -0.50363  -0.50049
 Alpha  occ. eigenvalues --   -0.49682  -0.49596  -0.49366  -0.48948  -0.48752
 Alpha  occ. eigenvalues --   -0.48317  -0.48170  -0.47942  -0.47187  -0.46996
 Alpha  occ. eigenvalues --   -0.46526  -0.46225  -0.46117  -0.45736  -0.45430
 Alpha  occ. eigenvalues --   -0.45304  -0.44973  -0.44932  -0.44625  -0.44516
 Alpha  occ. eigenvalues --   -0.44281  -0.44091  -0.43986  -0.43331  -0.43119
 Alpha  occ. eigenvalues --   -0.42199  -0.41915  -0.41564  -0.41369  -0.41113
 Alpha  occ. eigenvalues --   -0.40599  -0.40450  -0.40245  -0.40007  -0.39931
 Alpha  occ. eigenvalues --   -0.39466  -0.39441  -0.38628  -0.37405  -0.34758
 Alpha  occ. eigenvalues --   -0.34623  -0.34341  -0.34276  -0.33655  -0.32915
 Alpha  occ. eigenvalues --   -0.32542  -0.32355  -0.32232  -0.32084  -0.31236
 Alpha  occ. eigenvalues --   -0.30638
 Alpha virt. eigenvalues --   -0.11746  -0.10434  -0.08818  -0.08490  -0.07047
 Alpha virt. eigenvalues --   -0.06371  -0.05982  -0.04985  -0.04496  -0.03488
 Alpha virt. eigenvalues --   -0.02785  -0.00891  -0.00362  -0.00326   0.00194
 Alpha virt. eigenvalues --    0.00342   0.01090   0.01212   0.02161   0.02874
 Alpha virt. eigenvalues --    0.02945   0.03638   0.03951   0.04240   0.04344
 Alpha virt. eigenvalues --    0.04620   0.04726   0.05330   0.05677   0.05920
 Alpha virt. eigenvalues --    0.06435   0.06719   0.06793   0.07147   0.07269
 Alpha virt. eigenvalues --    0.07648   0.07749   0.07959   0.08045   0.08145
 Alpha virt. eigenvalues --    0.08852   0.08901   0.09125   0.09405   0.09421
 Alpha virt. eigenvalues --    0.09874   0.10039   0.10213   0.10628   0.10869
 Alpha virt. eigenvalues --    0.11085   0.11379   0.11657   0.11812   0.11966
 Alpha virt. eigenvalues --    0.12374   0.12473   0.12745   0.12978   0.13228
 Alpha virt. eigenvalues --    0.13342   0.13786   0.13843   0.14524   0.14818
 Alpha virt. eigenvalues --    0.15044   0.15649   0.15702   0.15892   0.16065
 Alpha virt. eigenvalues --    0.16359   0.16704   0.17157   0.17429   0.17504
 Alpha virt. eigenvalues --    0.17620   0.18204   0.18705   0.18955   0.19346
 Alpha virt. eigenvalues --    0.19907   0.20860   0.21333   0.21501   0.21966
 Alpha virt. eigenvalues --    0.23275   0.23335   0.24299   0.24502   0.24654
 Alpha virt. eigenvalues --    0.25184   0.26537   0.27024   0.27184   0.28259
 Alpha virt. eigenvalues --    0.28629   0.29605   0.30662   0.30809   0.33267
 Alpha virt. eigenvalues --    0.33984   0.34941   0.35803   0.36580   0.36963
 Alpha virt. eigenvalues --    0.37092   0.37759   0.39944   0.40007   0.40906
 Alpha virt. eigenvalues --    0.41588   0.42139   0.42264   0.43622   0.44353
 Alpha virt. eigenvalues --    0.44854   0.45024   0.45290   0.45891   0.46086
 Alpha virt. eigenvalues --    0.46335   0.46476   0.46824   0.47252   0.47441
 Alpha virt. eigenvalues --    0.47738   0.48008   0.48094   0.48627   0.49002
 Alpha virt. eigenvalues --    0.49544   0.49997   0.50443   0.50485   0.51128
 Alpha virt. eigenvalues --    0.51458   0.51674   0.52196   0.52636   0.52869
 Alpha virt. eigenvalues --    0.53062   0.53254   0.53537   0.53900   0.54030
 Alpha virt. eigenvalues --    0.54359   0.54686   0.55050   0.55727   0.56264
 Alpha virt. eigenvalues --    0.56384   0.56485   0.56915   0.56996   0.57458
 Alpha virt. eigenvalues --    0.57844   0.58131   0.58568   0.59032   0.59680
 Alpha virt. eigenvalues --    0.59875   0.60350   0.60602   0.60828   0.61885
 Alpha virt. eigenvalues --    0.62022   0.62411   0.62779   0.63043   0.63385
 Alpha virt. eigenvalues --    0.63681   0.63787   0.64028   0.64769   0.65070
 Alpha virt. eigenvalues --    0.65173   0.65795   0.66246   0.66468   0.66680
 Alpha virt. eigenvalues --    0.67408   0.68055   0.68304   0.68574   0.68775
 Alpha virt. eigenvalues --    0.69691   0.69816   0.70745   0.70842   0.71425
 Alpha virt. eigenvalues --    0.71635   0.72334   0.72889   0.73199   0.73595
 Alpha virt. eigenvalues --    0.73995   0.74174   0.74737   0.75223   0.75569
 Alpha virt. eigenvalues --    0.76071   0.76175   0.76301   0.76413   0.76708
 Alpha virt. eigenvalues --    0.76936   0.77089   0.77873   0.78122   0.78597
 Alpha virt. eigenvalues --    0.78817   0.79139   0.79288   0.79510   0.80195
 Alpha virt. eigenvalues --    0.80375   0.80783   0.80878   0.81287   0.81350
 Alpha virt. eigenvalues --    0.81706   0.81804   0.82217   0.82448   0.82568
 Alpha virt. eigenvalues --    0.82987   0.83059   0.83611   0.83715   0.84011
 Alpha virt. eigenvalues --    0.84113   0.84241   0.84756   0.84967   0.85025
 Alpha virt. eigenvalues --    0.85576   0.85766   0.85927   0.86495   0.86794
 Alpha virt. eigenvalues --    0.87193   0.87648   0.88232   0.88608   0.88752
 Alpha virt. eigenvalues --    0.88906   0.89244   0.89679   0.90298   0.90564
 Alpha virt. eigenvalues --    0.90963   0.91528   0.91904   0.92190   0.92809
 Alpha virt. eigenvalues --    0.92885   0.93256   0.94235   0.94829   0.95264
 Alpha virt. eigenvalues --    0.95274   0.96068   0.97142   0.97245   0.97549
 Alpha virt. eigenvalues --    0.97981   0.99164   0.99719   0.99977   1.00502
 Alpha virt. eigenvalues --    1.01062   1.01438   1.01879   1.03019   1.03146
 Alpha virt. eigenvalues --    1.03894   1.04955   1.05284   1.06241   1.06379
 Alpha virt. eigenvalues --    1.07004   1.07616   1.07920   1.08157   1.09677
 Alpha virt. eigenvalues --    1.10336   1.11383   1.11456   1.12357   1.12698
 Alpha virt. eigenvalues --    1.13501   1.14566   1.15987   1.16688   1.17170
 Alpha virt. eigenvalues --    1.18282   1.18773   1.19910   1.20161   1.21887
 Alpha virt. eigenvalues --    1.22619   1.23115   1.23885   1.24330   1.25356
 Alpha virt. eigenvalues --    1.25685   1.27296   1.27495   1.28415   1.29586
 Alpha virt. eigenvalues --    1.29711   1.30320   1.31367   1.31639   1.32838
 Alpha virt. eigenvalues --    1.33397   1.34112   1.34758   1.35323   1.36089
 Alpha virt. eigenvalues --    1.37440   1.37565   1.38249   1.38731   1.39182
 Alpha virt. eigenvalues --    1.39814   1.40147   1.41108   1.41420   1.42205
 Alpha virt. eigenvalues --    1.42519   1.42681   1.43364   1.43669   1.44388
 Alpha virt. eigenvalues --    1.44871   1.45331   1.45736   1.46896   1.47557
 Alpha virt. eigenvalues --    1.48124   1.50117   1.50958   1.51562   1.52593
 Alpha virt. eigenvalues --    1.53188   1.53709   1.54436   1.55044   1.55978
 Alpha virt. eigenvalues --    1.56896   1.57462   1.59394   1.59718   1.60633
 Alpha virt. eigenvalues --    1.60888   1.62152   1.62663   1.63433   1.63587
 Alpha virt. eigenvalues --    1.64597   1.65015   1.65220   1.65612   1.66135
 Alpha virt. eigenvalues --    1.67518   1.67811   1.68583   1.68822   1.69028
 Alpha virt. eigenvalues --    1.69823   1.70799   1.70998   1.71565   1.72451
 Alpha virt. eigenvalues --    1.72701   1.73193   1.73925   1.74017   1.74292
 Alpha virt. eigenvalues --    1.74800   1.75806   1.76254   1.76699   1.77242
 Alpha virt. eigenvalues --    1.77970   1.78203   1.78443   1.78507   1.78922
 Alpha virt. eigenvalues --    1.79629   1.80353   1.80682   1.81132   1.81465
 Alpha virt. eigenvalues --    1.81961   1.82107   1.82644   1.82964   1.83913
 Alpha virt. eigenvalues --    1.84315   1.84536   1.84883   1.85642   1.85974
 Alpha virt. eigenvalues --    1.86519   1.86875   1.87486   1.88060   1.88925
 Alpha virt. eigenvalues --    1.89186   1.89343   1.89846   1.90161   1.90269
 Alpha virt. eigenvalues --    1.90838   1.90978   1.91249   1.92373   1.92594
 Alpha virt. eigenvalues --    1.93585   1.94410   1.94680   1.95078   1.95677
 Alpha virt. eigenvalues --    1.96341   1.96852   1.97290   1.97707   1.98737
 Alpha virt. eigenvalues --    1.99115   1.99239   1.99527   2.00202   2.00926
 Alpha virt. eigenvalues --    2.01766   2.02047   2.02897   2.03493   2.04246
 Alpha virt. eigenvalues --    2.04403   2.05003   2.05742   2.05974   2.06185
 Alpha virt. eigenvalues --    2.06873   2.07664   2.08063   2.08181   2.09473
 Alpha virt. eigenvalues --    2.09687   2.10619   2.11151   2.11810   2.12126
 Alpha virt. eigenvalues --    2.13152   2.13246   2.13816   2.14205   2.15291
 Alpha virt. eigenvalues --    2.16062   2.16996   2.17358   2.19349   2.19493
 Alpha virt. eigenvalues --    2.19924   2.20454   2.20677   2.21551   2.22411
 Alpha virt. eigenvalues --    2.22953   2.23422   2.24236   2.25397   2.26221
 Alpha virt. eigenvalues --    2.26349   2.27165   2.27817   2.28203   2.29299
 Alpha virt. eigenvalues --    2.30357   2.30634   2.30808   2.31477   2.31756
 Alpha virt. eigenvalues --    2.32342   2.33189   2.33888   2.35298   2.35490
 Alpha virt. eigenvalues --    2.36359   2.37404   2.37820   2.38122   2.38645
 Alpha virt. eigenvalues --    2.39669   2.40955   2.41738   2.41924   2.43178
 Alpha virt. eigenvalues --    2.43530   2.43956   2.44617   2.45606   2.46075
 Alpha virt. eigenvalues --    2.47935   2.48955   2.50279   2.50880   2.51175
 Alpha virt. eigenvalues --    2.52604   2.54413   2.54941   2.55234   2.55632
 Alpha virt. eigenvalues --    2.56012   2.57096   2.58354   2.59431   2.59629
 Alpha virt. eigenvalues --    2.60023   2.60662   2.61445   2.62918   2.63455
 Alpha virt. eigenvalues --    2.63818   2.64710   2.64960   2.65606   2.65804
 Alpha virt. eigenvalues --    2.65976   2.66804   2.67506   2.68348   2.69217
 Alpha virt. eigenvalues --    2.69831   2.71753   2.73581   2.74301   2.75851
 Alpha virt. eigenvalues --    2.77505   2.79482   2.80559   2.80992   2.83496
 Alpha virt. eigenvalues --    2.86093   2.86706   2.89239   2.90119   2.91743
 Alpha virt. eigenvalues --    2.93590   2.95563   2.96359   2.97078   2.98512
 Alpha virt. eigenvalues --    3.00509   3.03185   3.06337   3.06879   3.08982
 Alpha virt. eigenvalues --    3.09957   3.11234   3.33428   3.64758   3.76890
 Alpha virt. eigenvalues --    3.79246   3.88824   3.92878   3.96248   3.99624
 Alpha virt. eigenvalues --    4.01725   4.02589   4.03461   4.03724   4.05268
 Alpha virt. eigenvalues --    4.08918   4.09574   4.11547   4.12475   4.14648
 Alpha virt. eigenvalues --    4.16275   4.17255   4.20293   4.22273   4.22873
 Alpha virt. eigenvalues --    4.24809   4.26058   4.27016   4.27471   4.28299
 Alpha virt. eigenvalues --    4.28994   4.31683   4.34295   4.36368   4.37392
 Alpha virt. eigenvalues --    4.42925   4.44168   4.44592   4.46908   4.47899
 Alpha virt. eigenvalues --    4.49302   4.53055   4.55012   4.59526   4.61342
 Alpha virt. eigenvalues --    4.63778   4.64624   4.66830
          Condensed to atoms (all electrons):
 Mulliken charges:
               1
     1  N   -0.758210
     2  H    0.414488
     3  H    0.412359
     4  H    0.434675
     5  C   -0.124209
     6  H    0.208400
     7  C    0.675817
     8  C   -0.106196
     9  H    0.146526
    10  O   -0.550383
    11  C   -0.289890
    12  H    0.188268
    13  H    0.173306
    14  C   -0.500976
    15  H    0.236478
    16  H    0.184039
    17  H    0.124830
    18  C   -0.481726
    19  H    0.182354
    20  H    0.142347
    21  H    0.158309
    22  N   -0.605441
    23  H    0.370240
    24  C   -0.026565
    25  H    0.177440
    26  C    0.636446
    27  C   -0.431219
    28  H    0.225522
    29  H    0.180573
    30  O   -0.540451
    31  C    0.146450
    32  C   -0.174631
    33  H    0.181682
    34  C   -0.238787
    35  H    0.142666
    36  C   -0.134395
    37  H    0.150313
    38  C   -0.131823
    39  H    0.141870
    40  C   -0.130106
    41  H    0.147010
    42  N   -0.604059
    43  H    0.353576
    44  C   -0.041976
    45  H    0.172932
    46  C    0.608491
    47  C   -0.071423
    48  H    0.150974
    49  O   -0.533968
    50  C   -0.463439
    51  H    0.144191
    52  H    0.158518
    53  H    0.167404
    54  C   -0.467100
    55  H    0.144116
    56  H    0.158122
    57  H    0.149706
    58  N   -0.601421
    59  H    0.354707
    60  C   -0.053842
    61  H    0.176247
    62  C    0.618748
    63  C   -0.280658
    64  H    0.175858
    65  H    0.156279
    66  O   -0.529481
    67  C   -0.395493
    68  H    0.176407
    69  H    0.172711
    70  C    0.597700
    71  N   -0.760990
    72  H    0.381680
    73  H    0.336816
    74  O   -0.536536
    75  N   -0.588505
    76  H    0.339229
    77  C   -0.077526
    78  H    0.215030
    79  C    0.618550
    80  C   -0.269630
    81  H    0.164200
    82  H    0.171477
    83  O   -0.593649
    84  C   -0.293037
    85  H    0.160747
    86  H    0.134368
    87  C   -0.284934
    88  H    0.157015
    89  H    0.162051
    90  C   -0.160948
    91  H    0.155224
    92  H    0.179442
    93  N   -0.777658
    94  H    0.337032
    95  H    0.334765
    96  H    0.458895
    97  O   -0.514332
 Sum of Mulliken charges =   1.00000
 Mulliken charges with hydrogens summed into heavy atoms:
               1
     1  N    0.503312
     5  C    0.084191
     7  C    0.675817
     8  C    0.040329
    10  O   -0.550383
    11  C    0.071684
    14  C    0.044371
    18  C    0.001284
    22  N   -0.235201
    24  C    0.150875
    26  C    0.636446
    27  C   -0.025123
    30  O   -0.540451
    31  C    0.146450
    32  C    0.007051
    34  C   -0.096121
    36  C    0.015918
    38  C    0.010047
    40  C    0.016904
    42  N   -0.250484
    44  C    0.130956
    46  C    0.608491
    47  C    0.079551
    49  O   -0.533968
    50  C    0.006674
    54  C   -0.015156
    58  N   -0.246713
    60  C    0.122404
    62  C    0.618748
    63  C    0.051479
    66  O   -0.529481
    67  C   -0.046375
    70  C    0.597700
    71  N   -0.042495
    74  O   -0.536536
    75  N   -0.249276
    77  C    0.137505
    79  C    0.618550
    80  C    0.066047
    83  O   -0.134755
    84  C    0.002078
    87  C    0.034132
    90  C    0.173717
    93  N   -0.105861
    97  O   -0.514332
 Electronic spatial extent (au):  <R**2>=          37735.9910
 Charge=              1.0000 electrons
 Dipole moment (field-independent basis, Debye):
    X=             -6.0983    Y=             -1.1390    Z=            -15.1439  Tot=             16.3653
 Quadrupole moment (field-independent basis, Debye-Ang):
   XX=            -93.4155   YY=           -202.5381   ZZ=           -158.7417
   XY=            105.8686   XZ=            102.0083   YZ=             43.6440
 Traceless Quadrupole moment (field-independent basis, Debye-Ang):
   XX=             58.1496   YY=            -50.9730   ZZ=             -7.1766
   XY=            105.8686   XZ=            102.0083   YZ=             43.6440
 Octapole moment (field-independent basis, Debye-Ang**2):
  XXX=           -435.6914  YYY=            -84.5561  ZZZ=            362.9179  XYY=            -85.0276
  XXY=            135.9458  XXZ=             21.0312  XZZ=           -500.4075  YZZ=           -198.5663
  YYZ=            156.4437  XYZ=           -140.7466
 Hexadecapole moment (field-independent basis, Debye-Ang**3):
 XXXX=         -14275.4875 YYYY=          -9344.1145 ZZZZ=         -13506.5139 XXXY=           -827.9475
 XXXZ=          -1298.7488 YYYX=          -2952.0086 YYYZ=           -508.0067 ZZZX=          -2413.3849
 ZZZY=           -310.7457 XXYY=          -2170.9193 XXZZ=          -3958.4019 YYZZ=          -3557.1901
 XXYZ=           1279.0961 YYXZ=           -341.9944 ZZXY=           -386.0733
 N-N= 6.023650808450D+03 E-N=-1.696012232443D+04  KE= 2.102775313531D+03
 Unable to Open any file for archive entry.
 1\1\GINC-LAC-308\SP\RB3LYP\6-31G(d)\C31H52N7O7(1+)\KENGMITH\30-Jun-202
 2\0\\# B3LYP/6-31G* empiricaldispersion=gd3bj guess=read geom=check no
 symm integral(ultrafinegrid)\\Candidate Structure: Conf:121 Charge cal
 c in gas phase\\1,1\N,0,-4.8394927296,-3.3778548783,-4.5239350206\H,0,
 -4.7266775861,-3.7637291634,-5.4650380473\H,0,-5.8233865961,-3.4448137
 155,-4.2509389947\H,0,-4.2179239294,-3.9188287792,-3.8525635994\C,0,-4
 .2853726055,-1.9735347309,-4.3841409404\H,0,-4.2099913154,-1.536754922
 ,-5.3809521536\C,0,-2.9058186808,-2.2317034041,-3.745548814\C,0,-5.221
 2125964,-1.1337580704,-3.4771647714\H,0,-6.2035852805,-1.1598046713,-3
 .9760197862\O,0,-2.7310300015,-3.3266104263,-3.1865243142\C,0,-4.78676
 77644,0.3429391901,-3.4042414073\H,0,-3.8449794856,0.4091280682,-2.848
 2843183\H,0,-5.5321758752,0.850182081,-2.7816449323\C,0,-5.3456997948,
 -1.726354766,-2.0644589833\H,0,-4.4010034183,-1.6415144056,-1.51964615
 46\H,0,-6.1075774581,-1.1719408745,-1.509430345\H,0,-5.6522742455,-2.7
 801998003,-2.0573726825\C,0,-4.7000673388,1.0628626834,-4.7537156565\H
 ,0,-4.5243833496,2.1322055594,-4.6029598687\H,0,-3.8825611513,0.700870
 01,-5.3897000453\H,0,-5.6329926958,0.9605524771,-5.3209058574\N,0,-2.0
 178027111,-1.2470971867,-3.7907974716\H,0,-2.2087211606,-0.4078596143,
 -4.3281535893\C,0,-0.8190748327,-1.2471039383,-2.9548129411\H,0,-0.151
 80211,-2.0446088331,-3.2973569956\C,0,-1.2643406084,-1.4648777281,-1.4
 942114769\C,0,-0.1057597685,0.1294919252,-3.0506650205\H,0,0.905176076
 5,0.007251132,-2.6540865841\H,0,-0.650055902,0.8272990468,-2.405676634
 4\O,0,-2.2225908644,-0.8389632117,-1.0423955879\C,0,-0.0450968273,0.66
 5678017,-4.4595478395\C,0,0.9688150271,0.2639048219,-5.3384986251\H,0,
 1.7761188011,-0.3588983101,-4.9671680393\C,0,-1.0419290855,1.536298145
 3,-4.9245291774\H,0,-1.797285847,1.902483979,-4.2310385991\C,0,0.96658
 45953,0.7064116001,-6.6606874182\H,0,1.7628447429,0.3968710418,-7.3314
 602004\C,0,-1.0464525047,1.9757898688,-6.2509674422\H,0,-1.8189158395,
 2.6588936609,-6.5929415003\C,0,-0.0443906579,1.5530566347,-7.123873226
 \H,0,-0.0385575399,1.8961675554,-8.154203383\N,0,-0.503658661,-2.31584
 70532,-0.7823924589\H,0,0.2617414405,-2.8048065582,-1.2311662667\C,0,-
 0.5704859382,-2.451915642,0.6778900669\H,0,-1.2669738415,-1.6850029649
 ,1.0270775789\C,0,0.8783151971,-2.1442010549,1.0818149282\C,0,-1.04731
 15384,-3.8414131722,1.1186456172\H,0,-0.3214129565,-4.5657260284,0.727
 501427\O,0,1.7704437994,-2.9467433431,0.815659025\C,0,-1.0391407197,-3
 .9291563345,2.6491853871\H,0,-1.719765554,-3.189124588,3.0890673944\H,
 0,-1.3674686205,-4.9199054602,2.9790693242\H,0,-0.0370332159,-3.757393
 7963,3.0554993242\C,0,-2.4323279727,-4.1488082268,0.5395784556\H,0,-3.
 1777183149,-3.4370586276,0.9161781567\H,0,-2.4332028806,-4.0910184824,
 -0.5535032253\H,0,-2.7521217391,-5.1550757462,0.8309457661\N,0,1.11415
 86074,-0.8944879214,1.5511680358\H,0,0.35253769,-0.2319388272,1.661204
 3409\C,0,2.4021882766,-0.2602675235,1.300745357\H,0,3.2032584834,-0.88
 57293199,1.7046156646\C,0,2.352097566,1.1217779535,1.9557461006\C,0,2.
 5607724746,-0.0703734478,-0.22768258\H,0,2.2719660217,-1.0018921301,-0
 .7164708331\H,0,1.8330046921,0.6944683983,-0.5249523768\O,0,1.27945367
 71,1.7066337943,2.0834380644\C,0,3.9566223054,0.3164608447,-0.72447120
 39\H,0,4.608935681,-0.5647595487,-0.7227423901\H,0,4.4115073179,1.0867
 09022,-0.1020208932\C,0,3.8316956087,0.8225261085,-2.1552580191\N,0,4.
 3568492878,2.0546364463,-2.368378292\H,0,4.6624006696,2.6327341912,-1.
 5928005303\H,0,4.223425808,2.477544749,-3.2768845602\O,0,3.2675384081,
 0.1647986352,-3.0309444299\N,0,3.5507896981,1.661674123,2.3029938889\H
 ,0,4.3877251202,1.1533328658,2.0528836437\C,0,3.6958131806,3.079318983
 6,2.5835281648\H,0,2.6867709455,3.4630645992,2.751213338\C,0,4.3166971
 333,3.8077753903,1.3963839581\C,0,4.5469432498,3.3415140417,3.84956065
 57\H,0,4.1568816794,2.6697141843,4.6211956323\H,0,4.3469480771,4.36366
 94512,4.1847843346\O,0,4.3845994293,5.1099787129,1.5909273088\C,0,6.07
 62562613,3.1408148161,3.7235128121\H,0,6.4353347519,2.8550332992,4.717
 4686316\H,0,6.301315555,2.2779321553,3.0805096212\C,0,6.9077306221,4.3
 727176816,3.2607225666\H,0,7.7822434973,4.4493998991,3.914506441\H,0,6
 .3223228155,5.2822448747,3.4375251456\C,0,7.4113151594,4.3776123136,1.
 7945722428\H,0,8.5084663513,4.376388743,1.7772016031\H,0,7.0790401441,
 3.4813349954,1.2671878198\N,0,6.8801574174,5.5351960381,1.0249998859\H
 ,0,7.1967151649,5.4830076522,0.0576367109\H,0,7.2479120365,6.406952235
 5,1.4061820993\H,0,5.2716923796,5.4381111954,1.1543331437\O,0,4.806163
 4969,3.2242377256,0.4336594809\\Version=ES64L-G16RevC.01\HF=-2122.5626
 658\RMSD=6.546e-09\Dipole=-3.7917244,-0.9078198,-3.9548646\Quadrupole=
 43.232806,-37.8971646,-5.3356414,78.7107065,75.8406729,32.4482751\PG=C
 01 [X(C31H52N7O7)]\\@
 The archive entry for this job was punched.


 NEVER LISTEN TO CRITICISM
 OR YOU'LL BE DOIN' EVERYBODY ELSE'S THING BUT BUT YOUR OWN.

                                               -- ANDY CAPP
 Job cpu time:       0 days  0 hours  5 minutes 18.2 seconds.
 Elapsed time:       0 days  0 hours  1 minutes 24.7 seconds.
 File lengths (MBytes):  RWF=    432 Int=      0 D2E=      0 Chk=     64 Scr=     16
 Normal termination of Gaussian 16 at Thu Jun 30 19:47:39 2022.
