 Entering Gaussian System, Link 0=/opt/software/Gaussian/g16-AVX2-C.01/g16/g16
 Input=charge-conf-90.com
 Output=charge-conf-90.log
 Initial command:
 /opt/software/Gaussian/g16-AVX2-C.01/g16/l1.exe "/mnt/gs18/scratch/users/kengmith/Gau-6658.inp" -scrdir="/mnt/gs18/scratch/users/kengmith/"
 Entering Link 1 = /opt/software/Gaussian/g16-AVX2-C.01/g16/l1.exe PID=      6693.
  
 Copyright (c) 1988-2019, Gaussian, Inc.  All Rights Reserved.
  
 This is part of the Gaussian(R) 16 program.  It is based on
 the Gaussian(R) 09 system (copyright 2009, Gaussian, Inc.),
 the Gaussian(R) 03 system (copyright 2003, Gaussian, Inc.),
 the Gaussian(R) 98 system (copyright 1998, Gaussian, Inc.),
 the Gaussian(R) 94 system (copyright 1995, Gaussian, Inc.),
 the Gaussian 92(TM) system (copyright 1992, Gaussian, Inc.),
 the Gaussian 90(TM) system (copyright 1990, Gaussian, Inc.),
 the Gaussian 88(TM) system (copyright 1988, Gaussian, Inc.),
 the Gaussian 86(TM) system (copyright 1986, Carnegie Mellon
 University), and the Gaussian 82(TM) system (copyright 1983,
 Carnegie Mellon University). Gaussian is a federally registered
 trademark of Gaussian, Inc.
  
 This software contains proprietary and confidential information,
 including trade secrets, belonging to Gaussian, Inc.
  
 This software is provided under written license and may be
 used, copied, transmitted, or stored only in accord with that
 written license.
  
 The following legend is applicable only to US Government
 contracts under FAR:
  
                    RESTRICTED RIGHTS LEGEND
  
 Use, reproduction and disclosure by the US Government is
 subject to restrictions as set forth in subparagraphs (a)
 and (c) of the Commercial Computer Software - Restricted
 Rights clause in FAR 52.227-19.
  
 Gaussian, Inc.
 340 Quinnipiac St., Bldg. 40, Wallingford CT 06492
  
  
 ---------------------------------------------------------------
 Warning -- This program may not be used in any manner that
 competes with the business of Gaussian, Inc. or will provide
 assistance to any competitor of Gaussian, Inc.  The licensee
 of this program is prohibited from giving any competitor of
 Gaussian, Inc. access to this program.  By using this program,
 the user acknowledges that Gaussian, Inc. is engaged in the
 business of creating and licensing software in the field of
 computational chemistry and represents and warrants to the
 licensee that it is not a competitor of Gaussian, Inc. and that
 it will not use this program in any manner prohibited above.
 ---------------------------------------------------------------
  

 Cite this work as:
 Gaussian 16, Revision C.01,
 M. J. Frisch, G. W. Trucks, H. B. Schlegel, G. E. Scuseria, 
 M. A. Robb, J. R. Cheeseman, G. Scalmani, V. Barone, 
 G. A. Petersson, H. Nakatsuji, X. Li, M. Caricato, A. V. Marenich, 
 J. Bloino, B. G. Janesko, R. Gomperts, B. Mennucci, H. P. Hratchian, 
 J. V. Ortiz, A. F. Izmaylov, J. L. Sonnenberg, D. Williams-Young, 
 F. Ding, F. Lipparini, F. Egidi, J. Goings, B. Peng, A. Petrone, 
 T. Henderson, D. Ranasinghe, V. G. Zakrzewski, J. Gao, N. Rega, 
 G. Zheng, W. Liang, M. Hada, M. Ehara, K. Toyota, R. Fukuda, 
 J. Hasegawa, M. Ishida, T. Nakajima, Y. Honda, O. Kitao, H. Nakai, 
 T. Vreven, K. Throssell, J. A. Montgomery, Jr., J. E. Peralta, 
 F. Ogliaro, M. J. Bearpark, J. J. Heyd, E. N. Brothers, K. N. Kudin, 
 V. N. Staroverov, T. A. Keith, R. Kobayashi, J. Normand, 
 K. Raghavachari, A. P. Rendell, J. C. Burant, S. S. Iyengar, 
 J. Tomasi, M. Cossi, J. M. Millam, M. Klene, C. Adamo, R. Cammi, 
 J. W. Ochterski, R. L. Martin, K. Morokuma, O. Farkas, 
 J. B. Foresman, and D. J. Fox, Gaussian, Inc., Wallingford CT, 2019.
 
 ******************************************
 Gaussian 16:  ES64L-G16RevC.01  3-Jul-2019
                24-Jun-2022 
 ******************************************
 %mem=8gb
 %nproc=4
 Will use up to    4 processors via shared memory.
 %chk=conf-90.chk
 ----------------------------------------------------------------------
 # B3LYP/6-31G* empiricaldispersion=gd3bj guess=read geom=check nosymm 
 integral(ultrafinegrid)
 ----------------------------------------------------------------------
 1/29=2,38=1,172=1/1;
 2/12=2,15=1,40=1/2;
 3/5=1,6=6,7=1,11=2,14=-4,25=1,30=1,74=-5,75=-5,116=-2,124=41/1,2,3;
 4/5=1/1;
 5/5=2,38=6/2;
 6/7=2,8=2,9=2,10=2,28=1/1;
 99/5=1,9=1/99;
 -----------------------------------------------------
 Candidate Structure: Conf:90 Charge calc in gas phase
 -----------------------------------------------------
 Structure from the checkpoint file:  "conf-90.chk"
 Charge =  1 Multiplicity = 1
 Redundant internal coordinates found in file.  (old form).
 N,0,-1.3299415932,-2.5245353545,2.504535523
 H,0,-1.2012925048,-3.0500506148,1.6400665255
 H,0,0.1699998689,-1.4582300064,2.8771917147
 H,0,-1.6013500861,-3.1785839715,3.2343666126
 C,0,-2.4013975991,-1.5350266161,2.276625471
 H,0,-3.3998323005,-2.00008917,2.2922322162
 C,0,-2.1297419783,-0.9975231347,0.8581436559
 C,0,-2.3296676142,-0.4001729519,3.3205949324
 H,0,-1.5149454666,0.2672716271,3.0297732718
 H,0,-3.2622834865,0.1781238634,3.2957833109
 O,0,-1.4868085195,-1.6725362635,0.0493254429
 C,0,-2.077811293,-0.8449949527,4.7737306253
 H,0,-1.3088962989,-1.6239244779,4.801395039
 H,0,-2.9850991556,-1.2251848336,5.2473871359
 C,0,-1.5790409831,0.3565828821,5.5776311786
 O,0,-2.2622841372,0.9522702512,6.3750217227
 O,0,-0.3149640242,0.7404872626,5.304936086
 N,0,-2.508581984,0.2774225293,0.5732628657
 H,0,-2.9036826357,0.8281714672,1.3249026424
 C,0,-1.7683944155,1.0452824946,-0.438032958
 H,0,-1.5230160034,0.3433888056,-1.2377961244
 C,0,-0.4563496772,1.5280573771,0.2253491674
 C,0,-2.6240253138,2.197080442,-0.9675879779
 H,0,-2.8039620267,2.9044243681,-0.1510195044
 H,0,-3.5945300454,1.7672369262,-1.246014094
 O,0,-0.2045324175,2.7190596377,0.4160249224
 C,0,-2.0519924791,2.9486944919,-2.134745167
 C,0,-1.8268527775,4.3004606491,-2.1671053112
 H,0,-1.9315967186,5.027532159,-1.3745088228
 C,0,-1.7606460711,2.4546298553,-3.4628369316
 C,0,-1.3959081504,3.5800519164,-4.2584647116
 C,0,-1.7793482711,1.1848671219,-4.0672529632
 H,0,-2.0601677644,0.3036778153,-3.4975607508
 N,0,-1.4039685655,4.6868761206,-3.429984632
 H,0,-1.3679760037,5.6446877644,-3.7459843068
 C,0,-1.1321613286,2.2000789054,-6.1891898894
 H,0,-0.9426018886,2.0813627908,-7.2528771538
 C,0,-1.1018154366,3.4718486603,-5.6217305052
 H,0,-0.8926324416,4.3539952312,-6.2229824671
 C,0,-1.4564081671,1.0665743902,-5.4146038591
 H,0,-1.4797350685,0.0895816262,-5.8870334903
 N,0,0.3616484822,0.5171086798,0.6186570424
 H,0,0.1249712509,-0.4313118822,0.3428436845
 C,0,1.5806264317,0.7221053966,1.405157578
 H,0,1.4245426601,1.6112013014,2.0232411281
 C,0,2.680449902,0.9655928707,0.3608358033
 C,0,1.8586730931,-0.487347876,2.3149840509
 H,0,2.0129975464,-1.3680092513,1.6794234608
 O,0,3.4340901062,0.0883919348,-0.0382134959
 C,0,3.0947750317,-0.2570289403,3.1737262592
 H,0,3.9812540939,-0.1117695038,2.5514415628
 H,0,3.2569346814,-1.1242084639,3.8191851201
 H,0,2.9538613275,0.6214549534,3.8136465464
 O,0,0.7367851499,-0.7021973698,3.1703673185
 H,0,0.1070917272,0.1675236818,4.6273546056
 N,0,2.6184950289,2.2242399269,-0.1886236117
 H,0,1.8203071703,2.7844682259,0.1116250697
 C,0,3.0307778519,2.3910293337,-1.5659821768
 H,0,3.5975852669,1.4886256941,-1.8257483598
 C,0,3.9975531151,3.5421793348,-1.7795037912
 C,0,1.7598677806,2.4427850077,-2.4544576174
 H,0,1.1450114075,3.3077514597,-2.1782110894
 H,0,1.1833126001,1.564132351,-2.1534047091
 O,0,4.5828131596,3.7563222671,-2.8371052433
 C,0,1.9615417885,2.3818694699,-3.9698230719
 H,0,2.841841425,1.772627463,-4.2055883282
 H,0,1.1009002638,1.8757946998,-4.4179406053
 C,0,2.081862454,3.7574248091,-4.6304132874
 H,0,1.1323956308,4.2876624598,-4.5637528502
 H,0,2.8399323453,4.3855278809,-4.1649411464
 N,0,2.4072231029,3.6369238535,-6.0570586671
 H,0,1.6394979458,3.3542365595,-6.6566272788
 N,0,4.6849140185,3.364495599,-5.6626277669
 H,0,5.6274511445,3.4170935372,-6.0219880372
 H,0,4.5778778963,3.3828897884,-4.6416324076
 N,0,3.8530564572,3.2540882417,-7.8248844981
 H,0,3.1494662251,3.5274557939,-8.4949154439
 H,0,4.758686149,2.9931140584,-8.1858827802
 C,0,3.6497964884,3.4170994879,-6.5019569728
 O,0,4.1755528621,4.3148559957,-0.7120343883
 H,0,4.8317297911,4.9992411858,-0.9494429069
 Recover connectivity data from disk.
                           ----------------------------
                           !    Current Parameters    !
                           ! (Angstroms and Degrees)  !
 --------------------------                            --------------------------
 ! Name  Definition              Value                                          !
 --------------------------------------------------------------------------------
 ! R1    R(1,2)                  1.0198                                         !
 ! R2    R(1,3)                  1.8777                                         !
 ! R3    R(1,4)                  1.0169                                         !
 ! R4    R(1,5)                  1.4762                                         !
 ! R5    R(5,6)                  1.1015                                         !
 ! R6    R(5,7)                  1.541                                          !
 ! R7    R(5,8)                  1.5437                                         !
 ! R8    R(7,11)                 1.2342                                         !
 ! R9    R(7,18)                 1.3602                                         !
 ! R10   R(8,9)                  1.0926                                         !
 ! R11   R(8,10)                 1.0976                                         !
 ! R12   R(8,12)                 1.5404                                         !
 ! R13   R(12,13)                1.0949                                         !
 ! R14   R(12,14)                1.0918                                         !
 ! R15   R(12,15)                1.5293                                         !
 ! R16   R(15,16)                1.2073                                         !
 ! R17   R(15,17)                1.3489                                         !
 ! R18   R(18,19)                1.0121                                         !
 ! R19   R(18,20)                1.4698                                         !
 ! R20   R(20,21)                1.092                                          !
 ! R21   R(20,22)                1.5475                                         !
 ! R22   R(20,23)                1.5294                                         !
 ! R23   R(22,26)                1.2322                                         !
 ! R24   R(22,42)                1.3586                                         !
 ! R25   R(23,24)                1.0952                                         !
 ! R26   R(23,25)                1.0973                                         !
 ! R27   R(23,27)                1.5015                                         !
 ! R28   R(27,28)                1.3708                                         !
 ! R29   R(27,30)                1.4467                                         !
 ! R30   R(28,29)                1.0807                                         !
 ! R31   R(28,34)                1.3867                                         !
 ! R32   R(30,31)                1.4257                                         !
 ! R33   R(30,32)                1.4064                                         !
 ! R34   R(31,34)                1.3826                                         !
 ! R35   R(31,38)                1.3988                                         !
 ! R36   R(32,33)                1.0862                                         !
 ! R37   R(32,40)                1.3906                                         !
 ! R38   R(34,35)                1.0092                                         !
 ! R39   R(36,37)                1.0869                                         !
 ! R40   R(36,38)                1.393                                          !
 ! R41   R(36,40)                1.4107                                         !
 ! R42   R(38,39)                1.0879                                         !
 ! R43   R(40,41)                1.0855                                         !
 ! R44   R(42,43)                1.0157                                         !
 ! R45   R(42,44)                1.4651                                         !
 ! R46   R(44,45)                1.094                                          !
 ! R47   R(44,46)                1.5361                                         !
 ! R48   R(44,47)                1.5388                                         !
 ! R49   R(46,49)                1.2234                                         !
 ! R50   R(46,56)                1.3747                                         !
 ! R51   R(47,48)                1.097                                          !
 ! R52   R(47,50)                1.5226                                         !
 ! R53   R(47,54)                1.4271                                         !
 ! R54   R(50,51)                1.0928                                         !
 ! R55   R(50,52)                1.0931                                         !
 ! R56   R(50,53)                1.0959                                         !
 ! R57   R(54,55)                1.8099                                         !
 ! R58   R(56,57)                1.0203                                         !
 ! R59   R(56,58)                1.4474                                         !
 ! R60   R(58,59)                1.0969                                         !
 ! R61   R(58,60)                1.5184                                         !
 ! R62   R(58,61)                1.5515                                         !
 ! R63   R(60,64)                1.2276                                         !
 ! R64   R(60,80)                1.3297                                         !
 ! R65   R(61,62)                1.0966                                         !
 ! R66   R(61,63)                1.0932                                         !
 ! R67   R(61,65)                1.5299                                         !
 ! R68   R(65,66)                1.0962                                         !
 ! R69   R(65,67)                1.0944                                         !
 ! R70   R(65,68)                1.5307                                         !
 ! R71   R(68,69)                1.0895                                         !
 ! R72   R(68,70)                1.089                                          !
 ! R73   R(68,71)                1.4682                                         !
 ! R74   R(71,72)                1.0143                                         !
 ! R75   R(71,79)                1.338                                          !
 ! R76   R(73,74)                1.0101                                         !
 ! R77   R(73,75)                1.0268                                         !
 ! R78   R(73,79)                1.3337                                         !
 ! R79   R(76,77)                1.0093                                         !
 ! R80   R(76,78)                1.0093                                         !
 ! R81   R(76,79)                1.3483                                         !
 ! R82   R(80,81)                0.9774                                         !
 ! A1    A(2,1,3)              111.106                                          !
 ! A2    A(2,1,4)              108.096                                          !
 ! A3    A(2,1,5)              107.8248                                         !
 ! A4    A(3,1,4)              115.8498                                         !
 ! A5    A(3,1,5)              103.2848                                         !
 ! A6    A(4,1,5)              110.3784                                         !
 ! A7    A(1,5,6)              111.8823                                         !
 ! A8    A(1,5,7)              104.3572                                         !
 ! A9    A(1,5,8)              110.7723                                         !
 ! A10   A(6,5,7)              108.6677                                         !
 ! A11   A(6,5,8)              110.0547                                         !
 ! A12   A(7,5,8)              110.971                                          !
 ! A13   A(5,7,11)             120.2847                                         !
 ! A14   A(5,7,18)             118.0743                                         !
 ! A15   A(11,7,18)            121.3648                                         !
 ! A16   A(5,8,9)              107.6816                                         !
 ! A17   A(5,8,10)             109.4241                                         !
 ! A18   A(5,8,12)             115.6756                                         !
 ! A19   A(9,8,10)             107.8001                                         !
 ! A20   A(9,8,12)             107.7924                                         !
 ! A21   A(10,8,12)            108.2026                                         !
 ! A22   A(8,12,13)            110.1268                                         !
 ! A23   A(8,12,14)            111.9582                                         !
 ! A24   A(8,12,15)            108.8029                                         !
 ! A25   A(13,12,14)           108.9595                                         !
 ! A26   A(13,12,15)           108.4603                                         !
 ! A27   A(14,12,15)           108.4554                                         !
 ! A28   A(12,15,16)           123.3872                                         !
 ! A29   A(12,15,17)           115.0218                                         !
 ! A30   A(16,15,17)           121.5629                                         !
 ! A31   A(7,18,19)            117.5958                                         !
 ! A32   A(7,18,20)            119.5732                                         !
 ! A33   A(19,18,20)           115.0426                                         !
 ! A34   A(18,20,21)           106.3371                                         !
 ! A35   A(18,20,22)           107.1587                                         !
 ! A36   A(18,20,23)           110.4835                                         !
 ! A37   A(21,20,22)           108.9033                                         !
 ! A38   A(21,20,23)           110.8657                                         !
 ! A39   A(22,20,23)           112.8189                                         !
 ! A40   A(20,22,26)           122.7635                                         !
 ! A41   A(20,22,42)           113.7313                                         !
 ! A42   A(26,22,42)           123.4627                                         !
 ! A43   A(20,23,24)           108.6716                                         !
 ! A44   A(20,23,25)           106.7164                                         !
 ! A45   A(20,23,27)           115.6579                                         !
 ! A46   A(24,23,25)           107.2689                                         !
 ! A47   A(24,23,27)           108.594                                          !
 ! A48   A(25,23,27)           109.6211                                         !
 ! A49   A(23,27,28)           125.0697                                         !
 ! A50   A(23,27,30)           128.2725                                         !
 ! A51   A(28,27,30)           106.3819                                         !
 ! A52   A(27,28,29)           129.0683                                         !
 ! A53   A(27,28,34)           110.2658                                         !
 ! A54   A(29,28,34)           120.6649                                         !
 ! A55   A(27,30,31)           107.1128                                         !
 ! A56   A(27,30,32)           134.4432                                         !
 ! A57   A(31,30,32)           118.4413                                         !
 ! A58   A(30,31,34)           107.2201                                         !
 ! A59   A(30,31,38)           122.4526                                         !
 ! A60   A(34,31,38)           130.3273                                         !
 ! A61   A(30,32,33)           120.6946                                         !
 ! A62   A(30,32,40)           119.3488                                         !
 ! A63   A(33,32,40)           119.9471                                         !
 ! A64   A(28,34,31)           108.9302                                         !
 ! A65   A(28,34,35)           124.0887                                         !
 ! A66   A(31,34,35)           124.8851                                         !
 ! A67   A(37,36,38)           119.6419                                         !
 ! A68   A(37,36,40)           119.3189                                         !
 ! A69   A(38,36,40)           120.9935                                         !
 ! A70   A(31,38,36)           117.5852                                         !
 ! A71   A(31,38,39)           121.0874                                         !
 ! A72   A(36,38,39)           121.2911                                         !
 ! A73   A(32,40,36)           121.1354                                         !
 ! A74   A(32,40,41)           119.5567                                         !
 ! A75   A(36,40,41)           119.287                                          !
 ! A76   A(22,42,43)           118.4192                                         !
 ! A77   A(22,42,44)           123.5202                                         !
 ! A78   A(43,42,44)           118.0546                                         !
 ! A79   A(42,44,45)           107.3552                                         !
 ! A80   A(42,44,46)           104.6509                                         !
 ! A81   A(42,44,47)           110.9631                                         !
 ! A82   A(45,44,46)           110.9425                                         !
 ! A83   A(45,44,47)           109.2985                                         !
 ! A84   A(46,44,47)           113.4027                                         !
 ! A85   A(44,46,49)           123.3104                                         !
 ! A86   A(44,46,56)           112.6182                                         !
 ! A87   A(49,46,56)           123.6323                                         !
 ! A88   A(44,47,48)           108.2915                                         !
 ! A89   A(44,47,50)           111.1776                                         !
 ! A90   A(44,47,54)           109.3104                                         !
 ! A91   A(48,47,50)           109.5111                                         !
 ! A92   A(48,47,54)           109.6953                                         !
 ! A93   A(50,47,54)           108.8404                                         !
 ! A94   A(47,50,51)           110.9468                                         !
 ! A95   A(47,50,52)           109.4782                                         !
 ! A96   A(47,50,53)           110.2537                                         !
 ! A97   A(51,50,52)           108.7449                                         !
 ! A98   A(51,50,53)           109.2841                                         !
 ! A99   A(52,50,53)           108.0709                                         !
 ! A100  A(47,54,55)           133.1333                                         !
 ! A101  A(46,56,57)           114.8555                                         !
 ! A102  A(46,56,58)           118.2298                                         !
 ! A103  A(57,56,58)           116.0772                                         !
 ! A104  A(56,58,59)           106.1267                                         !
 ! A105  A(56,58,60)           113.7383                                         !
 ! A106  A(56,58,61)           108.3883                                         !
 ! A107  A(59,58,60)           105.154                                          !
 ! A108  A(59,58,61)           108.3679                                         !
 ! A109  A(60,58,61)           114.566                                          !
 ! A110  A(58,60,64)           123.8475                                         !
 ! A111  A(58,60,80)           114.3864                                         !
 ! A112  A(64,60,80)           121.7649                                         !
 ! A113  A(58,61,62)           109.9583                                         !
 ! A114  A(58,61,63)           104.3297                                         !
 ! A115  A(58,61,65)           117.2505                                         !
 ! A116  A(62,61,63)           105.5981                                         !
 ! A117  A(62,61,65)           110.7829                                         !
 ! A118  A(63,61,65)           108.0763                                         !
 ! A119  A(61,65,66)           109.9382                                         !
 ! A120  A(61,65,67)           108.6825                                         !
 ! A121  A(61,65,68)           113.7054                                         !
 ! A122  A(66,65,67)           106.646                                          !
 ! A123  A(66,65,68)           110.0904                                         !
 ! A124  A(67,65,68)           107.498                                          !
 ! A125  A(65,68,69)           110.0254                                         !
 ! A126  A(65,68,70)           112.8663                                         !
 ! A127  A(65,68,71)           111.2849                                         !
 ! A128  A(69,68,70)           107.445                                          !
 ! A129  A(69,68,71)           107.0079                                         !
 ! A130  A(70,68,71)           107.9635                                         !
 ! A131  A(68,71,72)           115.4371                                         !
 ! A132  A(68,71,79)           122.8453                                         !
 ! A133  A(72,71,79)           117.4245                                         !
 ! A134  A(74,73,75)           116.7512                                         !
 ! A135  A(74,73,79)           119.886                                          !
 ! A136  A(75,73,79)           122.969                                          !
 ! A137  A(77,76,78)           117.2652                                         !
 ! A138  A(77,76,79)           120.8976                                         !
 ! A139  A(78,76,79)           121.1633                                         !
 ! A140  A(71,79,73)           121.1983                                         !
 ! A141  A(71,79,76)           119.0847                                         !
 ! A142  A(73,79,76)           119.716                                          !
 ! A143  A(60,80,81)           107.5628                                         !
 ! D1    D(2,1,5,6)             76.5623                                         !
 ! D2    D(2,1,5,7)            -40.7509                                         !
 ! D3    D(2,1,5,8)           -160.2365                                         !
 ! D4    D(3,1,5,6)           -165.7551                                         !
 ! D5    D(3,1,5,7)             76.9316                                         !
 ! D6    D(3,1,5,8)            -42.554                                          !
 ! D7    D(4,1,5,6)            -41.3098                                         !
 ! D8    D(4,1,5,7)           -158.623                                          !
 ! D9    D(4,1,5,8)             81.8914                                         !
 ! D10   D(1,5,7,11)            23.2536                                         !
 ! D11   D(1,5,7,18)          -150.7918                                         !
 ! D12   D(6,5,7,11)           -96.2552                                         !
 ! D13   D(6,5,7,18)            89.6994                                         !
 ! D14   D(8,5,7,11)           142.6049                                         !
 ! D15   D(8,5,7,18)           -31.4405                                         !
 ! D16   D(1,5,8,9)             77.1333                                         !
 ! D17   D(1,5,8,10)          -165.954                                          !
 ! D18   D(1,5,8,12)           -43.4714                                         !
 ! D19   D(6,5,8,9)           -158.6163                                         !
 ! D20   D(6,5,8,10)           -41.7036                                         !
 ! D21   D(6,5,8,12)            80.779                                          !
 ! D22   D(7,5,8,9)            -38.2963                                         !
 ! D23   D(7,5,8,10)            78.6164                                         !
 ! D24   D(7,5,8,12)          -158.901                                          !
 ! D25   D(5,7,18,19)            3.3842                                         !
 ! D26   D(5,7,18,20)          151.1395                                         !
 ! D27   D(11,7,18,19)        -170.5936                                         !
 ! D28   D(11,7,18,20)         -22.8383                                         !
 ! D29   D(5,8,12,13)           42.6508                                         !
 ! D30   D(5,8,12,14)          -78.7386                                         !
 ! D31   D(5,8,12,15)          161.4038                                         !
 ! D32   D(9,8,12,13)          -77.8939                                         !
 ! D33   D(9,8,12,14)          160.7166                                         !
 ! D34   D(9,8,12,15)           40.859                                          !
 ! D35   D(10,8,12,13)         165.779                                          !
 ! D36   D(10,8,12,14)          44.3896                                         !
 ! D37   D(10,8,12,15)         -75.468                                          !
 ! D38   D(8,12,15,16)         105.4592                                         !
 ! D39   D(8,12,15,17)         -72.6362                                         !
 ! D40   D(13,12,15,16)       -134.7471                                         !
 ! D41   D(13,12,15,17)         47.1576                                         !
 ! D42   D(14,12,15,16)        -16.5502                                         !
 ! D43   D(14,12,15,17)        165.3545                                         !
 ! D44   D(7,18,20,21)          38.7954                                         !
 ! D45   D(7,18,20,22)         -77.5534                                         !
 ! D46   D(7,18,20,23)         159.1742                                         !
 ! D47   D(19,18,20,21)       -172.6645                                         !
 ! D48   D(19,18,20,22)         70.9867                                         !
 ! D49   D(19,18,20,23)        -52.2857                                         !
 ! D50   D(18,20,22,26)       -115.1734                                         !
 ! D51   D(18,20,22,42)         62.5323                                         !
 ! D52   D(21,20,22,26)        130.1871                                         !
 ! D53   D(21,20,22,42)        -52.1071                                         !
 ! D54   D(23,20,22,26)          6.6462                                         !
 ! D55   D(23,20,22,42)       -175.648                                          !
 ! D56   D(18,20,23,24)         65.3343                                         !
 ! D57   D(18,20,23,25)        -50.0485                                         !
 ! D58   D(18,20,23,27)       -172.2728                                         !
 ! D59   D(21,20,23,24)       -177.037                                          !
 ! D60   D(21,20,23,25)         67.5802                                         !
 ! D61   D(21,20,23,27)        -54.6441                                         !
 ! D62   D(22,20,23,24)        -54.5894                                         !
 ! D63   D(22,20,23,25)       -169.9722                                         !
 ! D64   D(22,20,23,27)         67.8035                                         !
 ! D65   D(20,22,42,43)          8.222                                          !
 ! D66   D(20,22,42,44)       -172.6828                                         !
 ! D67   D(26,22,42,43)       -174.0906                                         !
 ! D68   D(26,22,42,44)          5.0046                                         !
 ! D69   D(20,23,27,28)       -123.7758                                         !
 ! D70   D(20,23,27,30)         63.0975                                         !
 ! D71   D(24,23,27,28)         -1.3418                                         !
 ! D72   D(24,23,27,30)       -174.4684                                         !
 ! D73   D(25,23,27,28)        115.5591                                         !
 ! D74   D(25,23,27,30)        -57.5676                                         !
 ! D75   D(23,27,28,29)          5.6218                                         !
 ! D76   D(23,27,28,34)       -174.7555                                         !
 ! D77   D(30,27,28,29)       -179.9982                                         !
 ! D78   D(30,27,28,34)         -0.3754                                         !
 ! D79   D(23,27,30,31)        172.6569                                         !
 ! D80   D(23,27,30,32)         -6.7161                                         !
 ! D81   D(28,27,30,31)         -1.4834                                         !
 ! D82   D(28,27,30,32)        179.1436                                         !
 ! D83   D(27,28,34,31)          2.1701                                         !
 ! D84   D(27,28,34,35)        166.364                                          !
 ! D85   D(29,28,34,31)       -178.1704                                         !
 ! D86   D(29,28,34,35)        -13.9765                                         !
 ! D87   D(27,30,31,34)          2.7775                                         !
 ! D88   D(27,30,31,38)       -177.2864                                         !
 ! D89   D(32,30,31,34)       -177.7316                                         !
 ! D90   D(32,30,31,38)          2.2045                                         !
 ! D91   D(27,30,32,33)         -0.1424                                         !
 ! D92   D(27,30,32,40)        178.7319                                         !
 ! D93   D(31,30,32,33)       -179.4609                                         !
 ! D94   D(31,30,32,40)         -0.5866                                         !
 ! D95   D(30,31,34,28)         -3.0434                                         !
 ! D96   D(30,31,34,35)       -167.0817                                         !
 ! D97   D(38,31,34,28)        177.0273                                         !
 ! D98   D(38,31,34,35)         12.989                                          !
 ! D99   D(30,31,38,36)         -2.0799                                         !
 ! D100  D(30,31,38,39)        175.7567                                         !
 ! D101  D(34,31,38,36)        177.8401                                         !
 ! D102  D(34,31,38,39)         -4.3234                                         !
 ! D103  D(30,32,40,36)         -1.0469                                         !
 ! D104  D(30,32,40,41)       -179.3703                                         !
 ! D105  D(33,32,40,36)        177.836                                          !
 ! D106  D(33,32,40,41)         -0.4874                                         !
 ! D107  D(37,36,38,31)        177.9066                                         !
 ! D108  D(37,36,38,39)          0.0747                                         !
 ! D109  D(40,36,38,31)          0.3826                                         !
 ! D110  D(40,36,38,39)       -177.4493                                         !
 ! D111  D(37,36,40,32)       -176.3562                                         !
 ! D112  D(37,36,40,41)          1.9716                                         !
 ! D113  D(38,36,40,32)          1.1756                                         !
 ! D114  D(38,36,40,41)        179.5035                                         !
 ! D115  D(22,42,44,45)         29.6133                                         !
 ! D116  D(22,42,44,46)        -88.341                                          !
 ! D117  D(22,42,44,47)        148.9889                                         !
 ! D118  D(43,42,44,45)       -151.2884                                         !
 ! D119  D(43,42,44,46)         90.7573                                         !
 ! D120  D(43,42,44,47)        -31.9128                                         !
 ! D121  D(42,44,46,49)        -96.9766                                         !
 ! D122  D(42,44,46,56)         75.6579                                         !
 ! D123  D(45,44,46,49)        147.5443                                         !
 ! D124  D(45,44,46,56)        -39.8211                                         !
 ! D125  D(47,44,46,49)         24.0933                                         !
 ! D126  D(47,44,46,56)       -163.2721                                         !
 ! D127  D(42,44,47,48)         61.828                                          !
 ! D128  D(42,44,47,50)       -177.8203                                         !
 ! D129  D(42,44,47,54)        -57.64                                           !
 ! D130  D(45,44,47,48)       -179.9678                                         !
 ! D131  D(45,44,47,50)        -59.6161                                         !
 ! D132  D(45,44,47,54)         60.5641                                         !
 ! D133  D(46,44,47,48)        -55.6205                                         !
 ! D134  D(46,44,47,50)         64.7312                                         !
 ! D135  D(46,44,47,54)       -175.0886                                         !
 ! D136  D(44,46,56,57)         -4.6854                                         !
 ! D137  D(44,46,56,58)       -147.6779                                         !
 ! D138  D(49,46,56,57)        167.9216                                         !
 ! D139  D(49,46,56,58)         24.9291                                         !
 ! D140  D(44,47,50,51)        -60.8835                                         !
 ! D141  D(44,47,50,52)        179.0917                                         !
 ! D142  D(44,47,50,53)         60.3267                                         !
 ! D143  D(48,47,50,51)         58.7446                                         !
 ! D144  D(48,47,50,52)        -61.2803                                         !
 ! D145  D(48,47,50,53)        179.9547                                         !
 ! D146  D(54,47,50,51)        178.6584                                         !
 ! D147  D(54,47,50,52)         58.6335                                         !
 ! D148  D(54,47,50,53)        -60.1315                                         !
 ! D149  D(44,47,54,55)        -73.9273                                         !
 ! D150  D(48,47,54,55)        167.4751                                         !
 ! D151  D(50,47,54,55)         47.6756                                         !
 ! D152  D(46,56,58,59)        -16.0838                                         !
 ! D153  D(46,56,58,60)       -131.1983                                         !
 ! D154  D(46,56,58,61)        100.1345                                         !
 ! D155  D(57,56,58,59)       -158.6342                                         !
 ! D156  D(57,56,58,60)         86.2513                                         !
 ! D157  D(57,56,58,61)        -42.4158                                         !
 ! D158  D(56,58,60,64)        171.3231                                         !
 ! D159  D(56,58,60,80)         -8.2712                                         !
 ! D160  D(59,58,60,64)         55.6352                                         !
 ! D161  D(59,58,60,80)       -123.9591                                         !
 ! D162  D(61,58,60,64)        -63.231                                          !
 ! D163  D(61,58,60,80)        117.1747                                         !
 ! D164  D(56,58,61,62)         62.1836                                         !
 ! D165  D(56,58,61,63)        -50.6478                                         !
 ! D166  D(56,58,61,65)       -170.1065                                         !
 ! D167  D(59,58,61,62)        176.9423                                         !
 ! D168  D(59,58,61,63)         64.111                                          !
 ! D169  D(59,58,61,65)        -55.3477                                         !
 ! D170  D(60,58,61,62)        -66.0159                                         !
 ! D171  D(60,58,61,63)       -178.8472                                         !
 ! D172  D(60,58,61,65)         61.6941                                         !
 ! D173  D(58,60,80,81)        178.2081                                         !
 ! D174  D(64,60,80,81)         -1.3956                                         !
 ! D175  D(58,61,65,66)         31.9259                                         !
 ! D176  D(58,61,65,67)        148.3065                                         !
 ! D177  D(58,61,65,68)        -92.016                                          !
 ! D178  D(62,61,65,66)        159.237                                          !
 ! D179  D(62,61,65,67)        -84.3824                                         !
 ! D180  D(62,61,65,68)         35.2951                                         !
 ! D181  D(63,61,65,66)        -85.5233                                         !
 ! D182  D(63,61,65,67)         30.8573                                         !
 ! D183  D(63,61,65,68)        150.5348                                         !
 ! D184  D(61,65,68,69)        -67.2611                                         !
 ! D185  D(61,65,68,70)         52.739                                          !
 ! D186  D(61,65,68,71)        174.3073                                         !
 ! D187  D(66,65,68,69)        168.8794                                         !
 ! D188  D(66,65,68,70)        -71.1204                                         !
 ! D189  D(66,65,68,71)         50.4478                                         !
 ! D190  D(67,65,68,69)         53.0862                                         !
 ! D191  D(67,65,68,70)        173.0863                                         !
 ! D192  D(67,65,68,71)        -65.3454                                         !
 ! D193  D(65,68,71,72)         75.4942                                         !
 ! D194  D(65,68,71,79)        -80.5873                                         !
 ! D195  D(69,68,71,72)        -44.7363                                         !
 ! D196  D(69,68,71,79)        159.1822                                         !
 ! D197  D(70,68,71,72)       -160.1238                                         !
 ! D198  D(70,68,71,79)         43.7947                                         !
 ! D199  D(68,71,79,73)         -3.5886                                         !
 ! D200  D(68,71,79,76)        176.7851                                         !
 ! D201  D(72,71,79,73)       -159.2273                                         !
 ! D202  D(72,71,79,76)         21.1464                                         !
 ! D203  D(74,73,79,71)       -165.5611                                         !
 ! D204  D(74,73,79,76)         14.0629                                         !
 ! D205  D(75,73,79,71)          6.9975                                         !
 ! D206  D(75,73,79,76)       -173.3786                                         !
 ! D207  D(77,76,79,71)         16.0208                                         !
 ! D208  D(77,76,79,73)       -163.6111                                         !
 ! D209  D(78,76,79,71)       -173.6446                                         !
 ! D210  D(78,76,79,73)          6.7235                                         !
 --------------------------------------------------------------------------------
 Symmetry turned off by external request.
 Stoichiometry    C26H39N8O8(1+)
 Framework group  C1[X(C26H39N8O8)]
 Deg. of freedom   237
 Full point group                 C1      NOp   1
                          Input orientation:                          
 ---------------------------------------------------------------------
 Center     Atomic      Atomic             Coordinates (Angstroms)
 Number     Number       Type             X           Y           Z
 ---------------------------------------------------------------------
      1          7           0       -1.329942   -2.524535    2.504536
      2          1           0       -1.201293   -3.050051    1.640067
      3          1           0        0.170000   -1.458230    2.877192
      4          1           0       -1.601350   -3.178584    3.234367
      5          6           0       -2.401398   -1.535027    2.276625
      6          1           0       -3.399832   -2.000089    2.292232
      7          6           0       -2.129742   -0.997523    0.858144
      8          6           0       -2.329668   -0.400173    3.320595
      9          1           0       -1.514945    0.267272    3.029773
     10          1           0       -3.262283    0.178124    3.295783
     11          8           0       -1.486809   -1.672536    0.049325
     12          6           0       -2.077811   -0.844995    4.773731
     13          1           0       -1.308896   -1.623924    4.801395
     14          1           0       -2.985099   -1.225185    5.247387
     15          6           0       -1.579041    0.356583    5.577631
     16          8           0       -2.262284    0.952270    6.375022
     17          8           0       -0.314964    0.740487    5.304936
     18          7           0       -2.508582    0.277423    0.573263
     19          1           0       -2.903683    0.828171    1.324903
     20          6           0       -1.768394    1.045282   -0.438033
     21          1           0       -1.523016    0.343389   -1.237796
     22          6           0       -0.456350    1.528057    0.225349
     23          6           0       -2.624025    2.197080   -0.967588
     24          1           0       -2.803962    2.904424   -0.151020
     25          1           0       -3.594530    1.767237   -1.246014
     26          8           0       -0.204532    2.719060    0.416025
     27          6           0       -2.051992    2.948694   -2.134745
     28          6           0       -1.826853    4.300461   -2.167105
     29          1           0       -1.931597    5.027532   -1.374509
     30          6           0       -1.760646    2.454630   -3.462837
     31          6           0       -1.395908    3.580052   -4.258465
     32          6           0       -1.779348    1.184867   -4.067253
     33          1           0       -2.060168    0.303678   -3.497561
     34          7           0       -1.403969    4.686876   -3.429985
     35          1           0       -1.367976    5.644688   -3.745984
     36          6           0       -1.132161    2.200079   -6.189190
     37          1           0       -0.942602    2.081363   -7.252877
     38          6           0       -1.101815    3.471849   -5.621731
     39          1           0       -0.892632    4.353995   -6.222982
     40          6           0       -1.456408    1.066574   -5.414604
     41          1           0       -1.479735    0.089582   -5.887033
     42          7           0        0.361648    0.517109    0.618657
     43          1           0        0.124971   -0.431312    0.342844
     44          6           0        1.580626    0.722105    1.405158
     45          1           0        1.424543    1.611201    2.023241
     46          6           0        2.680450    0.965593    0.360836
     47          6           0        1.858673   -0.487348    2.314984
     48          1           0        2.012998   -1.368009    1.679423
     49          8           0        3.434090    0.088392   -0.038213
     50          6           0        3.094775   -0.257029    3.173726
     51          1           0        3.981254   -0.111770    2.551442
     52          1           0        3.256935   -1.124208    3.819185
     53          1           0        2.953861    0.621455    3.813647
     54          8           0        0.736785   -0.702197    3.170367
     55          1           0        0.107092    0.167524    4.627355
     56          7           0        2.618495    2.224240   -0.188624
     57          1           0        1.820307    2.784468    0.111625
     58          6           0        3.030778    2.391029   -1.565982
     59          1           0        3.597585    1.488626   -1.825748
     60          6           0        3.997553    3.542179   -1.779504
     61          6           0        1.759868    2.442785   -2.454458
     62          1           0        1.145011    3.307751   -2.178211
     63          1           0        1.183313    1.564132   -2.153405
     64          8           0        4.582813    3.756322   -2.837105
     65          6           0        1.961542    2.381869   -3.969823
     66          1           0        2.841841    1.772627   -4.205588
     67          1           0        1.100900    1.875795   -4.417941
     68          6           0        2.081862    3.757425   -4.630413
     69          1           0        1.132396    4.287662   -4.563753
     70          1           0        2.839932    4.385528   -4.164941
     71          7           0        2.407223    3.636924   -6.057059
     72          1           0        1.639498    3.354237   -6.656627
     73          7           0        4.684914    3.364496   -5.662628
     74          1           0        5.627451    3.417094   -6.021988
     75          1           0        4.577878    3.382890   -4.641632
     76          7           0        3.853056    3.254088   -7.824884
     77          1           0        3.149466    3.527456   -8.494915
     78          1           0        4.758686    2.993114   -8.185883
     79          6           0        3.649796    3.417099   -6.501957
     80          8           0        4.175553    4.314856   -0.712034
     81          1           0        4.831730    4.999241   -0.949443
 ---------------------------------------------------------------------
 Rotational constants (GHZ):           0.1322010           0.0484130           0.0409336
 Standard basis: 6-31G(d) (6D, 7F)
   708 basis functions,  1332 primitive gaussians,   708 cartesian basis functions
   157 alpha electrons      157 beta electrons
       nuclear repulsion energy      5478.9604724006 Hartrees.
 NAtoms=   81 NActive=   81 NUniq=   81 SFac= 1.00D+00 NAtFMM=   60 NAOKFM=T Big=T
 Integral buffers will be    131072 words long.
 Raffenetti 2 integral format.
 Two-electron integral symmetry is turned off.
 Nuclear repulsion after empirical dispersion term =     5478.7681235867 Hartrees.
 One-electron integrals computed using PRISM.
 NBasis=   708 RedAO= T EigKep=  3.64D-04  NBF=   708
 NBsUse=   708 1.00D-06 EigRej= -1.00D+00 NBFU=   708
 Initial guess from the checkpoint file:  "conf-90.chk"
 B after Tr=     0.000000    0.000000    0.000000
         Rot=    1.000000    0.000000    0.000000    0.000000 Ang=   0.00 deg.
 Requested convergence on RMS density matrix=1.00D-08 within 128 cycles.
 Requested convergence on MAX density matrix=1.00D-06.
 Requested convergence on             energy=1.00D-06.
 No special actions if energy rises.
 SCF Done:  E(RB3LYP) =  -2054.13727274     A.U. after    1 cycles
            NFock=  1  Conv=0.51D-08     -V/T= 2.0093

 **********************************************************************

            Population analysis using the SCF Density.

 **********************************************************************

 Alpha  occ. eigenvalues --  -19.31385 -19.26391 -19.21972 -19.21857 -19.21805
 Alpha  occ. eigenvalues --  -19.21701 -19.20515 -19.16727 -14.52567 -14.52092
 Alpha  occ. eigenvalues --  -14.51388 -14.47624 -14.46049 -14.45259 -14.44080
 Alpha  occ. eigenvalues --  -14.41944 -10.48561 -10.44221 -10.38803 -10.38339
 Alpha  occ. eigenvalues --  -10.37305 -10.35569 -10.34820 -10.34035 -10.33017
 Alpha  occ. eigenvalues --  -10.32105 -10.31885 -10.31842 -10.31420 -10.31074
 Alpha  occ. eigenvalues --  -10.30008 -10.29934 -10.29268 -10.28713 -10.28532
 Alpha  occ. eigenvalues --  -10.28327 -10.28236 -10.27783 -10.27668 -10.27575
 Alpha  occ. eigenvalues --  -10.26165 -10.23950  -1.22807  -1.17031  -1.14324
 Alpha  occ. eigenvalues --   -1.13373  -1.13267  -1.12865  -1.12238  -1.09148
 Alpha  occ. eigenvalues --   -1.07382  -1.06370  -1.04953  -1.04793  -1.02944
 Alpha  occ. eigenvalues --   -1.02117  -1.01081  -0.98579  -0.93700  -0.91404
 Alpha  occ. eigenvalues --   -0.90210  -0.87454  -0.86759  -0.85606  -0.84607
 Alpha  occ. eigenvalues --   -0.83193  -0.81715  -0.81630  -0.78865  -0.78631
 Alpha  occ. eigenvalues --   -0.78443  -0.74675  -0.74415  -0.73763  -0.71848
 Alpha  occ. eigenvalues --   -0.71378  -0.70695  -0.70365  -0.69357  -0.68998
 Alpha  occ. eigenvalues --   -0.67748  -0.67224  -0.66557  -0.65914  -0.65311
 Alpha  occ. eigenvalues --   -0.64840  -0.64632  -0.63758  -0.63048  -0.62832
 Alpha  occ. eigenvalues --   -0.61185  -0.60510  -0.60146  -0.60101  -0.59499
 Alpha  occ. eigenvalues --   -0.58752  -0.58142  -0.58024  -0.57369  -0.57096
 Alpha  occ. eigenvalues --   -0.56622  -0.56499  -0.56371  -0.55520  -0.54568
 Alpha  occ. eigenvalues --   -0.53904  -0.53431  -0.53206  -0.52868  -0.52282
 Alpha  occ. eigenvalues --   -0.52027  -0.51801  -0.51452  -0.51076  -0.50691
 Alpha  occ. eigenvalues --   -0.50185  -0.49499  -0.48989  -0.48804  -0.48642
 Alpha  occ. eigenvalues --   -0.48445  -0.47825  -0.47520  -0.47206  -0.47028
 Alpha  occ. eigenvalues --   -0.46767  -0.46506  -0.46313  -0.45748  -0.45413
 Alpha  occ. eigenvalues --   -0.45302  -0.44844  -0.44363  -0.43841  -0.43776
 Alpha  occ. eigenvalues --   -0.43345  -0.43208  -0.42839  -0.42724  -0.42558
 Alpha  occ. eigenvalues --   -0.41325  -0.40975  -0.40171  -0.38975  -0.37910
 Alpha  occ. eigenvalues --   -0.37245  -0.36609  -0.36117  -0.35550  -0.34779
 Alpha  occ. eigenvalues --   -0.34496  -0.34413  -0.33589  -0.32666  -0.32072
 Alpha  occ. eigenvalues --   -0.30381  -0.29872
 Alpha virt. eigenvalues --   -0.12489  -0.11431  -0.11077  -0.10166  -0.08823
 Alpha virt. eigenvalues --   -0.07624  -0.07450  -0.05579  -0.04372  -0.03980
 Alpha virt. eigenvalues --   -0.03269  -0.02863  -0.02810  -0.01628  -0.01457
 Alpha virt. eigenvalues --   -0.01008  -0.00283   0.00355   0.01537   0.01680
 Alpha virt. eigenvalues --    0.02547   0.02979   0.03156   0.03686   0.03844
 Alpha virt. eigenvalues --    0.04093   0.04722   0.05030   0.05160   0.05548
 Alpha virt. eigenvalues --    0.05741   0.06172   0.06750   0.06911   0.07450
 Alpha virt. eigenvalues --    0.07517   0.07888   0.08298   0.08731   0.08802
 Alpha virt. eigenvalues --    0.08883   0.09454   0.09667   0.09921   0.10282
 Alpha virt. eigenvalues --    0.10757   0.11159   0.11698   0.11949   0.12181
 Alpha virt. eigenvalues --    0.12386   0.12829   0.12957   0.13404   0.13883
 Alpha virt. eigenvalues --    0.14309   0.14807   0.15209   0.15421   0.15722
 Alpha virt. eigenvalues --    0.16020   0.17236   0.17380   0.17798   0.18011
 Alpha virt. eigenvalues --    0.18433   0.18988   0.19098   0.19504   0.20330
 Alpha virt. eigenvalues --    0.20959   0.21618   0.22051   0.22493   0.22996
 Alpha virt. eigenvalues --    0.23515   0.24615   0.25141   0.25884   0.26301
 Alpha virt. eigenvalues --    0.28265   0.28968   0.29812   0.30254   0.31731
 Alpha virt. eigenvalues --    0.32066   0.32671   0.33208   0.34037   0.34948
 Alpha virt. eigenvalues --    0.36794   0.37130   0.38433   0.39230   0.39710
 Alpha virt. eigenvalues --    0.41180   0.41551   0.42051   0.42540   0.43096
 Alpha virt. eigenvalues --    0.43460   0.43776   0.44370   0.44639   0.45485
 Alpha virt. eigenvalues --    0.45496   0.46042   0.46562   0.46724   0.46881
 Alpha virt. eigenvalues --    0.47258   0.47399   0.47950   0.48427   0.48831
 Alpha virt. eigenvalues --    0.49548   0.50122   0.50317   0.50622   0.51161
 Alpha virt. eigenvalues --    0.51564   0.51779   0.51950   0.52304   0.52686
 Alpha virt. eigenvalues --    0.52889   0.52943   0.53339   0.54040   0.54074
 Alpha virt. eigenvalues --    0.54532   0.54694   0.55319   0.55478   0.56104
 Alpha virt. eigenvalues --    0.56385   0.57053   0.57101   0.57497   0.57760
 Alpha virt. eigenvalues --    0.58075   0.58734   0.59100   0.59716   0.60165
 Alpha virt. eigenvalues --    0.60706   0.61120   0.61422   0.61776   0.62468
 Alpha virt. eigenvalues --    0.62842   0.63576   0.63778   0.64398   0.65320
 Alpha virt. eigenvalues --    0.65700   0.65904   0.67105   0.68050   0.68350
 Alpha virt. eigenvalues --    0.68437   0.69049   0.69758   0.70048   0.71007
 Alpha virt. eigenvalues --    0.71598   0.71846   0.72069   0.72242   0.72517
 Alpha virt. eigenvalues --    0.73253   0.73339   0.73582   0.74205   0.74669
 Alpha virt. eigenvalues --    0.74797   0.75075   0.75375   0.75709   0.76019
 Alpha virt. eigenvalues --    0.76345   0.77027   0.77085   0.77266   0.77618
 Alpha virt. eigenvalues --    0.78024   0.78567   0.79192   0.79538   0.80035
 Alpha virt. eigenvalues --    0.80285   0.80940   0.81256   0.81588   0.81910
 Alpha virt. eigenvalues --    0.82142   0.82708   0.82893   0.82956   0.83747
 Alpha virt. eigenvalues --    0.84443   0.84645   0.84867   0.85315   0.85450
 Alpha virt. eigenvalues --    0.85880   0.86447   0.86847   0.87067   0.87550
 Alpha virt. eigenvalues --    0.87841   0.88349   0.89054   0.89638   0.89963
 Alpha virt. eigenvalues --    0.90454   0.90826   0.91106   0.92592   0.93170
 Alpha virt. eigenvalues --    0.93851   0.94091   0.94574   0.95249   0.96131
 Alpha virt. eigenvalues --    0.96778   0.97346   0.97604   0.98190   0.98386
 Alpha virt. eigenvalues --    0.98845   0.99961   1.00402   1.00660   1.01077
 Alpha virt. eigenvalues --    1.01371   1.01821   1.03313   1.03883   1.04037
 Alpha virt. eigenvalues --    1.04090   1.05340   1.05971   1.06586   1.06854
 Alpha virt. eigenvalues --    1.07935   1.08623   1.09273   1.10014   1.10389
 Alpha virt. eigenvalues --    1.11993   1.13180   1.13970   1.14030   1.14828
 Alpha virt. eigenvalues --    1.15720   1.15950   1.16906   1.17059   1.17800
 Alpha virt. eigenvalues --    1.18431   1.18532   1.19189   1.19623   1.20863
 Alpha virt. eigenvalues --    1.21323   1.22007   1.23215   1.23930   1.24501
 Alpha virt. eigenvalues --    1.25245   1.25685   1.26372   1.26793   1.27778
 Alpha virt. eigenvalues --    1.28989   1.29997   1.30221   1.30417   1.30931
 Alpha virt. eigenvalues --    1.31391   1.32609   1.32636   1.34650   1.35377
 Alpha virt. eigenvalues --    1.35607   1.36358   1.36961   1.37969   1.39204
 Alpha virt. eigenvalues --    1.39475   1.40025   1.40310   1.41215   1.41993
 Alpha virt. eigenvalues --    1.42537   1.43048   1.43778   1.44166   1.44811
 Alpha virt. eigenvalues --    1.45322   1.46646   1.47987   1.49193   1.50036
 Alpha virt. eigenvalues --    1.50471   1.51241   1.52193   1.53505   1.53968
 Alpha virt. eigenvalues --    1.55262   1.55641   1.56791   1.57198   1.57941
 Alpha virt. eigenvalues --    1.59311   1.59590   1.60283   1.60739   1.61910
 Alpha virt. eigenvalues --    1.62459   1.63280   1.64362   1.64934   1.65551
 Alpha virt. eigenvalues --    1.65657   1.66678   1.67057   1.67254   1.68226
 Alpha virt. eigenvalues --    1.68428   1.68940   1.69270   1.70799   1.71273
 Alpha virt. eigenvalues --    1.71439   1.71684   1.71960   1.72590   1.72970
 Alpha virt. eigenvalues --    1.73807   1.74110   1.74664   1.75051   1.75787
 Alpha virt. eigenvalues --    1.76340   1.76924   1.77538   1.77891   1.78052
 Alpha virt. eigenvalues --    1.78671   1.79111   1.79419   1.80325   1.80580
 Alpha virt. eigenvalues --    1.81164   1.81737   1.82065   1.82631   1.83154
 Alpha virt. eigenvalues --    1.83262   1.83896   1.84211   1.84424   1.84913
 Alpha virt. eigenvalues --    1.85587   1.85743   1.86844   1.87224   1.87998
 Alpha virt. eigenvalues --    1.88752   1.89282   1.90611   1.90991   1.91539
 Alpha virt. eigenvalues --    1.92044   1.92799   1.93307   1.93749   1.94087
 Alpha virt. eigenvalues --    1.94558   1.95153   1.95521   1.96212   1.97206
 Alpha virt. eigenvalues --    1.97480   1.98370   1.98872   1.99058   1.99668
 Alpha virt. eigenvalues --    2.00525   2.01380   2.01613   2.02450   2.03297
 Alpha virt. eigenvalues --    2.04128   2.04375   2.05007   2.05819   2.07460
 Alpha virt. eigenvalues --    2.08111   2.08875   2.09635   2.10022   2.10406
 Alpha virt. eigenvalues --    2.11304   2.12141   2.13263   2.13882   2.14524
 Alpha virt. eigenvalues --    2.15396   2.15681   2.15895   2.17126   2.17627
 Alpha virt. eigenvalues --    2.19220   2.19638   2.20198   2.20954   2.22945
 Alpha virt. eigenvalues --    2.23383   2.23628   2.24969   2.26046   2.26678
 Alpha virt. eigenvalues --    2.28743   2.29109   2.29609   2.29888   2.30447
 Alpha virt. eigenvalues --    2.30731   2.31416   2.33307   2.33613   2.34724
 Alpha virt. eigenvalues --    2.34980   2.35860   2.36322   2.38010   2.38135
 Alpha virt. eigenvalues --    2.39367   2.39429   2.39945   2.40580   2.41421
 Alpha virt. eigenvalues --    2.42453   2.43310   2.44903   2.45039   2.45304
 Alpha virt. eigenvalues --    2.46415   2.47105   2.47682   2.49006   2.49561
 Alpha virt. eigenvalues --    2.50678   2.50782   2.51568   2.51789   2.52455
 Alpha virt. eigenvalues --    2.52916   2.55556   2.55903   2.56288   2.57914
 Alpha virt. eigenvalues --    2.58568   2.58634   2.59550   2.60384   2.60462
 Alpha virt. eigenvalues --    2.61218   2.61775   2.63001   2.63375   2.64034
 Alpha virt. eigenvalues --    2.64650   2.65395   2.68562   2.69400   2.70344
 Alpha virt. eigenvalues --    2.71070   2.72926   2.73526   2.74997   2.76831
 Alpha virt. eigenvalues --    2.78761   2.79824   2.80827   2.83070   2.84355
 Alpha virt. eigenvalues --    2.85981   2.88088   2.89678   2.91035   2.91107
 Alpha virt. eigenvalues --    2.92375   2.93153   2.93263   2.94857   2.96120
 Alpha virt. eigenvalues --    2.96941   3.01890   3.02382   3.04486   3.04795
 Alpha virt. eigenvalues --    3.06168   3.08979   3.15612   3.34182   3.65527
 Alpha virt. eigenvalues --    3.72508   3.79679   3.80718   3.88252   3.89222
 Alpha virt. eigenvalues --    3.92998   3.95009   3.97667   3.99303   4.01477
 Alpha virt. eigenvalues --    4.04204   4.05540   4.07254   4.08400   4.08621
 Alpha virt. eigenvalues --    4.09382   4.10485   4.11869   4.12459   4.17294
 Alpha virt. eigenvalues --    4.17884   4.20353   4.20862   4.21840   4.25301
 Alpha virt. eigenvalues --    4.27837   4.29553   4.30925   4.31287   4.32757
 Alpha virt. eigenvalues --    4.39146   4.42066   4.45281   4.46410   4.48889
 Alpha virt. eigenvalues --    4.52293   4.55920   4.58226   4.61253   4.62207
 Alpha virt. eigenvalues --    4.70997
          Condensed to atoms (all electrons):
 Mulliken charges:
               1
     1  N   -0.775276
     2  H    0.350512
     3  H    0.458665
     4  H    0.332141
     5  C   -0.056955
     6  H    0.176976
     7  C    0.615661
     8  C   -0.323268
     9  H    0.171523
    10  H    0.161620
    11  O   -0.539331
    12  C   -0.377652
    13  H    0.161618
    14  H    0.180078
    15  C    0.577835
    16  O   -0.441160
    17  O   -0.603524
    18  N   -0.585424
    19  H    0.348823
    20  C   -0.093113
    21  H    0.198465
    22  C    0.633938
    23  C   -0.354673
    24  H    0.166697
    25  H    0.176847
    26  O   -0.543548
    27  C    0.083008
    28  C    0.003062
    29  H    0.179190
    30  C    0.076979
    31  C    0.309785
    32  C   -0.219719
    33  H    0.153170
    34  N   -0.689463
    35  H    0.339464
    36  C   -0.167897
    37  H    0.131444
    38  C   -0.206585
    39  H    0.132025
    40  C   -0.143126
    41  H    0.146598
    42  N   -0.627831
    43  H    0.371614
    44  C   -0.067065
    45  H    0.190299
    46  C    0.622523
    47  C    0.114266
    48  H    0.150556
    49  O   -0.513394
    50  C   -0.467037
    51  H    0.174740
    52  H    0.169550
    53  H    0.162326
    54  O   -0.694985
    55  H    0.452056
    56  N   -0.600447
    57  H    0.372518
    58  C   -0.086283
    59  H    0.219039
    60  C    0.618576
    61  C   -0.295173
    62  H    0.177971
    63  H    0.175899
    64  O   -0.515392
    65  C   -0.287542
    66  H    0.149627
    67  H    0.186974
    68  C   -0.191033
    69  H    0.186916
    70  H    0.190010
    71  N   -0.590297
    72  H    0.355841
    73  N   -0.791588
    74  H    0.371583
    75  H    0.447756
    76  N   -0.769993
    77  H    0.380971
    78  H    0.381214
    79  C    0.818269
    80  O   -0.516618
    81  H    0.428173
 Sum of Mulliken charges =   1.00000
 Mulliken charges with hydrogens summed into heavy atoms:
               1
     1  N   -0.092623
     5  C    0.120021
     7  C    0.615661
     8  C    0.009875
    11  O   -0.539331
    12  C   -0.035956
    15  C    0.577835
    16  O   -0.441160
    17  O   -0.151467
    18  N   -0.236602
    20  C    0.105351
    22  C    0.633938
    23  C   -0.011129
    26  O   -0.543548
    27  C    0.083008
    28  C    0.182253
    30  C    0.076979
    31  C    0.309785
    32  C   -0.066549
    34  N   -0.349999
    36  C   -0.036453
    38  C   -0.074560
    40  C    0.003472
    42  N   -0.256217
    44  C    0.123234
    46  C    0.622523
    47  C    0.264821
    49  O   -0.513394
    50  C    0.039579
    54  O   -0.236320
    56  N   -0.227929
    58  C    0.132757
    60  C    0.618576
    61  C    0.058697
    64  O   -0.515392
    65  C    0.049059
    68  C    0.185893
    71  N   -0.234456
    73  N    0.027751
    76  N   -0.007808
    79  C    0.818269
    80  O   -0.088445
 Electronic spatial extent (au):  <R**2>=          29784.4106
 Charge=              1.0000 electrons
 Dipole moment (field-independent basis, Debye):
    X=              9.8381    Y=             13.3266    Z=            -27.3955  Tot=             32.0140
 Quadrupole moment (field-independent basis, Debye-Ang):
   XX=           -173.8190   YY=           -161.2250   ZZ=            -99.4986
   XY=             55.4375   XZ=            -78.8787   YZ=           -115.7970
 Traceless Quadrupole moment (field-independent basis, Debye-Ang):
   XX=            -28.9715   YY=            -16.3774   ZZ=             45.3489
   XY=             55.4375   XZ=            -78.8787   YZ=           -115.7970
 Octapole moment (field-independent basis, Debye-Ang**2):
  XXX=             25.5050  YYY=           -802.3205  ZZZ=           -979.4188  XYY=             61.6468
  XXY=           -134.3945  XXZ=           -145.9376  XZZ=            606.0233  YZZ=             99.1797
  YYZ=           -112.2465  XYZ=           -231.3463
 Hexadecapole moment (field-independent basis, Debye-Ang**3):
 XXXX=          -7017.4708 YYYY=          -6910.2457 ZZZZ=         -11968.3499 XXXY=           -261.0895
 XXXZ=            167.9509 YYYX=           -999.3441 YYYZ=           2869.4004 ZZZX=          -1988.6107
 ZZZY=           -734.2346 XXYY=          -1899.1753 XXZZ=          -2260.0786 YYZZ=          -2751.5187
 XXYZ=            143.0636 YYXZ=            -99.2637 ZZXY=           1670.5532
 N-N= 5.478768123587D+03 E-N=-1.571656277945D+04  KE= 2.035263394814D+03
 Unable to Open any file for archive entry.
 1\1\GINC-LAC-309\SP\RB3LYP\6-31G(d)\C26H39N8O8(1+)\KENGMITH\24-Jun-202
 2\0\\# B3LYP/6-31G* empiricaldispersion=gd3bj guess=read geom=check no
 symm integral(ultrafinegrid)\\Candidate Structure: Conf:90 Charge calc
  in gas phase\\1,1\N,0,-1.3299415932,-2.5245353545,2.504535523\H,0,-1.
 2012925048,-3.0500506148,1.6400665255\H,0,0.1699998689,-1.4582300064,2
 .8771917147\H,0,-1.6013500861,-3.1785839715,3.2343666126\C,0,-2.401397
 5991,-1.5350266161,2.276625471\H,0,-3.3998323005,-2.00008917,2.2922322
 162\C,0,-2.1297419783,-0.9975231347,0.8581436559\C,0,-2.3296676142,-0.
 4001729519,3.3205949324\H,0,-1.5149454666,0.2672716271,3.0297732718\H,
 0,-3.2622834865,0.1781238634,3.2957833109\O,0,-1.4868085195,-1.6725362
 635,0.0493254429\C,0,-2.077811293,-0.8449949527,4.7737306253\H,0,-1.30
 88962989,-1.6239244779,4.801395039\H,0,-2.9850991556,-1.2251848336,5.2
 473871359\C,0,-1.5790409831,0.3565828821,5.5776311786\O,0,-2.262284137
 2,0.9522702512,6.3750217227\O,0,-0.3149640242,0.7404872626,5.304936086
 \N,0,-2.508581984,0.2774225293,0.5732628657\H,0,-2.9036826357,0.828171
 4672,1.3249026424\C,0,-1.7683944155,1.0452824946,-0.438032958\H,0,-1.5
 230160034,0.3433888056,-1.2377961244\C,0,-0.4563496772,1.5280573771,0.
 2253491674\C,0,-2.6240253138,2.197080442,-0.9675879779\H,0,-2.80396202
 67,2.9044243681,-0.1510195044\H,0,-3.5945300454,1.7672369262,-1.246014
 094\O,0,-0.2045324175,2.7190596377,0.4160249224\C,0,-2.0519924791,2.94
 86944919,-2.134745167\C,0,-1.8268527775,4.3004606491,-2.1671053112\H,0
 ,-1.9315967186,5.027532159,-1.3745088228\C,0,-1.7606460711,2.454629855
 3,-3.4628369316\C,0,-1.3959081504,3.5800519164,-4.2584647116\C,0,-1.77
 93482711,1.1848671219,-4.0672529632\H,0,-2.0601677644,0.3036778153,-3.
 4975607508\N,0,-1.4039685655,4.6868761206,-3.429984632\H,0,-1.36797600
 37,5.6446877644,-3.7459843068\C,0,-1.1321613286,2.2000789054,-6.189189
 8894\H,0,-0.9426018886,2.0813627908,-7.2528771538\C,0,-1.1018154366,3.
 4718486603,-5.6217305052\H,0,-0.8926324416,4.3539952312,-6.2229824671\
 C,0,-1.4564081671,1.0665743902,-5.4146038591\H,0,-1.4797350685,0.08958
 16262,-5.8870334903\N,0,0.3616484822,0.5171086798,0.6186570424\H,0,0.1
 249712509,-0.4313118822,0.3428436845\C,0,1.5806264317,0.7221053966,1.4
 05157578\H,0,1.4245426601,1.6112013014,2.0232411281\C,0,2.680449902,0.
 9655928707,0.3608358033\C,0,1.8586730931,-0.487347876,2.3149840509\H,0
 ,2.0129975464,-1.3680092513,1.6794234608\O,0,3.4340901062,0.0883919348
 ,-0.0382134959\C,0,3.0947750317,-0.2570289403,3.1737262592\H,0,3.98125
 40939,-0.1117695038,2.5514415628\H,0,3.2569346814,-1.1242084639,3.8191
 851201\H,0,2.9538613275,0.6214549534,3.8136465464\O,0,0.7367851499,-0.
 7021973698,3.1703673185\H,0,0.1070917272,0.1675236818,4.6273546056\N,0
 ,2.6184950289,2.2242399269,-0.1886236117\H,0,1.8203071703,2.7844682259
 ,0.1116250697\C,0,3.0307778519,2.3910293337,-1.5659821768\H,0,3.597585
 2669,1.4886256941,-1.8257483598\C,0,3.9975531151,3.5421793348,-1.77950
 37912\C,0,1.7598677806,2.4427850077,-2.4544576174\H,0,1.1450114075,3.3
 077514597,-2.1782110894\H,0,1.1833126001,1.564132351,-2.1534047091\O,0
 ,4.5828131596,3.7563222671,-2.8371052433\C,0,1.9615417885,2.3818694699
 ,-3.9698230719\H,0,2.841841425,1.772627463,-4.2055883282\H,0,1.1009002
 638,1.8757946998,-4.4179406053\C,0,2.081862454,3.7574248091,-4.6304132
 874\H,0,1.1323956308,4.2876624598,-4.5637528502\H,0,2.8399323453,4.385
 5278809,-4.1649411464\N,0,2.4072231029,3.6369238535,-6.0570586671\H,0,
 1.6394979458,3.3542365595,-6.6566272788\N,0,4.6849140185,3.364495599,-
 5.6626277669\H,0,5.6274511445,3.4170935372,-6.0219880372\H,0,4.5778778
 963,3.3828897884,-4.6416324076\N,0,3.8530564572,3.2540882417,-7.824884
 4981\H,0,3.1494662251,3.5274557939,-8.4949154439\H,0,4.758686149,2.993
 1140584,-8.1858827802\C,0,3.6497964884,3.4170994879,-6.5019569728\O,0,
 4.1755528621,4.3148559957,-0.7120343883\H,0,4.8317297911,4.9992411858,
 -0.9494429069\\Version=ES64L-G16RevC.01\HF=-2054.1372727\RMSD=5.099e-0
 9\Dipole=3.0516252,2.2916341,-9.1414846\Quadrupole=-21.5395933,-12.176
 2285,33.7158217,41.2163952,-58.6443906,-86.0922162\PG=C01 [X(C26H39N8O
 8)]\\@
 The archive entry for this job was punched.


 WOE UNTO THEM THAT CALL EVIL GOOD, AND GOOD EVIL      
 Job cpu time:       0 days  0 hours  2 minutes 47.1 seconds.
 Elapsed time:       0 days  0 hours  0 minutes 42.4 seconds.
 File lengths (MBytes):  RWF=    376 Int=      0 D2E=      0 Chk=     56 Scr=     16
 Normal termination of Gaussian 16 at Fri Jun 24 06:34:44 2022.
