 Entering Gaussian System, Link 0=/opt/software/Gaussian/g16-AVX2-C.01/g16/g16
 Input=charge-conf-807.com
 Output=charge-conf-807.log
 Initial command:
 /opt/software/Gaussian/g16-AVX2-C.01/g16/l1.exe "/mnt/gs18/scratch/users/kengmith/Gau-5449.inp" -scrdir="/mnt/gs18/scratch/users/kengmith/"
 Entering Link 1 = /opt/software/Gaussian/g16-AVX2-C.01/g16/l1.exe PID=      5495.
  
 Copyright (c) 1988-2019, Gaussian, Inc.  All Rights Reserved.
  
 This is part of the Gaussian(R) 16 program.  It is based on
 the Gaussian(R) 09 system (copyright 2009, Gaussian, Inc.),
 the Gaussian(R) 03 system (copyright 2003, Gaussian, Inc.),
 the Gaussian(R) 98 system (copyright 1998, Gaussian, Inc.),
 the Gaussian(R) 94 system (copyright 1995, Gaussian, Inc.),
 the Gaussian 92(TM) system (copyright 1992, Gaussian, Inc.),
 the Gaussian 90(TM) system (copyright 1990, Gaussian, Inc.),
 the Gaussian 88(TM) system (copyright 1988, Gaussian, Inc.),
 the Gaussian 86(TM) system (copyright 1986, Carnegie Mellon
 University), and the Gaussian 82(TM) system (copyright 1983,
 Carnegie Mellon University). Gaussian is a federally registered
 trademark of Gaussian, Inc.
  
 This software contains proprietary and confidential information,
 including trade secrets, belonging to Gaussian, Inc.
  
 This software is provided under written license and may be
 used, copied, transmitted, or stored only in accord with that
 written license.
  
 The following legend is applicable only to US Government
 contracts under FAR:
  
                    RESTRICTED RIGHTS LEGEND
  
 Use, reproduction and disclosure by the US Government is
 subject to restrictions as set forth in subparagraphs (a)
 and (c) of the Commercial Computer Software - Restricted
 Rights clause in FAR 52.227-19.
  
 Gaussian, Inc.
 340 Quinnipiac St., Bldg. 40, Wallingford CT 06492
  
  
 ---------------------------------------------------------------
 Warning -- This program may not be used in any manner that
 competes with the business of Gaussian, Inc. or will provide
 assistance to any competitor of Gaussian, Inc.  The licensee
 of this program is prohibited from giving any competitor of
 Gaussian, Inc. access to this program.  By using this program,
 the user acknowledges that Gaussian, Inc. is engaged in the
 business of creating and licensing software in the field of
 computational chemistry and represents and warrants to the
 licensee that it is not a competitor of Gaussian, Inc. and that
 it will not use this program in any manner prohibited above.
 ---------------------------------------------------------------
  

 Cite this work as:
 Gaussian 16, Revision C.01,
 M. J. Frisch, G. W. Trucks, H. B. Schlegel, G. E. Scuseria, 
 M. A. Robb, J. R. Cheeseman, G. Scalmani, V. Barone, 
 G. A. Petersson, H. Nakatsuji, X. Li, M. Caricato, A. V. Marenich, 
 J. Bloino, B. G. Janesko, R. Gomperts, B. Mennucci, H. P. Hratchian, 
 J. V. Ortiz, A. F. Izmaylov, J. L. Sonnenberg, D. Williams-Young, 
 F. Ding, F. Lipparini, F. Egidi, J. Goings, B. Peng, A. Petrone, 
 T. Henderson, D. Ranasinghe, V. G. Zakrzewski, J. Gao, N. Rega, 
 G. Zheng, W. Liang, M. Hada, M. Ehara, K. Toyota, R. Fukuda, 
 J. Hasegawa, M. Ishida, T. Nakajima, Y. Honda, O. Kitao, H. Nakai, 
 T. Vreven, K. Throssell, J. A. Montgomery, Jr., J. E. Peralta, 
 F. Ogliaro, M. J. Bearpark, J. J. Heyd, E. N. Brothers, K. N. Kudin, 
 V. N. Staroverov, T. A. Keith, R. Kobayashi, J. Normand, 
 K. Raghavachari, A. P. Rendell, J. C. Burant, S. S. Iyengar, 
 J. Tomasi, M. Cossi, J. M. Millam, M. Klene, C. Adamo, R. Cammi, 
 J. W. Ochterski, R. L. Martin, K. Morokuma, O. Farkas, 
 J. B. Foresman, and D. J. Fox, Gaussian, Inc., Wallingford CT, 2019.
 
 ******************************************
 Gaussian 16:  ES64L-G16RevC.01  3-Jul-2019
                24-Jun-2022 
 ******************************************
 %mem=8gb
 %nproc=4
 Will use up to    4 processors via shared memory.
 %chk=conf-807.chk
 ----------------------------------------------------------------------
 # B3LYP/6-31G* empiricaldispersion=gd3bj guess=read geom=check nosymm 
 integral(ultrafinegrid)
 ----------------------------------------------------------------------
 1/29=2,38=1,172=1/1;
 2/12=2,15=1,40=1/2;
 3/5=1,6=6,7=1,11=2,14=-4,25=1,30=1,74=-5,75=-5,116=-2,124=41/1,2,3;
 4/5=1/1;
 5/5=2,38=6/2;
 6/7=2,8=2,9=2,10=2,28=1/1;
 99/5=1,9=1/99;
 ------------------------------------------------------
 Candidate Structure: Conf:807 Charge calc in gas phase
 ------------------------------------------------------
 Structure from the checkpoint file:  "conf-807.chk"
 Charge =  1 Multiplicity = 1
 Redundant internal coordinates found in file.  (old form).
 N,0,-5.324467245,-0.2715278734,1.7570398835
 H,0,-6.1368347823,0.3491329532,1.7387086019
 H,0,-5.1537950988,-0.8457258749,0.7209533632
 H,0,-5.3826436635,-0.8997477219,2.5581580684
 C,0,-4.0354847549,0.4973673095,1.6792855666
 H,0,-4.262351981,1.5588240364,1.7692072899
 C,0,-3.6293052307,0.2151356278,0.2138666081
 C,0,-3.0324776187,0.0422313602,2.7381976627
 H,0,-3.4207275031,0.2978779103,3.7308224169
 H,0,-2.9674586575,-1.05443926,2.6877839407
 O,0,-4.302254002,-0.7478220427,-0.3223152437
 C,0,-1.5995531322,0.589145515,2.5752656187
 H,0,-1.162051767,0.1816018733,1.6558266858
 H,0,-0.9969087806,0.2480026561,3.4191678697
 C,0,-1.4768559954,2.1255777334,2.5670229431
 O,0,-0.9923888275,2.7200519633,3.5025346885
 O,0,-1.9425212579,2.7770740061,1.4870697451
 N,0,-2.7396043626,1.0032181989,-0.2954639842
 H,0,-2.2816850257,2.1091464883,0.7302768654
 C,0,-2.5466300133,1.0324355182,-1.7452961786
 H,0,-2.9734063139,0.1391156401,-2.2103803836
 C,0,-1.068843176,1.0039874461,-2.1110518484
 C,0,-3.2834788946,2.2785370704,-2.3189479963
 H,0,-3.0645031494,2.3848708459,-3.3870603415
 H,0,-2.8800864203,3.1608937523,-1.810033313
 O,0,-0.7047570506,0.7206485821,-3.2517071225
 C,0,-4.7543743968,2.1494242989,-2.0506084971
 C,0,-5.6149032524,1.3156002974,-2.7194770381
 H,0,-5.4344125888,0.7030235598,-3.5932517987
 C,0,-5.4876079692,2.6798517631,-0.9284357406
 C,0,-6.7882426867,2.0953101453,-0.9638504353
 C,0,-5.1492162559,3.5156500495,0.1506188522
 H,0,-4.15512715,3.9411791018,0.2346393111
 N,0,-6.8333563539,1.2682229322,-2.0663683416
 H,0,-7.6686583926,0.8405017667,-2.4350333392
 C,0,-7.3814043654,3.1795977675,1.079873576
 H,0,-8.1028998081,3.3970799439,1.8619241315
 C,0,-7.7457866188,2.3427790242,0.0272837427
 H,0,-8.7379147062,1.9017414779,-0.0230156721
 C,0,-6.0955517625,3.7579543725,1.1406446275
 H,0,-5.8394971276,4.4001800569,1.9778728393
 N,0,-0.1668064158,1.2321787199,-1.1120222086
 H,0,-0.4408389814,1.711693684,-0.2607167552
 C,0,1.2520060086,1.1511838747,-1.3986202598
 H,0,1.5758226088,1.932061869,-2.0973200916
 C,0,1.5468296017,-0.194970088,-2.0855373098
 C,0,2.0270711589,1.2790451701,-0.0612060782
 H,0,1.9017472407,0.3417242666,0.4931773476
 O,0,2.3736641678,-0.3145870418,-2.9785733687
 C,0,3.5078296987,1.5508676373,-0.2926862231
 H,0,3.9518347338,0.7834998661,-0.9346404808
 H,0,4.0396933678,1.5763592962,0.6622509637
 H,0,3.6455894083,2.5169187352,-0.7943032723
 O,0,1.4174675062,2.250138383,0.776983639
 H,0,1.6147650937,3.1397826222,0.4401478923
 N,0,0.831444363,-1.2517563991,-1.5571466849
 H,0,0.105252982,-0.9404622681,-0.9225925411
 C,0,0.369763481,-2.309788605,-2.4495339186
 H,0,0.3651473012,-1.9010132505,-3.4703822734
 C,0,-1.0885004471,-2.6960967643,-2.1745454827
 C,0,1.2491177378,-3.5701822105,-2.429053184
 H,0,0.7438028916,-4.342102722,-3.0192564063
 H,0,1.3223157401,-3.9356496645,-1.3971612562
 O,0,-1.6278028295,-3.6492445922,-2.6843006113
 C,0,2.6406418756,-3.283538267,-2.9910882787
 H,0,2.5501032673,-2.8408954157,-3.9894035849
 H,0,3.1382257286,-2.5315555383,-2.3703686259
 C,0,3.5073848688,-4.5347274157,-3.0761901528
 H,0,3.6452178912,-4.9831691153,-2.0836960007
 H,0,3.049258983,-5.2808250114,-3.7355917606
 N,0,4.8195571146,-4.1553277174,-3.6336060426
 H,0,5.0315245693,-3.1647050131,-3.6395552571
 N,0,5.6087983665,-6.3161254705,-3.8879940295
 H,0,6.2156917629,-6.978958259,-4.3475951041
 H,0,4.8773720512,-6.6830665426,-3.297234845
 N,0,6.8482588771,-4.5351298857,-4.6832941693
 H,0,6.8931243043,-3.5932744107,-5.0415338101
 H,0,7.618748321,-5.1429758276,-4.9154645772
 C,0,5.7532325667,-4.9943719476,-4.0675466843
 O,0,-1.7086165022,-1.8491593026,-1.3241858368
 H,0,-2.6573640442,-2.0811777401,-1.2538200905
 Recover connectivity data from disk.
                           ----------------------------
                           !    Current Parameters    !
                           ! (Angstroms and Degrees)  !
 --------------------------                            --------------------------
 ! Name  Definition              Value                                          !
 --------------------------------------------------------------------------------
 ! R1    R(1,2)                  1.0225                                         !
 ! R2    R(1,3)                  1.1968                                         !
 ! R3    R(1,4)                  1.0197                                         !
 ! R4    R(1,5)                  1.5029                                         !
 ! R5    R(5,6)                  1.0891                                         !
 ! R6    R(5,7)                  1.5466                                         !
 ! R7    R(5,8)                  1.5279                                         !
 ! R8    R(7,11)                 1.2914                                         !
 ! R9    R(7,18)                 1.2931                                         !
 ! R10   R(8,9)                  1.0961                                         !
 ! R11   R(8,10)                 1.0998                                         !
 ! R12   R(8,12)                 1.5424                                         !
 ! R13   R(12,13)                1.0968                                         !
 ! R14   R(12,14)                1.0917                                         !
 ! R15   R(12,15)                1.5413                                         !
 ! R16   R(15,16)                1.2097                                         !
 ! R17   R(15,17)                1.3445                                         !
 ! R18   R(18,19)                1.5764                                         !
 ! R19   R(18,20)                1.4629                                         !
 ! R20   R(20,21)                1.0938                                         !
 ! R21   R(20,22)                1.5226                                         !
 ! R22   R(20,23)                1.5572                                         !
 ! R23   R(22,26)                1.2304                                         !
 ! R24   R(22,42)                1.3652                                         !
 ! R25   R(23,24)                1.0955                                         !
 ! R26   R(23,25)                1.0956                                         !
 ! R27   R(23,27)                1.5007                                         !
 ! R28   R(27,28)                1.3723                                         !
 ! R29   R(27,30)                1.4416                                         !
 ! R30   R(28,29)                1.0823                                         !
 ! R31   R(28,34)                1.3833                                         !
 ! R32   R(30,31)                1.4264                                         !
 ! R33   R(30,32)                1.4062                                         !
 ! R34   R(31,34)                1.379                                          !
 ! R35   R(31,38)                1.4002                                         !
 ! R36   R(32,33)                1.0846                                         !
 ! R37   R(32,40)                1.3908                                         !
 ! R38   R(34,35)                1.0083                                         !
 ! R39   R(36,37)                1.086                                          !
 ! R40   R(36,38)                1.3932                                         !
 ! R41   R(36,40)                1.4112                                         !
 ! R42   R(38,39)                1.0869                                         !
 ! R43   R(40,41)                1.0858                                         !
 ! R44   R(42,43)                1.0148                                         !
 ! R45   R(42,44)                1.4497                                         !
 ! R46   R(44,45)                1.0967                                         !
 ! R47   R(44,46)                1.5398                                         !
 ! R48   R(44,47)                1.551                                          !
 ! R49   R(46,49)                1.2229                                         !
 ! R50   R(46,56)                1.3812                                         !
 ! R51   R(47,48)                1.0962                                         !
 ! R52   R(47,50)                1.5232                                         !
 ! R53   R(47,54)                1.4203                                         !
 ! R54   R(50,51)                1.0946                                         !
 ! R55   R(50,52)                1.0934                                         !
 ! R56   R(50,53)                1.0972                                         !
 ! R57   R(54,55)                0.9715                                         !
 ! R58   R(56,57)                1.0134                                         !
 ! R59   R(56,58)                1.4591                                         !
 ! R60   R(58,59)                1.0997                                         !
 ! R61   R(58,60)                1.5334                                         !
 ! R62   R(58,61)                1.537                                          !
 ! R63   R(60,64)                1.208                                          !
 ! R64   R(60,80)                1.3509                                         !
 ! R65   R(61,62)                1.0952                                         !
 ! R66   R(61,63)                1.0971                                         !
 ! R67   R(61,65)                1.5279                                         !
 ! R68   R(65,66)                1.0958                                         !
 ! R69   R(65,67)                1.0947                                         !
 ! R70   R(65,68)                1.5245                                         !
 ! R71   R(68,69)                1.0978                                         !
 ! R72   R(68,70)                1.0961                                         !
 ! R73   R(68,71)                1.4753                                         !
 ! R74   R(71,72)                1.0131                                         !
 ! R75   R(71,79)                1.3282                                         !
 ! R76   R(73,74)                1.0094                                         !
 ! R77   R(73,75)                1.0093                                         !
 ! R78   R(73,79)                1.3417                                         !
 ! R79   R(76,77)                1.0087                                         !
 ! R80   R(76,78)                1.0085                                         !
 ! R81   R(76,79)                1.3376                                         !
 ! R82   R(80,81)                0.9792                                         !
 ! A1    A(2,1,3)              112.893                                          !
 ! A2    A(2,1,4)              110.0424                                         !
 ! A3    A(2,1,5)              111.7114                                         !
 ! A4    A(3,1,4)              113.1219                                         !
 ! A5    A(3,1,5)               94.4943                                         !
 ! A6    A(4,1,5)              113.8761                                         !
 ! A7    A(1,5,6)              108.4018                                         !
 ! A8    A(1,5,7)              100.4222                                         !
 ! A9    A(1,5,8)              112.0099                                         !
 ! A10   A(6,5,7)              108.1057                                         !
 ! A11   A(6,5,8)              111.7052                                         !
 ! A12   A(7,5,8)              115.4611                                         !
 ! A13   A(5,7,11)             113.1175                                         !
 ! A14   A(5,7,18)             116.2753                                         !
 ! A15   A(11,7,18)            130.5018                                         !
 ! A16   A(5,8,9)              109.0037                                         !
 ! A17   A(5,8,10)             107.7034                                         !
 ! A18   A(5,8,12)             115.5335                                         !
 ! A19   A(9,8,10)             107.1599                                         !
 ! A20   A(9,8,12)             110.0013                                         !
 ! A21   A(10,8,12)            107.0873                                         !
 ! A22   A(8,12,13)            109.1106                                         !
 ! A23   A(8,12,14)            108.6869                                         !
 ! A24   A(8,12,15)            115.3395                                         !
 ! A25   A(13,12,14)           108.1634                                         !
 ! A26   A(13,12,15)           109.522                                          !
 ! A27   A(14,12,15)           105.7649                                         !
 ! A28   A(12,15,16)           121.1725                                         !
 ! A29   A(12,15,17)           117.3713                                         !
 ! A30   A(16,15,17)           121.4522                                         !
 ! A31   A(7,18,19)            111.7864                                         !
 ! A32   A(7,18,20)            119.5578                                         !
 ! A33   A(19,18,20)           126.3385                                         !
 ! A34   A(18,20,21)           110.7083                                         !
 ! A35   A(18,20,22)           111.4516                                         !
 ! A36   A(18,20,23)           108.582                                          !
 ! A37   A(21,20,22)           105.146                                          !
 ! A38   A(21,20,23)           108.1967                                         !
 ! A39   A(22,20,23)           112.6881                                         !
 ! A40   A(20,22,26)           120.9424                                         !
 ! A41   A(20,22,42)           117.5396                                         !
 ! A42   A(26,22,42)           121.424                                          !
 ! A43   A(20,23,24)           110.0153                                         !
 ! A44   A(20,23,25)           107.4058                                         !
 ! A45   A(20,23,27)           109.2123                                         !
 ! A46   A(24,23,25)           107.5257                                         !
 ! A47   A(24,23,27)           112.2468                                         !
 ! A48   A(25,23,27)           110.3108                                         !
 ! A49   A(23,27,28)           125.4318                                         !
 ! A50   A(23,27,30)           127.3034                                         !
 ! A51   A(28,27,30)           106.501                                          !
 ! A52   A(27,28,29)           129.2611                                         !
 ! A53   A(27,28,34)           110.0624                                         !
 ! A54   A(29,28,34)           120.5777                                         !
 ! A55   A(27,30,31)           107.0776                                         !
 ! A56   A(27,30,32)           133.9165                                         !
 ! A57   A(31,30,32)           118.8193                                         !
 ! A58   A(30,31,34)           107.1857                                         !
 ! A59   A(30,31,38)           122.2475                                         !
 ! A60   A(34,31,38)           130.5094                                         !
 ! A61   A(30,32,33)           120.8769                                         !
 ! A62   A(30,32,40)           119.0799                                         !
 ! A63   A(33,32,40)           120.0091                                         !
 ! A64   A(28,34,31)           109.1551                                         !
 ! A65   A(28,34,35)           124.8647                                         !
 ! A66   A(31,34,35)           125.0205                                         !
 ! A67   A(37,36,38)           119.3788                                         !
 ! A68   A(37,36,40)           119.4878                                         !
 ! A69   A(38,36,40)           121.1312                                         !
 ! A70   A(31,38,36)           117.523                                          !
 ! A71   A(31,38,39)           121.3167                                         !
 ! A72   A(36,38,39)           121.16                                           !
 ! A73   A(32,40,36)           121.1918                                         !
 ! A74   A(32,40,41)           119.4361                                         !
 ! A75   A(36,40,41)           119.3715                                         !
 ! A76   A(22,42,43)           120.9612                                         !
 ! A77   A(22,42,44)           119.5139                                         !
 ! A78   A(43,42,44)           117.1635                                         !
 ! A79   A(42,44,45)           112.032                                          !
 ! A80   A(42,44,46)           108.9307                                         !
 ! A81   A(42,44,47)           108.2992                                         !
 ! A82   A(45,44,46)           106.3636                                         !
 ! A83   A(45,44,47)           110.0655                                         !
 ! A84   A(46,44,47)           111.1653                                         !
 ! A85   A(44,46,49)           122.7351                                         !
 ! A86   A(44,46,56)           113.5199                                         !
 ! A87   A(49,46,56)           123.6912                                         !
 ! A88   A(44,47,48)           107.9666                                         !
 ! A89   A(44,47,50)           111.682                                          !
 ! A90   A(44,47,54)           110.5336                                         !
 ! A91   A(48,47,50)           109.913                                          !
 ! A92   A(48,47,54)           103.7159                                         !
 ! A93   A(50,47,54)           112.6392                                         !
 ! A94   A(47,50,51)           110.9995                                         !
 ! A95   A(47,50,52)           110.1408                                         !
 ! A96   A(47,50,53)           110.4054                                         !
 ! A97   A(51,50,52)           109.3451                                         !
 ! A98   A(51,50,53)           107.3498                                         !
 ! A99   A(52,50,53)           108.5235                                         !
 ! A100  A(47,54,55)           109.5319                                         !
 ! A101  A(46,56,57)           112.0661                                         !
 ! A102  A(46,56,58)           118.9941                                         !
 ! A103  A(57,56,58)           112.2706                                         !
 ! A104  A(56,58,59)           107.4305                                         !
 ! A105  A(56,58,60)           111.9569                                         !
 ! A106  A(56,58,61)           113.9201                                         !
 ! A107  A(59,58,60)           104.8408                                         !
 ! A108  A(59,58,61)           108.6393                                         !
 ! A109  A(60,58,61)           109.5793                                         !
 ! A110  A(58,60,64)           123.2078                                         !
 ! A111  A(58,60,80)           113.0465                                         !
 ! A112  A(64,60,80)           123.7369                                         !
 ! A113  A(58,61,62)           107.8677                                         !
 ! A114  A(58,61,63)           108.8971                                         !
 ! A115  A(58,61,65)           111.2431                                         !
 ! A116  A(62,61,63)           107.6282                                         !
 ! A117  A(62,61,65)           110.7443                                         !
 ! A118  A(63,61,65)           110.3472                                         !
 ! A119  A(61,65,66)           109.6131                                         !
 ! A120  A(61,65,67)           109.5282                                         !
 ! A121  A(61,65,68)           112.6051                                         !
 ! A122  A(66,65,67)           106.0607                                         !
 ! A123  A(66,65,68)           109.1266                                         !
 ! A124  A(67,65,68)           109.6953                                         !
 ! A125  A(65,68,69)           110.8662                                         !
 ! A126  A(65,68,70)           110.7707                                         !
 ! A127  A(65,68,71)           108.4043                                         !
 ! A128  A(69,68,70)           108.5613                                         !
 ! A129  A(69,68,71)           109.5711                                         !
 ! A130  A(70,68,71)           108.6333                                         !
 ! A131  A(68,71,72)           116.0907                                         !
 ! A132  A(68,71,79)           125.8906                                         !
 ! A133  A(72,71,79)           117.9518                                         !
 ! A134  A(74,73,75)           117.6128                                         !
 ! A135  A(74,73,79)           121.4156                                         !
 ! A136  A(75,73,79)           120.9651                                         !
 ! A137  A(77,76,78)           116.555                                          !
 ! A138  A(77,76,79)           121.3656                                         !
 ! A139  A(78,76,79)           121.6348                                         !
 ! A140  A(71,79,73)           120.1947                                         !
 ! A141  A(71,79,76)           120.5976                                         !
 ! A142  A(73,79,76)           119.2073                                         !
 ! A143  A(60,80,81)           109.964                                          !
 ! D1    D(2,1,5,6)              8.28                                           !
 ! D2    D(2,1,5,7)           -104.9364                                         !
 ! D3    D(2,1,5,8)            131.9827                                         !
 ! D4    D(3,1,5,6)            125.1075                                         !
 ! D5    D(3,1,5,7)             11.8911                                         !
 ! D6    D(3,1,5,8)           -111.1899                                         !
 ! D7    D(4,1,5,6)           -117.1464                                         !
 ! D8    D(4,1,5,7)            129.6372                                         !
 ! D9    D(4,1,5,8)              6.5562                                         !
 ! D10   D(1,5,7,11)           -13.916                                          !
 ! D11   D(1,5,7,18)           162.749                                          !
 ! D12   D(6,5,7,11)          -127.3588                                         !
 ! D13   D(6,5,7,18)            49.3061                                         !
 ! D14   D(8,5,7,11)           106.7228                                         !
 ! D15   D(8,5,7,18)           -76.6122                                         !
 ! D16   D(1,5,8,9)            -66.2274                                         !
 ! D17   D(1,5,8,10)            49.7166                                         !
 ! D18   D(1,5,8,12)           169.3404                                         !
 ! D19   D(6,5,8,9)             55.6013                                         !
 ! D20   D(6,5,8,10)           171.5453                                         !
 ! D21   D(6,5,8,12)           -68.8309                                         !
 ! D22   D(7,5,8,9)            179.6569                                         !
 ! D23   D(7,5,8,10)           -64.3991                                         !
 ! D24   D(7,5,8,12)            55.2247                                         !
 ! D25   D(5,7,18,19)           -0.71                                           !
 ! D26   D(5,7,18,20)         -164.5063                                         !
 ! D27   D(11,7,18,19)         175.2552                                         !
 ! D28   D(11,7,18,20)          11.4589                                         !
 ! D29   D(5,8,12,13)          -65.7953                                         !
 ! D30   D(5,8,12,14)          176.4646                                         !
 ! D31   D(5,8,12,15)           57.9419                                         !
 ! D32   D(9,8,12,13)          170.2929                                         !
 ! D33   D(9,8,12,14)           52.5529                                         !
 ! D34   D(9,8,12,15)          -65.9698                                         !
 ! D35   D(10,8,12,13)          54.1656                                         !
 ! D36   D(10,8,12,14)         -63.5745                                         !
 ! D37   D(10,8,12,15)         177.9028                                         !
 ! D38   D(8,12,15,16)         108.3235                                         !
 ! D39   D(8,12,15,17)         -70.9576                                         !
 ! D40   D(13,12,15,16)       -128.156                                          !
 ! D41   D(13,12,15,17)         52.5628                                         !
 ! D42   D(14,12,15,16)        -11.8118                                         !
 ! D43   D(14,12,15,17)        168.907                                          !
 ! D44   D(7,18,20,21)         -18.155                                          !
 ! D45   D(7,18,20,22)        -134.8127                                         !
 ! D46   D(7,18,20,23)         100.4847                                         !
 ! D47   D(19,18,20,21)       -179.3906                                         !
 ! D48   D(19,18,20,22)         63.9518                                         !
 ! D49   D(19,18,20,23)        -60.7508                                         !
 ! D50   D(18,20,22,26)        163.4375                                         !
 ! D51   D(18,20,22,42)        -13.0872                                         !
 ! D52   D(21,20,22,26)         43.4401                                         !
 ! D53   D(21,20,22,42)       -133.0847                                         !
 ! D54   D(23,20,22,26)        -74.1935                                         !
 ! D55   D(23,20,22,42)        109.2817                                         !
 ! D56   D(18,20,23,24)        173.8666                                         !
 ! D57   D(18,20,23,25)         57.1186                                         !
 ! D58   D(18,20,23,27)        -62.5163                                         !
 ! D59   D(21,20,23,24)        -65.9209                                         !
 ! D60   D(21,20,23,25)        177.331                                          !
 ! D61   D(21,20,23,27)         57.6962                                         !
 ! D62   D(22,20,23,24)         49.898                                          !
 ! D63   D(22,20,23,25)        -66.8501                                         !
 ! D64   D(22,20,23,27)        173.5151                                         !
 ! D65   D(20,22,42,43)        -20.9048                                         !
 ! D66   D(20,22,42,44)        177.0323                                         !
 ! D67   D(26,22,42,43)        162.5882                                         !
 ! D68   D(26,22,42,44)          0.5253                                         !
 ! D69   D(20,23,27,28)        -74.8785                                         !
 ! D70   D(20,23,27,30)         93.7345                                         !
 ! D71   D(24,23,27,28)         47.408                                          !
 ! D72   D(24,23,27,30)       -143.979                                          !
 ! D73   D(25,23,27,28)        167.2971                                         !
 ! D74   D(25,23,27,30)        -24.0899                                         !
 ! D75   D(23,27,28,29)         -7.1277                                         !
 ! D76   D(23,27,28,34)        169.2107                                         !
 ! D77   D(30,27,28,29)       -177.7006                                         !
 ! D78   D(30,27,28,34)         -1.3622                                         !
 ! D79   D(23,27,30,31)       -169.0609                                         !
 ! D80   D(23,27,30,32)          5.7249                                         !
 ! D81   D(28,27,30,31)          1.2802                                         !
 ! D82   D(28,27,30,32)        176.066                                          !
 ! D83   D(27,28,34,31)          0.9306                                         !
 ! D84   D(27,28,34,35)        170.1671                                         !
 ! D85   D(29,28,34,31)        177.638                                          !
 ! D86   D(29,28,34,35)        -13.1255                                         !
 ! D87   D(27,30,31,34)         -0.7361                                         !
 ! D88   D(27,30,31,38)        176.7776                                         !
 ! D89   D(32,30,31,34)       -176.451                                          !
 ! D90   D(32,30,31,38)          1.0627                                         !
 ! D91   D(27,30,32,33)          2.8802                                         !
 ! D92   D(27,30,32,40)       -174.9978                                         !
 ! D93   D(31,30,32,33)        177.1898                                         !
 ! D94   D(31,30,32,40)         -0.6882                                         !
 ! D95   D(30,31,34,28)         -0.0852                                         !
 ! D96   D(30,31,34,35)       -169.301                                          !
 ! D97   D(38,31,34,28)       -177.3192                                         !
 ! D98   D(38,31,34,35)         13.465                                          !
 ! D99   D(30,31,38,36)         -0.7892                                         !
 ! D100  D(30,31,38,39)        179.0155                                         !
 ! D101  D(34,31,38,36)        176.086                                          !
 ! D102  D(34,31,38,39)         -4.1092                                         !
 ! D103  D(30,32,40,36)          0.0972                                         !
 ! D104  D(30,32,40,41)        179.8294                                         !
 ! D105  D(33,32,40,36)       -177.7996                                         !
 ! D106  D(33,32,40,41)          1.9325                                         !
 ! D107  D(37,36,38,31)        179.6134                                         !
 ! D108  D(37,36,38,39)         -0.1916                                         !
 ! D109  D(40,36,38,31)          0.1668                                         !
 ! D110  D(40,36,38,39)       -179.6383                                         !
 ! D111  D(37,36,40,32)       -179.2719                                         !
 ! D112  D(37,36,40,41)          0.9958                                         !
 ! D113  D(38,36,40,32)          0.1742                                         !
 ! D114  D(38,36,40,41)       -179.5581                                         !
 ! D115  D(22,42,44,45)         65.3145                                         !
 ! D116  D(22,42,44,46)        -52.079                                          !
 ! D117  D(22,42,44,47)       -173.1072                                         !
 ! D118  D(43,42,44,45)        -97.4182                                         !
 ! D119  D(43,42,44,46)        145.1883                                         !
 ! D120  D(43,42,44,47)         24.1601                                         !
 ! D121  D(42,44,46,49)        143.077                                          !
 ! D122  D(42,44,46,56)        -39.5013                                         !
 ! D123  D(45,44,46,49)         22.1448                                         !
 ! D124  D(45,44,46,56)       -160.4335                                         !
 ! D125  D(47,44,46,49)        -97.6654                                         !
 ! D126  D(47,44,46,56)         79.7563                                         !
 ! D127  D(42,44,47,48)         73.2057                                         !
 ! D128  D(42,44,47,50)       -165.8475                                         !
 ! D129  D(42,44,47,54)        -39.6015                                         !
 ! D130  D(45,44,47,48)       -164.0131                                         !
 ! D131  D(45,44,47,50)        -43.0663                                         !
 ! D132  D(45,44,47,54)         83.1797                                         !
 ! D133  D(46,44,47,48)        -46.4286                                         !
 ! D134  D(46,44,47,50)         74.5182                                         !
 ! D135  D(46,44,47,54)       -159.2358                                         !
 ! D136  D(44,46,56,57)         10.6794                                         !
 ! D137  D(44,46,56,58)        144.4819                                         !
 ! D138  D(49,46,56,57)       -171.9273                                         !
 ! D139  D(49,46,56,58)        -38.1248                                         !
 ! D140  D(44,47,50,51)        -55.3539                                         !
 ! D141  D(44,47,50,52)       -176.6                                            !
 ! D142  D(44,47,50,53)         63.5669                                         !
 ! D143  D(48,47,50,51)         64.4533                                         !
 ! D144  D(48,47,50,52)        -56.7927                                         !
 ! D145  D(48,47,50,53)       -176.6259                                         !
 ! D146  D(54,47,50,51)        179.561                                          !
 ! D147  D(54,47,50,52)         58.3149                                         !
 ! D148  D(54,47,50,53)        -61.5182                                         !
 ! D149  D(44,47,54,55)        -74.271                                          !
 ! D150  D(48,47,54,55)        170.2313                                         !
 ! D151  D(50,47,54,55)         51.438                                          !
 ! D152  D(46,56,58,59)        -20.3199                                         !
 ! D153  D(46,56,58,60)       -134.9043                                         !
 ! D154  D(46,56,58,61)        100.0598                                         !
 ! D155  D(57,56,58,59)        113.3956                                         !
 ! D156  D(57,56,58,60)         -1.1888                                         !
 ! D157  D(57,56,58,61)       -126.2247                                         !
 ! D158  D(56,58,60,64)       -171.1417                                         !
 ! D159  D(56,58,60,80)          9.9005                                         !
 ! D160  D(59,58,60,64)         72.6941                                         !
 ! D161  D(59,58,60,80)       -106.2637                                         !
 ! D162  D(61,58,60,64)        -43.7404                                         !
 ! D163  D(61,58,60,80)        137.3018                                         !
 ! D164  D(56,58,61,62)        172.3302                                         !
 ! D165  D(56,58,61,63)         55.8002                                         !
 ! D166  D(56,58,61,65)        -66.0286                                         !
 ! D167  D(59,58,61,62)        -67.9706                                         !
 ! D168  D(59,58,61,63)        175.4994                                         !
 ! D169  D(59,58,61,65)         53.6705                                         !
 ! D170  D(60,58,61,62)         46.0378                                         !
 ! D171  D(60,58,61,63)        -70.4922                                         !
 ! D172  D(60,58,61,65)        167.6789                                         !
 ! D173  D(58,60,80,81)        174.0878                                         !
 ! D174  D(64,60,80,81)         -4.8636                                         !
 ! D175  D(58,61,65,66)        -54.3036                                         !
 ! D176  D(58,61,65,67)         61.6731                                         !
 ! D177  D(58,61,65,68)       -175.9819                                         !
 ! D178  D(62,61,65,66)         65.6466                                         !
 ! D179  D(62,61,65,67)       -178.3768                                         !
 ! D180  D(62,61,65,68)        -56.0318                                         !
 ! D181  D(63,61,65,66)       -175.2856                                         !
 ! D182  D(63,61,65,67)        -59.309                                          !
 ! D183  D(63,61,65,68)         63.0361                                         !
 ! D184  D(61,65,68,69)        -59.9652                                         !
 ! D185  D(61,65,68,70)         60.6265                                         !
 ! D186  D(61,65,68,71)        179.7269                                         !
 ! D187  D(66,65,68,69)        178.0808                                         !
 ! D188  D(66,65,68,70)        -61.3275                                         !
 ! D189  D(66,65,68,71)         57.7729                                         !
 ! D190  D(67,65,68,69)         62.2857                                         !
 ! D191  D(67,65,68,70)       -177.1226                                         !
 ! D192  D(67,65,68,71)        -58.0223                                         !
 ! D193  D(65,68,71,72)         15.2576                                         !
 ! D194  D(65,68,71,79)       -167.7936                                         !
 ! D195  D(69,68,71,72)       -105.8533                                         !
 ! D196  D(69,68,71,79)         71.0955                                         !
 ! D197  D(70,68,71,72)        135.6962                                         !
 ! D198  D(70,68,71,79)        -47.355                                          !
 ! D199  D(68,71,79,73)         -7.3239                                         !
 ! D200  D(68,71,79,76)        172.8936                                         !
 ! D201  D(72,71,79,73)        169.5739                                         !
 ! D202  D(72,71,79,76)        -10.2086                                         !
 ! D203  D(74,73,79,71)        169.0099                                         !
 ! D204  D(74,73,79,76)        -11.2046                                         !
 ! D205  D(75,73,79,71)        -10.0414                                         !
 ! D206  D(75,73,79,76)        169.744                                          !
 ! D207  D(77,76,79,71)        -15.7136                                         !
 ! D208  D(77,76,79,73)        164.5018                                         !
 ! D209  D(78,76,79,71)        172.203                                          !
 ! D210  D(78,76,79,73)         -7.5816                                         !
 --------------------------------------------------------------------------------
 Symmetry turned off by external request.
 Stoichiometry    C26H39N8O8(1+)
 Framework group  C1[X(C26H39N8O8)]
 Deg. of freedom   237
 Full point group                 C1      NOp   1
                          Input orientation:                          
 ---------------------------------------------------------------------
 Center     Atomic      Atomic             Coordinates (Angstroms)
 Number     Number       Type             X           Y           Z
 ---------------------------------------------------------------------
      1          7           0       -5.324467   -0.271528    1.757040
      2          1           0       -6.136835    0.349133    1.738709
      3          1           0       -5.153795   -0.845726    0.720953
      4          1           0       -5.382644   -0.899748    2.558158
      5          6           0       -4.035485    0.497367    1.679286
      6          1           0       -4.262352    1.558824    1.769207
      7          6           0       -3.629305    0.215136    0.213867
      8          6           0       -3.032478    0.042231    2.738198
      9          1           0       -3.420728    0.297878    3.730822
     10          1           0       -2.967459   -1.054439    2.687784
     11          8           0       -4.302254   -0.747822   -0.322315
     12          6           0       -1.599553    0.589146    2.575266
     13          1           0       -1.162052    0.181602    1.655827
     14          1           0       -0.996909    0.248003    3.419168
     15          6           0       -1.476856    2.125578    2.567023
     16          8           0       -0.992389    2.720052    3.502535
     17          8           0       -1.942521    2.777074    1.487070
     18          7           0       -2.739604    1.003218   -0.295464
     19          1           0       -2.281685    2.109146    0.730277
     20          6           0       -2.546630    1.032436   -1.745296
     21          1           0       -2.973406    0.139116   -2.210380
     22          6           0       -1.068843    1.003987   -2.111052
     23          6           0       -3.283479    2.278537   -2.318948
     24          1           0       -3.064503    2.384871   -3.387060
     25          1           0       -2.880086    3.160894   -1.810033
     26          8           0       -0.704757    0.720649   -3.251707
     27          6           0       -4.754374    2.149424   -2.050608
     28          6           0       -5.614903    1.315600   -2.719477
     29          1           0       -5.434413    0.703024   -3.593252
     30          6           0       -5.487608    2.679852   -0.928436
     31          6           0       -6.788243    2.095310   -0.963850
     32          6           0       -5.149216    3.515650    0.150619
     33          1           0       -4.155127    3.941179    0.234639
     34          7           0       -6.833356    1.268223   -2.066368
     35          1           0       -7.668658    0.840502   -2.435033
     36          6           0       -7.381404    3.179598    1.079874
     37          1           0       -8.102900    3.397080    1.861924
     38          6           0       -7.745787    2.342779    0.027284
     39          1           0       -8.737915    1.901741   -0.023016
     40          6           0       -6.095552    3.757954    1.140645
     41          1           0       -5.839497    4.400180    1.977873
     42          7           0       -0.166806    1.232179   -1.112022
     43          1           0       -0.440839    1.711694   -0.260717
     44          6           0        1.252006    1.151184   -1.398620
     45          1           0        1.575823    1.932062   -2.097320
     46          6           0        1.546830   -0.194970   -2.085537
     47          6           0        2.027071    1.279045   -0.061206
     48          1           0        1.901747    0.341724    0.493177
     49          8           0        2.373664   -0.314587   -2.978573
     50          6           0        3.507830    1.550868   -0.292686
     51          1           0        3.951835    0.783500   -0.934640
     52          1           0        4.039693    1.576359    0.662251
     53          1           0        3.645589    2.516919   -0.794303
     54          8           0        1.417468    2.250138    0.776984
     55          1           0        1.614765    3.139783    0.440148
     56          7           0        0.831444   -1.251756   -1.557147
     57          1           0        0.105253   -0.940462   -0.922593
     58          6           0        0.369763   -2.309789   -2.449534
     59          1           0        0.365147   -1.901013   -3.470382
     60          6           0       -1.088500   -2.696097   -2.174545
     61          6           0        1.249118   -3.570182   -2.429053
     62          1           0        0.743803   -4.342103   -3.019256
     63          1           0        1.322316   -3.935650   -1.397161
     64          8           0       -1.627803   -3.649245   -2.684301
     65          6           0        2.640642   -3.283538   -2.991088
     66          1           0        2.550103   -2.840895   -3.989404
     67          1           0        3.138226   -2.531556   -2.370369
     68          6           0        3.507385   -4.534727   -3.076190
     69          1           0        3.645218   -4.983169   -2.083696
     70          1           0        3.049259   -5.280825   -3.735592
     71          7           0        4.819557   -4.155328   -3.633606
     72          1           0        5.031525   -3.164705   -3.639555
     73          7           0        5.608798   -6.316125   -3.887994
     74          1           0        6.215692   -6.978958   -4.347595
     75          1           0        4.877372   -6.683067   -3.297235
     76          7           0        6.848259   -4.535130   -4.683294
     77          1           0        6.893124   -3.593274   -5.041534
     78          1           0        7.618748   -5.142976   -4.915465
     79          6           0        5.753233   -4.994372   -4.067547
     80          8           0       -1.708617   -1.849159   -1.324186
     81          1           0       -2.657364   -2.081178   -1.253820
 ---------------------------------------------------------------------
 Rotational constants (GHZ):           0.1537022           0.0393085           0.0360267
 Standard basis: 6-31G(d) (6D, 7F)
   708 basis functions,  1332 primitive gaussians,   708 cartesian basis functions
   157 alpha electrons      157 beta electrons
       nuclear repulsion energy      5421.3314092440 Hartrees.
 NAtoms=   81 NActive=   81 NUniq=   81 SFac= 1.00D+00 NAtFMM=   60 NAOKFM=T Big=T
 Integral buffers will be    131072 words long.
 Raffenetti 2 integral format.
 Two-electron integral symmetry is turned off.
 Nuclear repulsion after empirical dispersion term =     5421.1427339168 Hartrees.
 One-electron integrals computed using PRISM.
 NBasis=   708 RedAO= T EigKep=  3.76D-04  NBF=   708
 NBsUse=   708 1.00D-06 EigRej= -1.00D+00 NBFU=   708
 Initial guess from the checkpoint file:  "conf-807.chk"
 B after Tr=     0.000000    0.000000    0.000000
         Rot=    1.000000    0.000000    0.000000    0.000000 Ang=   0.00 deg.
 Requested convergence on RMS density matrix=1.00D-08 within 128 cycles.
 Requested convergence on MAX density matrix=1.00D-06.
 Requested convergence on             energy=1.00D-06.
 No special actions if energy rises.
 SCF Done:  E(RB3LYP) =  -2054.08982340     A.U. after    1 cycles
            NFock=  1  Conv=0.41D-08     -V/T= 2.0093

 **********************************************************************

            Population analysis using the SCF Density.

 **********************************************************************

 Alpha  occ. eigenvalues --  -19.27465 -19.22079 -19.21625 -19.20727 -19.19974
 Alpha  occ. eigenvalues --  -19.19289 -19.17614 -19.15492 -14.54175 -14.54029
 Alpha  occ. eigenvalues --  -14.53711 -14.49246 -14.43588 -14.42392 -14.42085
 Alpha  occ. eigenvalues --  -14.37997 -10.50331 -10.40071 -10.36697 -10.36102
 Alpha  occ. eigenvalues --  -10.34645 -10.34483 -10.34440 -10.32017 -10.31974
 Alpha  occ. eigenvalues --  -10.31699 -10.29763 -10.29689 -10.28413 -10.28212
 Alpha  occ. eigenvalues --  -10.28053 -10.27639 -10.27201 -10.25642 -10.24928
 Alpha  occ. eigenvalues --  -10.24924 -10.24870 -10.24344 -10.23969 -10.23892
 Alpha  occ. eigenvalues --  -10.23637 -10.23466  -1.18972  -1.18280  -1.11752
 Alpha  occ. eigenvalues --   -1.11278  -1.10829  -1.09794  -1.09471  -1.09221
 Alpha  occ. eigenvalues --   -1.07995  -1.07160  -1.03422  -1.03337  -1.02883
 Alpha  occ. eigenvalues --   -1.00500  -0.98397  -0.96448  -0.91781  -0.89442
 Alpha  occ. eigenvalues --   -0.87574  -0.86368  -0.85583  -0.84532  -0.81635
 Alpha  occ. eigenvalues --   -0.81439  -0.79092  -0.78986  -0.78298  -0.77652
 Alpha  occ. eigenvalues --   -0.76617  -0.76177  -0.73242  -0.72150  -0.71195
 Alpha  occ. eigenvalues --   -0.70576  -0.69676  -0.68004  -0.67710  -0.67553
 Alpha  occ. eigenvalues --   -0.66523  -0.65413  -0.64745  -0.64632  -0.64266
 Alpha  occ. eigenvalues --   -0.63450  -0.62761  -0.61832  -0.61614  -0.61134
 Alpha  occ. eigenvalues --   -0.60562  -0.60469  -0.59269  -0.58822  -0.58000
 Alpha  occ. eigenvalues --   -0.57267  -0.55894  -0.55464  -0.55193  -0.54887
 Alpha  occ. eigenvalues --   -0.54342  -0.54244  -0.53591  -0.53411  -0.53036
 Alpha  occ. eigenvalues --   -0.52763  -0.51691  -0.51590  -0.50594  -0.50229
 Alpha  occ. eigenvalues --   -0.49753  -0.49514  -0.48992  -0.48845  -0.48550
 Alpha  occ. eigenvalues --   -0.48296  -0.47608  -0.47290  -0.46944  -0.46787
 Alpha  occ. eigenvalues --   -0.46514  -0.46259  -0.46084  -0.45493  -0.45263
 Alpha  occ. eigenvalues --   -0.45151  -0.44821  -0.44345  -0.44197  -0.43900
 Alpha  occ. eigenvalues --   -0.43546  -0.43176  -0.43043  -0.42672  -0.42456
 Alpha  occ. eigenvalues --   -0.42269  -0.41150  -0.40429  -0.39755  -0.39543
 Alpha  occ. eigenvalues --   -0.39313  -0.38909  -0.38606  -0.36275  -0.35774
 Alpha  occ. eigenvalues --   -0.35510  -0.33667  -0.33256  -0.33143  -0.32958
 Alpha  occ. eigenvalues --   -0.32713  -0.32348  -0.31737  -0.29959  -0.28981
 Alpha  occ. eigenvalues --   -0.27930  -0.25610
 Alpha virt. eigenvalues --   -0.13775  -0.10138  -0.07065  -0.06933  -0.06247
 Alpha virt. eigenvalues --   -0.06055  -0.05268  -0.04743  -0.04707  -0.04354
 Alpha virt. eigenvalues --   -0.03469  -0.03217  -0.01576  -0.01341  -0.00354
 Alpha virt. eigenvalues --    0.00239   0.01047   0.01279   0.01763   0.01826
 Alpha virt. eigenvalues --    0.02654   0.03322   0.03664   0.04350   0.04573
 Alpha virt. eigenvalues --    0.04857   0.05910   0.06586   0.06700   0.07042
 Alpha virt. eigenvalues --    0.07156   0.07505   0.07658   0.08240   0.08429
 Alpha virt. eigenvalues --    0.08589   0.09028   0.09439   0.09706   0.09745
 Alpha virt. eigenvalues --    0.10401   0.10471   0.11052   0.11383   0.11410
 Alpha virt. eigenvalues --    0.11953   0.12496   0.12594   0.12848   0.13083
 Alpha virt. eigenvalues --    0.13387   0.13617   0.14608   0.14890   0.15312
 Alpha virt. eigenvalues --    0.15818   0.15991   0.16329   0.16585   0.17217
 Alpha virt. eigenvalues --    0.17363   0.18173   0.18557   0.18723   0.19477
 Alpha virt. eigenvalues --    0.19909   0.20838   0.20989   0.21239   0.21525
 Alpha virt. eigenvalues --    0.22219   0.22528   0.22862   0.23099   0.24332
 Alpha virt. eigenvalues --    0.26516   0.26868   0.27024   0.28444   0.28752
 Alpha virt. eigenvalues --    0.29691   0.30825   0.31966   0.32681   0.33204
 Alpha virt. eigenvalues --    0.34059   0.34712   0.36782   0.37369   0.37664
 Alpha virt. eigenvalues --    0.38132   0.38532   0.39020   0.40088   0.40597
 Alpha virt. eigenvalues --    0.42651   0.42978   0.43594   0.44081   0.44283
 Alpha virt. eigenvalues --    0.44868   0.45602   0.46067   0.46428   0.46913
 Alpha virt. eigenvalues --    0.47159   0.47602   0.48207   0.48310   0.48605
 Alpha virt. eigenvalues --    0.48770   0.49074   0.49261   0.50146   0.50607
 Alpha virt. eigenvalues --    0.50844   0.51025   0.51343   0.51919   0.52087
 Alpha virt. eigenvalues --    0.52573   0.52949   0.53105   0.53824   0.53857
 Alpha virt. eigenvalues --    0.54385   0.54435   0.54630   0.55323   0.55479
 Alpha virt. eigenvalues --    0.56242   0.56422   0.56471   0.56827   0.56995
 Alpha virt. eigenvalues --    0.57382   0.57667   0.57840   0.58580   0.58638
 Alpha virt. eigenvalues --    0.59304   0.59989   0.60478   0.60887   0.61639
 Alpha virt. eigenvalues --    0.62206   0.62422   0.62948   0.63311   0.63818
 Alpha virt. eigenvalues --    0.64423   0.65158   0.65674   0.66080   0.66835
 Alpha virt. eigenvalues --    0.67085   0.67696   0.68405   0.68780   0.69084
 Alpha virt. eigenvalues --    0.69471   0.69919   0.70600   0.70859   0.71164
 Alpha virt. eigenvalues --    0.71354   0.71579   0.71740   0.72874   0.73366
 Alpha virt. eigenvalues --    0.73623   0.74484   0.74807   0.75039   0.75545
 Alpha virt. eigenvalues --    0.75917   0.76100   0.76757   0.77014   0.77291
 Alpha virt. eigenvalues --    0.77445   0.77839   0.78257   0.78500   0.78684
 Alpha virt. eigenvalues --    0.79218   0.79544   0.80102   0.80164   0.80379
 Alpha virt. eigenvalues --    0.80876   0.81301   0.81359   0.81599   0.82049
 Alpha virt. eigenvalues --    0.82394   0.83162   0.83488   0.83828   0.83944
 Alpha virt. eigenvalues --    0.84192   0.84746   0.85516   0.85555   0.85939
 Alpha virt. eigenvalues --    0.86159   0.86532   0.87089   0.87804   0.88431
 Alpha virt. eigenvalues --    0.88494   0.89101   0.89258   0.89850   0.90801
 Alpha virt. eigenvalues --    0.90901   0.91807   0.92026   0.92134   0.92787
 Alpha virt. eigenvalues --    0.93189   0.94422   0.94707   0.95802   0.96809
 Alpha virt. eigenvalues --    0.97099   0.97864   0.98485   0.98730   0.99291
 Alpha virt. eigenvalues --    0.99968   1.00519   1.01184   1.01305   1.01742
 Alpha virt. eigenvalues --    1.02512   1.03617   1.03831   1.04200   1.04863
 Alpha virt. eigenvalues --    1.05277   1.05979   1.06406   1.06707   1.07776
 Alpha virt. eigenvalues --    1.07935   1.08077   1.09059   1.11357   1.11484
 Alpha virt. eigenvalues --    1.12352   1.13653   1.13806   1.14096   1.14799
 Alpha virt. eigenvalues --    1.15431   1.16981   1.17690   1.17798   1.18661
 Alpha virt. eigenvalues --    1.19484   1.20556   1.21024   1.21972   1.23243
 Alpha virt. eigenvalues --    1.23869   1.24443   1.25224   1.25373   1.26250
 Alpha virt. eigenvalues --    1.27102   1.27740   1.28694   1.30334   1.30697
 Alpha virt. eigenvalues --    1.31543   1.32125   1.32879   1.33843   1.34408
 Alpha virt. eigenvalues --    1.35121   1.35466   1.36461   1.37004   1.37749
 Alpha virt. eigenvalues --    1.38309   1.39288   1.39963   1.40138   1.40623
 Alpha virt. eigenvalues --    1.40895   1.41802   1.42999   1.43726   1.44239
 Alpha virt. eigenvalues --    1.45058   1.45178   1.45515   1.46745   1.47236
 Alpha virt. eigenvalues --    1.47595   1.47933   1.48773   1.49279   1.50011
 Alpha virt. eigenvalues --    1.50651   1.51452   1.52764   1.53616   1.54068
 Alpha virt. eigenvalues --    1.55673   1.56055   1.56652   1.57376   1.58593
 Alpha virt. eigenvalues --    1.60363   1.60984   1.61324   1.61678   1.63513
 Alpha virt. eigenvalues --    1.65288   1.66539   1.66754   1.67085   1.67562
 Alpha virt. eigenvalues --    1.67865   1.68917   1.69692   1.70033   1.71665
 Alpha virt. eigenvalues --    1.72093   1.72348   1.72607   1.73259   1.74079
 Alpha virt. eigenvalues --    1.74456   1.74802   1.74998   1.75602   1.76115
 Alpha virt. eigenvalues --    1.76309   1.76806   1.77028   1.77126   1.77828
 Alpha virt. eigenvalues --    1.78265   1.78616   1.78845   1.79627   1.80079
 Alpha virt. eigenvalues --    1.80466   1.80875   1.81217   1.82070   1.82654
 Alpha virt. eigenvalues --    1.83197   1.84031   1.84521   1.84863   1.85082
 Alpha virt. eigenvalues --    1.85632   1.86554   1.87004   1.87749   1.88532
 Alpha virt. eigenvalues --    1.88568   1.88933   1.89597   1.90340   1.90673
 Alpha virt. eigenvalues --    1.90995   1.91835   1.92580   1.92787   1.93343
 Alpha virt. eigenvalues --    1.93782   1.94346   1.94552   1.95270   1.96183
 Alpha virt. eigenvalues --    1.96485   1.97136   1.97552   1.98394   1.98854
 Alpha virt. eigenvalues --    1.99002   1.99944   2.00203   2.00673   2.02183
 Alpha virt. eigenvalues --    2.03102   2.03907   2.04332   2.04417   2.05477
 Alpha virt. eigenvalues --    2.06386   2.06981   2.07639   2.07916   2.08477
 Alpha virt. eigenvalues --    2.08861   2.09695   2.10227   2.10816   2.11102
 Alpha virt. eigenvalues --    2.12553   2.13386   2.13588   2.14082   2.14518
 Alpha virt. eigenvalues --    2.15991   2.16522   2.18346   2.19082   2.19755
 Alpha virt. eigenvalues --    2.20404   2.21002   2.21268   2.22093   2.22552
 Alpha virt. eigenvalues --    2.22730   2.25052   2.25948   2.26969   2.27512
 Alpha virt. eigenvalues --    2.27583   2.29099   2.30445   2.31922   2.32391
 Alpha virt. eigenvalues --    2.33387   2.33752   2.34544   2.35379   2.36103
 Alpha virt. eigenvalues --    2.36322   2.36947   2.37811   2.38568   2.39330
 Alpha virt. eigenvalues --    2.40158   2.40760   2.41034   2.42393   2.42583
 Alpha virt. eigenvalues --    2.43042   2.43510   2.45724   2.46272   2.47149
 Alpha virt. eigenvalues --    2.48066   2.48685   2.50634   2.51253   2.52035
 Alpha virt. eigenvalues --    2.52513   2.53332   2.54141   2.55617   2.55979
 Alpha virt. eigenvalues --    2.56665   2.57270   2.58137   2.58887   2.60056
 Alpha virt. eigenvalues --    2.60603   2.61373   2.61770   2.62190   2.63441
 Alpha virt. eigenvalues --    2.64991   2.65744   2.66080   2.66951   2.67632
 Alpha virt. eigenvalues --    2.68465   2.69870   2.70027   2.71945   2.73005
 Alpha virt. eigenvalues --    2.73209   2.74461   2.77369   2.77910   2.80350
 Alpha virt. eigenvalues --    2.80781   2.82315   2.84257   2.84632   2.86492
 Alpha virt. eigenvalues --    2.87740   2.88865   2.90401   2.90580   2.92450
 Alpha virt. eigenvalues --    2.93769   2.95277   2.95501   2.97298   2.98130
 Alpha virt. eigenvalues --    3.01930   3.05075   3.05945   3.07165   3.08960
 Alpha virt. eigenvalues --    3.09473   3.17220   3.19441   3.38201   3.62814
 Alpha virt. eigenvalues --    3.68496   3.76375   3.78916   3.83515   3.86281
 Alpha virt. eigenvalues --    3.95406   3.97459   3.98858   4.04180   4.04305
 Alpha virt. eigenvalues --    4.06501   4.08395   4.09165   4.11129   4.11784
 Alpha virt. eigenvalues --    4.12668   4.13709   4.15152   4.16500   4.18569
 Alpha virt. eigenvalues --    4.18857   4.20780   4.23151   4.24080   4.25517
 Alpha virt. eigenvalues --    4.28930   4.30315   4.34380   4.36252   4.38712
 Alpha virt. eigenvalues --    4.40969   4.42715   4.49314   4.49740   4.54539
 Alpha virt. eigenvalues --    4.56079   4.60155   4.67041   4.72407   4.75408
 Alpha virt. eigenvalues --    4.79621
          Condensed to atoms (all electrons):
 Mulliken charges:
               1
     1  N   -0.802433
     2  H    0.393064
     3  H    0.445505
     4  H    0.372802
     5  C   -0.092076
     6  H    0.223747
     7  C    0.642134
     8  C   -0.288429
     9  H    0.174453
    10  H    0.145686
    11  O   -0.665895
    12  C   -0.372186
    13  H    0.161503
    14  H    0.180139
    15  C    0.593887
    16  O   -0.456947
    17  O   -0.646272
    18  N   -0.606477
    19  H    0.462876
    20  C   -0.057714
    21  H    0.162319
    22  C    0.623109
    23  C   -0.348069
    24  H    0.172589
    25  H    0.156751
    26  O   -0.537416
    27  C    0.061899
    28  C    0.019742
    29  H    0.159025
    30  C    0.076878
    31  C    0.303331
    32  C   -0.229730
    33  H    0.161397
    34  N   -0.682492
    35  H    0.333803
    36  C   -0.170015
    37  H    0.136725
    38  C   -0.191715
    39  H    0.132421
    40  C   -0.158106
    41  H    0.142592
    42  N   -0.667946
    43  H    0.367944
    44  C   -0.031418
    45  H    0.173479
    46  C    0.608033
    47  C    0.116599
    48  H    0.148262
    49  O   -0.536991
    50  C   -0.471240
    51  H    0.158498
    52  H    0.173333
    53  H    0.151578
    54  O   -0.609330
    55  H    0.403597
    56  N   -0.617966
    57  H    0.372587
    58  C   -0.058004
    59  H    0.214850
    60  C    0.601200
    61  C   -0.267823
    62  H    0.174983
    63  H    0.150207
    64  O   -0.456368
    65  C   -0.312876
    66  H    0.180233
    67  H    0.183824
    68  C   -0.145502
    69  H    0.181877
    70  H    0.185152
    71  N   -0.610569
    72  H    0.377441
    73  N   -0.759040
    74  H    0.386310
    75  H    0.396906
    76  N   -0.762823
    77  H    0.390373
    78  H    0.386368
    79  C    0.846345
    80  O   -0.594128
    81  H    0.439641
 Sum of Mulliken charges =   1.00000
 Mulliken charges with hydrogens summed into heavy atoms:
               1
     1  N    0.408939
     5  C    0.131671
     7  C    0.642134
     8  C    0.031710
    11  O   -0.665895
    12  C   -0.030544
    15  C    0.593887
    16  O   -0.456947
    17  O   -0.183396
    18  N   -0.606477
    20  C    0.104605
    22  C    0.623109
    23  C   -0.018730
    26  O   -0.537416
    27  C    0.061899
    28  C    0.178767
    30  C    0.076878
    31  C    0.303331
    32  C   -0.068334
    34  N   -0.348689
    36  C   -0.033290
    38  C   -0.059294
    40  C   -0.015514
    42  N   -0.300003
    44  C    0.142061
    46  C    0.608033
    47  C    0.264862
    49  O   -0.536991
    50  C    0.012169
    54  O   -0.205733
    56  N   -0.245379
    58  C    0.156846
    60  C    0.601200
    61  C    0.057367
    64  O   -0.456368
    65  C    0.051180
    68  C    0.221527
    71  N   -0.233128
    73  N    0.024176
    76  N    0.013917
    79  C    0.846345
    80  O   -0.154487
 Electronic spatial extent (au):  <R**2>=          32067.8687
 Charge=              1.0000 electrons
 Dipole moment (field-independent basis, Debye):
    X=             13.5327    Y=            -23.2948    Z=            -13.3654  Tot=             30.0735
 Quadrupole moment (field-independent basis, Debye-Ang):
   XX=             -8.8172   YY=           -136.2608   ZZ=           -185.7400
   XY=           -115.4318   XZ=           -117.0045   YZ=             66.9615
 Traceless Quadrupole moment (field-independent basis, Debye-Ang):
   XX=            101.4555   YY=            -25.9881   ZZ=            -75.4674
   XY=           -115.4318   XZ=           -117.0045   YZ=             66.9615
 Octapole moment (field-independent basis, Debye-Ang**2):
  XXX=           1248.7225  YYY=           -708.7130  ZZZ=            416.7629  XYY=           1074.4398
  XXY=           -765.3273  XXZ=           -383.0209  XZZ=            660.5988  YZZ=           -408.2384
  YYZ=           -260.8522  XYZ=            556.8945
 Hexadecapole moment (field-independent basis, Debye-Ang**3):
 XXXX=         -12347.2807 YYYY=          -5751.0281 ZZZZ=          -6734.4923 XXXY=             38.0741
 XXXZ=          -2738.4842 YYYX=            791.6914 YYYZ=            239.6279 ZZZX=           -120.3631
 ZZZY=          -1117.0910 XXYY=          -1507.8234 XXZZ=          -1387.5169 YYZZ=          -1206.8602
 XXYZ=           2709.0701 YYXZ=          -2511.9582 ZZXY=           -760.2231
 N-N= 5.421142733917D+03 E-N=-1.560683863430D+04  KE= 2.035206077322D+03
 Unable to Open any file for archive entry.
 1\1\GINC-AMR-104\SP\RB3LYP\6-31G(d)\C26H39N8O8(1+)\KENGMITH\24-Jun-202
 2\0\\# B3LYP/6-31G* empiricaldispersion=gd3bj guess=read geom=check no
 symm integral(ultrafinegrid)\\Candidate Structure: Conf:807 Charge cal
 c in gas phase\\1,1\N,0,-5.324467245,-0.2715278734,1.7570398835\H,0,-6
 .1368347823,0.3491329532,1.7387086019\H,0,-5.1537950988,-0.8457258749,
 0.7209533632\H,0,-5.3826436635,-0.8997477219,2.5581580684\C,0,-4.03548
 47549,0.4973673095,1.6792855666\H,0,-4.262351981,1.5588240364,1.769207
 2899\C,0,-3.6293052307,0.2151356278,0.2138666081\C,0,-3.0324776187,0.0
 422313602,2.7381976627\H,0,-3.4207275031,0.2978779103,3.7308224169\H,0
 ,-2.9674586575,-1.05443926,2.6877839407\O,0,-4.302254002,-0.7478220427
 ,-0.3223152437\C,0,-1.5995531322,0.589145515,2.5752656187\H,0,-1.16205
 1767,0.1816018733,1.6558266858\H,0,-0.9969087806,0.2480026561,3.419167
 8697\C,0,-1.4768559954,2.1255777334,2.5670229431\O,0,-0.9923888275,2.7
 200519633,3.5025346885\O,0,-1.9425212579,2.7770740061,1.4870697451\N,0
 ,-2.7396043626,1.0032181989,-0.2954639842\H,0,-2.2816850257,2.10914648
 83,0.7302768654\C,0,-2.5466300133,1.0324355182,-1.7452961786\H,0,-2.97
 34063139,0.1391156401,-2.2103803836\C,0,-1.068843176,1.0039874461,-2.1
 110518484\C,0,-3.2834788946,2.2785370704,-2.3189479963\H,0,-3.06450314
 94,2.3848708459,-3.3870603415\H,0,-2.8800864203,3.1608937523,-1.810033
 313\O,0,-0.7047570506,0.7206485821,-3.2517071225\C,0,-4.7543743968,2.1
 494242989,-2.0506084971\C,0,-5.6149032524,1.3156002974,-2.7194770381\H
 ,0,-5.4344125888,0.7030235598,-3.5932517987\C,0,-5.4876079692,2.679851
 7631,-0.9284357406\C,0,-6.7882426867,2.0953101453,-0.9638504353\C,0,-5
 .1492162559,3.5156500495,0.1506188522\H,0,-4.15512715,3.9411791018,0.2
 346393111\N,0,-6.8333563539,1.2682229322,-2.0663683416\H,0,-7.66865839
 26,0.8405017667,-2.4350333392\C,0,-7.3814043654,3.1795977675,1.0798735
 76\H,0,-8.1028998081,3.3970799439,1.8619241315\C,0,-7.7457866188,2.342
 7790242,0.0272837427\H,0,-8.7379147062,1.9017414779,-0.0230156721\C,0,
 -6.0955517625,3.7579543725,1.1406446275\H,0,-5.8394971276,4.4001800569
 ,1.9778728393\N,0,-0.1668064158,1.2321787199,-1.1120222086\H,0,-0.4408
 389814,1.711693684,-0.2607167552\C,0,1.2520060086,1.1511838747,-1.3986
 202598\H,0,1.5758226088,1.932061869,-2.0973200916\C,0,1.5468296017,-0.
 194970088,-2.0855373098\C,0,2.0270711589,1.2790451701,-0.0612060782\H,
 0,1.9017472407,0.3417242666,0.4931773476\O,0,2.3736641678,-0.314587041
 8,-2.9785733687\C,0,3.5078296987,1.5508676373,-0.2926862231\H,0,3.9518
 347338,0.7834998661,-0.9346404808\H,0,4.0396933678,1.5763592962,0.6622
 509637\H,0,3.6455894083,2.5169187352,-0.7943032723\O,0,1.4174675062,2.
 250138383,0.776983639\H,0,1.6147650937,3.1397826222,0.4401478923\N,0,0
 .831444363,-1.2517563991,-1.5571466849\H,0,0.105252982,-0.9404622681,-
 0.9225925411\C,0,0.369763481,-2.309788605,-2.4495339186\H,0,0.36514730
 12,-1.9010132505,-3.4703822734\C,0,-1.0885004471,-2.6960967643,-2.1745
 454827\C,0,1.2491177378,-3.5701822105,-2.429053184\H,0,0.7438028916,-4
 .342102722,-3.0192564063\H,0,1.3223157401,-3.9356496645,-1.3971612562\
 O,0,-1.6278028295,-3.6492445922,-2.6843006113\C,0,2.6406418756,-3.2835
 38267,-2.9910882787\H,0,2.5501032673,-2.8408954157,-3.9894035849\H,0,3
 .1382257286,-2.5315555383,-2.3703686259\C,0,3.5073848688,-4.5347274157
 ,-3.0761901528\H,0,3.6452178912,-4.9831691153,-2.0836960007\H,0,3.0492
 58983,-5.2808250114,-3.7355917606\N,0,4.8195571146,-4.1553277174,-3.63
 36060426\H,0,5.0315245693,-3.1647050131,-3.6395552571\N,0,5.6087983665
 ,-6.3161254705,-3.8879940295\H,0,6.2156917629,-6.978958259,-4.34759510
 41\H,0,4.8773720512,-6.6830665426,-3.297234845\N,0,6.8482588771,-4.535
 1298857,-4.6832941693\H,0,6.8931243043,-3.5932744107,-5.0415338101\H,0
 ,7.618748321,-5.1429758276,-4.9154645772\C,0,5.7532325667,-4.994371947
 6,-4.0675466843\O,0,-1.7086165022,-1.8491593026,-1.3241858368\H,0,-2.6
 573640442,-2.0811777401,-1.2538200905\\Version=ES64L-G16RevC.01\HF=-20
 54.0898234\RMSD=4.079e-09\Dipole=7.4452822,-8.995675,-3.3793738\Quadru
 pole=75.4296567,-19.3215196,-56.1081371,-85.820707,-86.9899833,49.7842
 088\PG=C01 [X(C26H39N8O8)]\\@
 The archive entry for this job was punched.


 A great many people think they are thinking when they
 are merely rearranging their prejudices.
                               -- William James
 Job cpu time:       0 days  0 hours  1 minutes 53.1 seconds.
 Elapsed time:       0 days  0 hours  0 minutes 28.8 seconds.
 File lengths (MBytes):  RWF=    376 Int=      0 D2E=      0 Chk=     56 Scr=     16
 Normal termination of Gaussian 16 at Fri Jun 24 06:34:37 2022.
