 Entering Gaussian System, Link 0=/opt/software/Gaussian/g16-AVX2-C.01/g16/g16
 Input=charge-conf-824.com
 Output=charge-conf-824.log
 Initial command:
 /opt/software/Gaussian/g16-AVX2-C.01/g16/l1.exe "/mnt/gs18/scratch/users/kengmith/Gau-12273.inp" -scrdir="/mnt/gs18/scratch/users/kengmith/"
 Entering Link 1 = /opt/software/Gaussian/g16-AVX2-C.01/g16/l1.exe PID=     12336.
  
 Copyright (c) 1988-2019, Gaussian, Inc.  All Rights Reserved.
  
 This is part of the Gaussian(R) 16 program.  It is based on
 the Gaussian(R) 09 system (copyright 2009, Gaussian, Inc.),
 the Gaussian(R) 03 system (copyright 2003, Gaussian, Inc.),
 the Gaussian(R) 98 system (copyright 1998, Gaussian, Inc.),
 the Gaussian(R) 94 system (copyright 1995, Gaussian, Inc.),
 the Gaussian 92(TM) system (copyright 1992, Gaussian, Inc.),
 the Gaussian 90(TM) system (copyright 1990, Gaussian, Inc.),
 the Gaussian 88(TM) system (copyright 1988, Gaussian, Inc.),
 the Gaussian 86(TM) system (copyright 1986, Carnegie Mellon
 University), and the Gaussian 82(TM) system (copyright 1983,
 Carnegie Mellon University). Gaussian is a federally registered
 trademark of Gaussian, Inc.
  
 This software contains proprietary and confidential information,
 including trade secrets, belonging to Gaussian, Inc.
  
 This software is provided under written license and may be
 used, copied, transmitted, or stored only in accord with that
 written license.
  
 The following legend is applicable only to US Government
 contracts under FAR:
  
                    RESTRICTED RIGHTS LEGEND
  
 Use, reproduction and disclosure by the US Government is
 subject to restrictions as set forth in subparagraphs (a)
 and (c) of the Commercial Computer Software - Restricted
 Rights clause in FAR 52.227-19.
  
 Gaussian, Inc.
 340 Quinnipiac St., Bldg. 40, Wallingford CT 06492
  
  
 ---------------------------------------------------------------
 Warning -- This program may not be used in any manner that
 competes with the business of Gaussian, Inc. or will provide
 assistance to any competitor of Gaussian, Inc.  The licensee
 of this program is prohibited from giving any competitor of
 Gaussian, Inc. access to this program.  By using this program,
 the user acknowledges that Gaussian, Inc. is engaged in the
 business of creating and licensing software in the field of
 computational chemistry and represents and warrants to the
 licensee that it is not a competitor of Gaussian, Inc. and that
 it will not use this program in any manner prohibited above.
 ---------------------------------------------------------------
  

 Cite this work as:
 Gaussian 16, Revision C.01,
 M. J. Frisch, G. W. Trucks, H. B. Schlegel, G. E. Scuseria, 
 M. A. Robb, J. R. Cheeseman, G. Scalmani, V. Barone, 
 G. A. Petersson, H. Nakatsuji, X. Li, M. Caricato, A. V. Marenich, 
 J. Bloino, B. G. Janesko, R. Gomperts, B. Mennucci, H. P. Hratchian, 
 J. V. Ortiz, A. F. Izmaylov, J. L. Sonnenberg, D. Williams-Young, 
 F. Ding, F. Lipparini, F. Egidi, J. Goings, B. Peng, A. Petrone, 
 T. Henderson, D. Ranasinghe, V. G. Zakrzewski, J. Gao, N. Rega, 
 G. Zheng, W. Liang, M. Hada, M. Ehara, K. Toyota, R. Fukuda, 
 J. Hasegawa, M. Ishida, T. Nakajima, Y. Honda, O. Kitao, H. Nakai, 
 T. Vreven, K. Throssell, J. A. Montgomery, Jr., J. E. Peralta, 
 F. Ogliaro, M. J. Bearpark, J. J. Heyd, E. N. Brothers, K. N. Kudin, 
 V. N. Staroverov, T. A. Keith, R. Kobayashi, J. Normand, 
 K. Raghavachari, A. P. Rendell, J. C. Burant, S. S. Iyengar, 
 J. Tomasi, M. Cossi, J. M. Millam, M. Klene, C. Adamo, R. Cammi, 
 J. W. Ochterski, R. L. Martin, K. Morokuma, O. Farkas, 
 J. B. Foresman, and D. J. Fox, Gaussian, Inc., Wallingford CT, 2019.
 
 ******************************************
 Gaussian 16:  ES64L-G16RevC.01  3-Jul-2019
                30-Jun-2022 
 ******************************************
 %mem=8gb
 %nproc=4
 Will use up to    4 processors via shared memory.
 %chk=conf-824.chk
 ----------------------------------------------------------------------
 # B3LYP/6-31G* empiricaldispersion=gd3 guess=read geom=check nosymm in
 tegral(ultrafinegrid)
 ----------------------------------------------------------------------
 1/29=2,38=1,172=1/1;
 2/12=2,15=1,40=1/2;
 3/5=1,6=6,7=1,11=2,14=-4,25=1,30=1,74=-5,75=-5,116=-2,124=31/1,2,3;
 4/5=1/1;
 5/5=2,38=6/2;
 6/7=2,8=2,9=2,10=2,28=1/1;
 99/5=1,9=1/99;
 ------------------------------------------------------
 Candidate Structure: Conf:824 Charge calc in gas phase
 ------------------------------------------------------
 Structure from the checkpoint file:  "conf-824.chk"
 Charge =  1 Multiplicity = 1
 Redundant internal coordinates found in file.  (old form).
 N,0,0.906660585,2.8368055488,0.4487381195
 H,0,1.5176027628,2.8489901257,1.2838833925
 H,0,0.9733891774,3.7014116276,-0.0935752085
 H,0,1.2757430255,2.0632734146,-0.16232839
 C,0,-0.4904070382,2.5659255,0.8954431975
 H,0,-0.9009226406,3.4759294207,1.3412625251
 H,0,-0.4286116401,1.7830171767,1.6499913197
 C,0,-1.3066449002,2.1130829085,-0.3115853944
 O,0,-0.8629552251,2.2497064613,-1.4489768097
 N,0,-2.5249688088,1.6018642478,-0.0198308215
 H,0,-2.716419338,1.3101984767,0.930315621
 C,0,-3.3618260095,1.0272190156,-1.0732997628
 H,0,-3.3186470626,1.6858237717,-1.9432538136
 H,0,-4.3889583705,0.9642156134,-0.7129424712
 C,0,-2.8760109038,-0.3907520746,-1.3914894587
 O,0,-3.329945804,-1.3669970774,-0.7899509788
 N,0,-1.8889954963,-0.4731652823,-2.3173030676
 H,0,-1.4175822779,0.3833384273,-2.5910480806
 C,0,-1.2726209528,-1.7527302139,-2.6520615802
 H,0,-0.7496872155,-1.658904806,-3.6035004475
 H,0,-2.0637854702,-2.5028404271,-2.7419218596
 C,0,-0.2481972263,-2.1732522381,-1.5926324013
 O,0,0.9625692792,-2.1344507896,-1.8398089237
 N,0,-0.7809613319,-2.5760653155,-0.4151585009
 H,0,-1.78812606,-2.4389258951,-0.3099438024
 C,0,0.0202188108,-2.805439845,0.759563142
 H,0,0.9941514632,-3.2010547669,0.4517201963
 H,0,-0.4605360278,-3.5604808721,1.391035056
 C,0,0.2612814215,-1.5116968455,1.5548438127
 O,0,-0.0045719045,-0.4026804505,1.0964307157
 N,0,0.8571727911,-1.6564862903,2.7737464289
 H,0,0.9596683468,-2.5768879328,3.1808633269
 C,0,1.1877995449,-0.4772307615,3.5716633676
 H,0,0.2930270027,0.0850952595,3.8509473181
 H,0,1.6924295235,-0.807246792,4.4841654575
 C,0,2.0896180845,0.484579676,2.7775939027
 O,0,1.8560837243,1.6938498307,2.73414875
 N,0,3.1323608478,-0.1111693076,2.1442409448
 H,0,3.1413066563,-1.1246373589,2.1568480985
 C,0,3.7341473157,0.477066093,0.9498964952
 H,0,4.7593531926,0.1158304856,0.8397252565
 H,0,3.7411961463,1.5613966363,1.0457126672
 C,0,2.8774813872,0.0344874129,-0.238938419
 O,0,2.1582885713,0.7817892776,-0.8890630803
 O,0,2.941370968,-1.2741472375,-0.3953185679
 H,0,2.2263163562,-1.5966476879,-1.0345755119
 Recover connectivity data from disk.
                           ----------------------------
                           !    Current Parameters    !
                           ! (Angstroms and Degrees)  !
 --------------------------                            --------------------------
 ! Name  Definition              Value                                          !
 --------------------------------------------------------------------------------
 ! R1    R(1,2)                  1.0348                                         !
 ! R2    R(1,3)                  1.0228                                         !
 ! R3    R(1,4)                  1.0526                                         !
 ! R4    R(1,5)                  1.4915                                         !
 ! R5    R(5,6)                  1.0933                                         !
 ! R6    R(5,7)                  1.0891                                         !
 ! R7    R(5,8)                  1.5259                                         !
 ! R8    R(8,9)                  1.2285                                         !
 ! R9    R(8,10)                 1.3531                                         !
 ! R10   R(10,11)                1.0122                                         !
 ! R11   R(10,12)                1.463                                          !
 ! R12   R(12,13)                1.092                                          !
 ! R13   R(12,14)                1.0903                                         !
 ! R14   R(12,15)                1.5323                                         !
 ! R15   R(15,16)                1.2333                                         !
 ! R16   R(15,17)                1.3558                                         !
 ! R17   R(17,18)                1.0153                                         !
 ! R18   R(17,19)                1.4592                                         !
 ! R19   R(19,20)                1.0897                                         !
 ! R20   R(19,21)                1.0939                                         !
 ! R21   R(19,22)                1.5325                                         !
 ! R22   R(22,23)                1.2363                                         !
 ! R23   R(22,24)                1.3537                                         !
 ! R24   R(24,25)                1.0219                                         !
 ! R25   R(24,26)                1.4403                                         !
 ! R26   R(26,27)                1.0954                                         !
 ! R27   R(26,28)                1.0954                                         !
 ! R28   R(26,29)                1.5376                                         !
 ! R29   R(29,30)                1.2291                                         !
 ! R30   R(29,31)                1.3645                                         !
 ! R31   R(31,32)                1.0116                                         !
 ! R32   R(31,33)                1.4617                                         !
 ! R33   R(33,34)                1.0931                                         !
 ! R34   R(33,35)                1.0937                                         !
 ! R35   R(33,36)                1.5391                                         !
 ! R36   R(36,37)                1.2324                                         !
 ! R37   R(36,38)                1.3577                                         !
 ! R38   R(38,39)                1.0136                                         !
 ! R39   R(38,40)                1.461                                          !
 ! R40   R(40,41)                1.0926                                         !
 ! R41   R(40,42)                1.0886                                         !
 ! R42   R(40,43)                1.5307                                         !
 ! R43   R(43,44)                1.2241                                         !
 ! R44   R(43,45)                1.3195                                         !
 ! R45   R(45,46)                1.0119                                         !
 ! A1    A(2,1,3)              112.2993                                         !
 ! A2    A(2,1,4)              105.6733                                         !
 ! A3    A(2,1,5)              108.2655                                         !
 ! A4    A(3,1,4)              106.8897                                         !
 ! A5    A(3,1,5)              111.9273                                         !
 ! A6    A(4,1,5)              111.6434                                         !
 ! A7    A(1,5,6)              108.8232                                         !
 ! A8    A(1,5,7)              106.553                                          !
 ! A9    A(1,5,8)              108.5444                                         !
 ! A10   A(6,5,7)              109.7017                                         !
 ! A11   A(6,5,8)              111.6368                                         !
 ! A12   A(7,5,8)              111.4119                                         !
 ! A13   A(5,8,9)              120.41                                           !
 ! A14   A(5,8,10)             115.0386                                         !
 ! A15   A(9,8,10)             124.5313                                         !
 ! A16   A(8,10,11)            118.7897                                         !
 ! A17   A(8,10,12)            120.5436                                         !
 ! A18   A(11,10,12)           117.0372                                         !
 ! A19   A(10,12,13)           108.3092                                         !
 ! A20   A(10,12,14)           108.879                                          !
 ! A21   A(10,12,15)           109.3692                                         !
 ! A22   A(13,12,14)           109.5969                                         !
 ! A23   A(13,12,15)           112.3434                                         !
 ! A24   A(14,12,15)           108.2904                                         !
 ! A25   A(12,15,16)           120.9673                                         !
 ! A26   A(12,15,17)           115.3959                                         !
 ! A27   A(16,15,17)           123.5674                                         !
 ! A28   A(15,17,18)           118.0909                                         !
 ! A29   A(15,17,19)           121.1632                                         !
 ! A30   A(18,17,19)           118.8017                                         !
 ! A31   A(17,19,20)           109.1172                                         !
 ! A32   A(17,19,21)           108.3389                                         !
 ! A33   A(17,19,22)           111.3696                                         !
 ! A34   A(20,19,21)           109.5349                                         !
 ! A35   A(20,19,22)           107.8435                                         !
 ! A36   A(21,19,22)           110.6143                                         !
 ! A37   A(19,22,23)           120.5174                                         !
 ! A38   A(19,22,24)           114.8263                                         !
 ! A39   A(23,22,24)           124.6561                                         !
 ! A40   A(22,24,25)           115.9451                                         !
 ! A41   A(22,24,26)           122.5402                                         !
 ! A42   A(25,24,26)           119.0544                                         !
 ! A43   A(24,26,27)           108.8378                                         !
 ! A44   A(24,26,28)           109.6216                                         !
 ! A45   A(24,26,29)           112.0275                                         !
 ! A46   A(27,26,28)           107.6551                                         !
 ! A47   A(27,26,29)           108.0499                                         !
 ! A48   A(28,26,29)           110.5232                                         !
 ! A49   A(26,29,30)           122.1648                                         !
 ! A50   A(26,29,31)           116.1813                                         !
 ! A51   A(30,29,31)           121.5591                                         !
 ! A52   A(29,31,32)           120.0197                                         !
 ! A53   A(29,31,33)           120.0538                                         !
 ! A54   A(32,31,33)           119.4333                                         !
 ! A55   A(31,33,34)           111.6754                                         !
 ! A56   A(31,33,35)           108.443                                          !
 ! A57   A(31,33,36)           110.7966                                         !
 ! A58   A(34,33,35)           108.6473                                         !
 ! A59   A(34,33,36)           106.8562                                         !
 ! A60   A(35,33,36)           110.4052                                         !
 ! A61   A(33,36,37)           121.3554                                         !
 ! A62   A(33,36,38)           114.6121                                         !
 ! A63   A(37,36,38)           124.032                                          !
 ! A64   A(36,38,39)           116.0858                                         !
 ! A65   A(36,38,40)           121.4002                                         !
 ! A66   A(39,38,40)           114.1484                                         !
 ! A67   A(38,40,41)           109.622                                          !
 ! A68   A(38,40,42)           109.3755                                         !
 ! A69   A(38,40,43)           106.736                                          !
 ! A70   A(41,40,42)           109.3989                                         !
 ! A71   A(41,40,43)           110.5631                                         !
 ! A72   A(42,40,43)           111.0995                                         !
 ! A73   A(40,43,44)           124.388                                          !
 ! A74   A(40,43,45)           110.5914                                         !
 ! A75   A(44,43,45)           124.8188                                         !
 ! A76   A(43,45,46)           110.9                                            !
 ! D1    D(2,1,5,6)             75.9417                                         !
 ! D2    D(2,1,5,7)            -42.2802                                         !
 ! D3    D(2,1,5,8)           -162.3739                                         !
 ! D4    D(3,1,5,6)            -48.3634                                         !
 ! D5    D(3,1,5,7)           -166.5854                                         !
 ! D6    D(3,1,5,8)             73.3209                                         !
 ! D7    D(4,1,5,6)           -168.1438                                         !
 ! D8    D(4,1,5,7)             73.6343                                         !
 ! D9    D(4,1,5,8)            -46.4594                                         !
 ! D10   D(1,5,8,9)            -12.98                                           !
 ! D11   D(1,5,8,10)           168.5799                                         !
 ! D12   D(6,5,8,9)            106.9659                                         !
 ! D13   D(6,5,8,10)           -71.4742                                         !
 ! D14   D(7,5,8,9)           -130.0017                                         !
 ! D15   D(7,5,8,10)            51.5582                                         !
 ! D16   D(5,8,10,11)          -16.911                                          !
 ! D17   D(5,8,10,12)         -174.8071                                         !
 ! D18   D(9,8,10,11)          164.722                                          !
 ! D19   D(9,8,10,12)            6.8259                                         !
 ! D20   D(8,10,12,13)         -43.3155                                         !
 ! D21   D(8,10,12,14)        -162.4281                                         !
 ! D22   D(8,10,12,15)          79.4212                                         !
 ! D23   D(11,10,12,13)        158.4149                                         !
 ! D24   D(11,10,12,14)         39.3023                                         !
 ! D25   D(11,10,12,15)        -78.8484                                         !
 ! D26   D(10,12,15,16)         89.9713                                         !
 ! D27   D(10,12,15,17)        -87.1028                                         !
 ! D28   D(13,12,15,16)       -149.7295                                         !
 ! D29   D(13,12,15,17)         33.1964                                         !
 ! D30   D(14,12,15,16)        -28.5464                                         !
 ! D31   D(14,12,15,17)        154.3795                                         !
 ! D32   D(12,15,17,18)         12.0384                                         !
 ! D33   D(12,15,17,19)        175.9811                                         !
 ! D34   D(16,15,17,18)       -164.9506                                         !
 ! D35   D(16,15,17,19)         -1.0078                                         !
 ! D36   D(15,17,19,20)        162.4465                                         !
 ! D37   D(15,17,19,21)         43.2551                                         !
 ! D38   D(15,17,19,22)        -78.615                                          !
 ! D39   D(18,17,19,20)        -33.722                                          !
 ! D40   D(18,17,19,21)       -152.9134                                         !
 ! D41   D(18,17,19,22)         85.2165                                         !
 ! D42   D(17,19,22,23)       -107.9301                                         !
 ! D43   D(17,19,22,24)         72.2371                                         !
 ! D44   D(20,19,22,23)         11.7665                                         !
 ! D45   D(20,19,22,24)       -168.0663                                         !
 ! D46   D(21,19,22,23)        131.5284                                         !
 ! D47   D(21,19,22,24)        -48.3044                                         !
 ! D48   D(19,22,24,25)         -8.0043                                         !
 ! D49   D(19,22,24,26)       -170.0102                                         !
 ! D50   D(23,22,24,25)        172.1708                                         !
 ! D51   D(23,22,24,26)         10.1649                                         !
 ! D52   D(22,24,26,27)        -34.111                                          !
 ! D53   D(22,24,26,28)       -151.6165                                         !
 ! D54   D(22,24,26,29)         85.3078                                         !
 ! D55   D(25,24,26,27)        164.4173                                         !
 ! D56   D(25,24,26,28)         46.9118                                         !
 ! D57   D(25,24,26,29)        -76.1639                                         !
 ! D58   D(24,26,29,30)        -11.9017                                         !
 ! D59   D(24,26,29,31)        171.5883                                         !
 ! D60   D(27,26,29,30)        107.9787                                         !
 ! D61   D(27,26,29,31)        -68.5312                                         !
 ! D62   D(28,26,29,30)       -134.4666                                         !
 ! D63   D(28,26,29,31)         49.0235                                         !
 ! D64   D(26,29,31,32)        -11.2015                                         !
 ! D65   D(26,29,31,33)        176.9003                                         !
 ! D66   D(30,29,31,32)        172.2657                                         !
 ! D67   D(30,29,31,33)          0.3674                                         !
 ! D68   D(29,31,33,34)         62.7086                                         !
 ! D69   D(29,31,33,35)       -177.6055                                         !
 ! D70   D(29,31,33,36)        -56.2862                                         !
 ! D71   D(32,31,33,34)       -109.2371                                         !
 ! D72   D(32,31,33,35)         10.4487                                         !
 ! D73   D(32,31,33,36)        131.768                                          !
 ! D74   D(31,33,36,37)        133.0316                                         !
 ! D75   D(31,33,36,38)        -46.7087                                         !
 ! D76   D(34,33,36,37)         11.1681                                         !
 ! D77   D(34,33,36,38)       -168.5723                                         !
 ! D78   D(35,33,36,37)       -106.8127                                         !
 ! D79   D(35,33,36,38)         73.447                                          !
 ! D80   D(33,36,38,39)          7.6824                                         !
 ! D81   D(33,36,38,40)        154.0389                                         !
 ! D82   D(37,36,38,39)       -172.05                                           !
 ! D83   D(37,36,38,40)        -25.6935                                         !
 ! D84   D(36,38,40,41)        156.595                                          !
 ! D85   D(36,38,40,42)         36.65                                           !
 ! D86   D(36,38,40,43)        -83.6302                                         !
 ! D87   D(39,38,40,41)        -56.4508                                         !
 ! D88   D(39,38,40,42)       -176.3958                                         !
 ! D89   D(39,38,40,43)         63.324                                          !
 ! D90   D(38,40,43,44)        110.3888                                         !
 ! D91   D(38,40,43,45)        -64.6545                                         !
 ! D92   D(41,40,43,44)       -130.4456                                         !
 ! D93   D(41,40,43,45)         54.5111                                         !
 ! D94   D(42,40,43,44)         -8.7781                                         !
 ! D95   D(42,40,43,45)        176.1786                                         !
 ! D96   D(40,43,45,46)        167.2018                                         !
 ! D97   D(44,43,45,46)         -7.8157                                         !
 --------------------------------------------------------------------------------
                          Input orientation:                          
 ---------------------------------------------------------------------
 Center     Atomic      Atomic             Coordinates (Angstroms)
 Number     Number       Type             X           Y           Z
 ---------------------------------------------------------------------
      1          7           0        0.906661    2.836806    0.448738
      2          1           0        1.517603    2.848990    1.283883
      3          1           0        0.973389    3.701412   -0.093575
      4          1           0        1.275743    2.063273   -0.162328
      5          6           0       -0.490407    2.565926    0.895443
      6          1           0       -0.900923    3.475929    1.341263
      7          1           0       -0.428612    1.783017    1.649991
      8          6           0       -1.306645    2.113083   -0.311585
      9          8           0       -0.862955    2.249706   -1.448977
     10          7           0       -2.524969    1.601864   -0.019831
     11          1           0       -2.716419    1.310198    0.930316
     12          6           0       -3.361826    1.027219   -1.073300
     13          1           0       -3.318647    1.685824   -1.943254
     14          1           0       -4.388958    0.964216   -0.712942
     15          6           0       -2.876011   -0.390752   -1.391489
     16          8           0       -3.329946   -1.366997   -0.789951
     17          7           0       -1.888995   -0.473165   -2.317303
     18          1           0       -1.417582    0.383338   -2.591048
     19          6           0       -1.272621   -1.752730   -2.652062
     20          1           0       -0.749687   -1.658905   -3.603500
     21          1           0       -2.063785   -2.502840   -2.741922
     22          6           0       -0.248197   -2.173252   -1.592632
     23          8           0        0.962569   -2.134451   -1.839809
     24          7           0       -0.780961   -2.576065   -0.415159
     25          1           0       -1.788126   -2.438926   -0.309944
     26          6           0        0.020219   -2.805440    0.759563
     27          1           0        0.994151   -3.201055    0.451720
     28          1           0       -0.460536   -3.560481    1.391035
     29          6           0        0.261281   -1.511697    1.554844
     30          8           0       -0.004572   -0.402680    1.096431
     31          7           0        0.857173   -1.656486    2.773746
     32          1           0        0.959668   -2.576888    3.180863
     33          6           0        1.187800   -0.477231    3.571663
     34          1           0        0.293027    0.085095    3.850947
     35          1           0        1.692430   -0.807247    4.484165
     36          6           0        2.089618    0.484580    2.777594
     37          8           0        1.856084    1.693850    2.734149
     38          7           0        3.132361   -0.111169    2.144241
     39          1           0        3.141307   -1.124637    2.156848
     40          6           0        3.734147    0.477066    0.949896
     41          1           0        4.759353    0.115830    0.839725
     42          1           0        3.741196    1.561397    1.045713
     43          6           0        2.877481    0.034487   -0.238938
     44          8           0        2.158289    0.781789   -0.889063
     45          8           0        2.941371   -1.274147   -0.395319
     46          1           0        2.226316   -1.596648   -1.034576
 ---------------------------------------------------------------------
                    Distance matrix (angstroms):
                    1          2          3          4          5
     1  N    0.000000
     2  H    1.034827   0.000000
     3  H    1.022790   1.708854   0.000000
     4  H    1.052604   1.663543   1.667226   0.000000
     5  C    1.491549   2.064731   2.100044   2.119157   0.000000
     6  H    2.114814   2.499122   2.371212   2.999043   1.093337
     7  H    2.082410   2.249018   2.947180   2.503572   1.089085
     8  C    2.449610   3.326177   2.787270   2.587177   1.525853
     9  O    2.660366   3.673516   2.704944   2.502849   2.394805
    10  N    3.677053   4.426893   4.080692   3.831268   2.430346
    11  H    3.960954   4.518831   4.514525   4.206941   2.556012
    12  C    4.879670   5.716991   5.187028   4.838422   3.806391
    13  H    4.989951   5.929307   5.089743   4.941921   4.102648
    14  H    5.735824   6.513613   6.052324   5.796546   4.511217
    15  C    5.302091   6.079259   5.766131   4.976961   4.434310
    16  O    6.095502   6.750857   6.685237   5.776940   5.135311
    17  N    5.140290   5.967426   5.528590   4.592712   4.638304
    18  H    4.545537   5.450674   4.792048   3.996857   4.216511
    19  C    5.952148   6.667296   6.429469   5.220614   5.643353
    20  H    6.274993   7.024830   6.634875   5.458813   6.177128
    21  H    6.893162   7.594441   7.398034   6.217407   6.434154
    22  C    5.531869   6.051059   6.184749   4.724015   5.358077
    23  O    5.473021   5.907639   6.091530   4.531325   5.629057
    24  N    5.735290   6.131995   6.525939   5.081085   5.314336
    25  H    5.972505   6.436628   6.736210   5.447833   5.309008
    26  C    5.719906   5.872789   6.631402   5.111809   5.397293
    27  H    6.038495   6.129400   6.924003   5.307495   5.971504
    28  H    6.609268   6.708639   7.549523   6.087217   6.146492
    29  C    4.533151   4.546136   5.513700   4.093681   4.198434
    30  O    3.426969   3.595207   4.383617   3.050346   3.014806
    31  N    5.059425   4.791156   6.078002   4.757347   4.813809
    32  H    6.064272   5.774944   7.080903   5.727821   5.811574
    33  C    4.562295   4.050488   5.562463   4.517144   4.386266
    34  H    4.418539   3.965920   5.394432   4.580972   3.937422
    35  H    5.493744   4.862143   6.465348   5.477538   5.387207
    36  C    3.515099   2.854612   4.453941   3.434794   3.811958
    37  O    2.725959   1.884725   3.578474   2.977054   3.106022
    38  N    4.064361   3.479972   4.919833   3.673621   4.674482
    39  H    4.858427   4.380433   5.749350   4.361385   5.329235
    40  C    3.716747   3.263532   4.371158   3.129992   4.713084
    41  H    4.732844   4.263377   5.297260   4.114874   5.793622
    42  H    3.165065   2.580502   3.679456   2.791004   4.351796
    43  C    3.494284   3.477022   4.134372   2.586002   4.363218
    44  O    2.753067   3.066838   3.249766   1.717333   3.658305
    45  O    4.663948   4.674088   5.359122   3.737242   5.309362
    46  H    4.857697   5.063716   5.524920   3.880648   5.332220
                    6          7          8          9         10
     6  H    0.000000
     7  H    1.784473   0.000000
     8  C    2.180337   2.174320   0.000000
     9  O    3.048032   3.163867   1.228489   0.000000
    10  N    2.828820   2.686231   1.353063   2.285705   0.000000
    11  H    2.855748   2.444495   2.043136   3.158961   1.012176
    12  C    4.228751   4.073241   2.446033   2.807127   1.462991
    13  H    4.453978   4.612284   2.625461   2.567625   2.082434
    14  H    4.763912   4.683827   3.313856   3.824517   2.088410
    15  C    5.130315   4.468293   3.146155   3.320801   2.444422
    16  O    5.822041   4.928859   4.053830   4.427291   3.170995
    17  N    5.473275   4.791921   3.324262   3.036574   3.160473
    18  H    5.029326   4.574230   2.863612   2.257270   3.053239
    19  C    6.589665   5.632186   4.519236   4.199374   4.444133
    20  H    7.130223   6.288807   5.037340   4.464532   5.160129
    21  H    7.332826   6.350691   5.271294   5.069556   4.946824
    22  C    6.398988   5.118518   4.597180   4.467788   4.680694
    23  O    6.713284   5.427766   5.052360   4.765094   5.425430
    24  N    6.302860   4.836382   4.719659   4.935947   4.544551
    25  H    6.204766   4.849168   4.577402   4.912902   4.117656
    26  C    6.375145   4.695556   5.205746   5.586783   5.148763
    27  H    6.997479   5.319876   5.840921   6.064016   5.972822
    28  H    7.050354   5.349864   5.983656   6.479652   5.736047
    29  C    5.125695   3.367513   4.368178   4.943177   4.465093
    30  O    3.988358   2.294235   3.163379   3.775060   3.408319
    31  N    5.611114   3.840085   5.330200   6.004046   5.464412
    32  H    6.594128   4.824900   6.271300   6.932055   6.312615
    33  C    4.996491   3.378510   5.292599   6.070306   5.568314
    34  H    4.384266   2.871917   4.898812   5.840465   5.022411
    35  H    5.911761   4.386437   6.365689   7.146827   6.623915
    36  C    4.467052   3.049411   4.871309   5.449519   5.510746
    37  O    3.566094   2.530451   4.410794   5.020029   5.175566
    38  N    5.457053   4.063588   5.539238   5.869199   6.294686
    39  H    6.178188   4.632027   6.029948   6.357852   6.654203
    40  C    5.534458   4.418620   5.447704   5.479982   6.432890
    41  H    6.601555   5.509176   6.489289   6.434434   7.483881
    42  H    5.030115   4.219190   5.256169   5.281615   6.356244
    43  C    5.349476   4.189948   4.672553   4.512455   5.629489
    44  O    4.646667   3.760493   3.756539   3.405319   4.833321
    45  O    6.351548   4.988620   5.433781   5.291563   6.188158
    46  H    6.415237   5.067315   5.173648   4.950734   5.816777
                   11         12         13         14         15
    11  H    0.000000
    12  C    2.123935   0.000000
    13  H    2.959928   1.091991   0.000000
    14  H    2.370103   1.090334   1.783242   0.000000
    15  C    2.882617   1.532287   2.193750   2.141349   0.000000
    16  O    3.240850   2.411135   3.263426   2.561638   1.233272
    17  N    3.796320   2.442934   2.616305   3.299977   1.355774
    18  H    3.866012   2.549162   2.393774   3.562832   2.040875
    19  C    4.929454   3.819082   4.063531   4.566567   2.452526
    20  H    5.765336   4.521111   4.532459   5.336701   3.320008
    21  H    5.333903   4.114672   4.444936   4.641515   2.635203
    22  C    4.959014   4.495265   4.943993   5.269104   3.181693
    23  O    5.751013   5.411477   5.738816   6.285731   4.239832
    24  N    4.545255   4.480811   5.190243   5.063586   3.180888
    25  H    4.056588   3.882448   4.692947   4.302105   2.558955
    26  C    4.945384   5.430183   6.214877   5.984933   4.341185
    27  H    5.860785   6.259275   6.943898   6.905345   5.125757
    28  H    5.387466   5.961327   6.841783   6.350756   4.860467
    29  C    4.149678   5.145886   5.939420   5.735654   4.447471
    30  O    3.211801   4.245409   4.958289   4.936100   3.799349
    31  N    4.997001   6.308882   7.131522   6.822534   5.734800
    32  H    5.804139   7.054276   7.920307   7.503929   6.355945
    33  C    5.041284   6.673690   7.443197   7.178847   6.415210
    34  H    4.368951   6.204334   7.012795   6.597191   6.144296
    35  H    6.045773   7.732799   8.522793   8.193369   7.454357
    36  C    5.214602   6.696423   7.278648   7.374676   6.542548
    37  O    4.930394   6.493662   6.975385   7.170450   6.615072
    38  N    6.140206   7.336413   7.845527   8.117277   6.977112
    39  H    6.461096   7.573313   8.151106   8.324896   7.024058
    40  C    6.504176   7.399245   7.718376   8.305853   7.066073
    41  H    7.571123   8.393083   8.686998   9.317840   7.970805
    42  H    6.463530   7.431587   7.667515   8.339599   7.316985
    43  C    5.855452   6.372647   6.635029   7.340996   5.883186
    44  O    5.229927   5.528639   5.650258   6.552155   5.193405
    45  O    6.359775   6.744349   7.095446   7.671042   5.967803
    46  H    6.061451   6.173614   6.507452   7.100939   5.255028
                   16         17         18         19         20
    16  O    0.000000
    17  N    2.282121   0.000000
    18  H    3.156701   1.015266   0.000000
    19  C    2.801577   1.459201   2.141851   0.000000
    20  H    3.828708   2.087655   2.375269   1.089724   0.000000
    21  H    2.589110   2.080969   2.961481   1.093929   1.783648
    22  C    3.285045   2.471368   2.983362   1.532538   2.135330
    23  O    4.485184   3.334560   3.545242   2.408639   2.503712
    24  N    2.845986   3.044353   3.727982   2.433792   3.317783
    25  H    1.938207   2.811384   3.647727   2.494419   3.540382
    26  C    3.961529   4.307170   4.843777   3.797212   4.576420
    27  H    4.858326   4.839567   5.284200   4.107233   4.675897
    28  H    4.219192   5.032274   5.685652   4.502674   5.352101
    29  C    4.291377   4.549259   4.857794   4.484307   5.258540
    30  O    3.942899   3.899949   4.026403   4.181122   4.921651
    31  N    5.505970   5.904276   6.173849   5.829638   6.576571
    32  H    5.969254   6.539906   6.908634   6.299632   7.056358
    33  C    6.342349   6.644292   6.745933   6.812879   7.525502
    34  H    6.064028   6.566597   6.671914   6.936713   7.726421
    35  H    7.304374   7.694036   7.819739   7.785319   8.491148
    36  C    6.747398   6.534877   6.413503   6.766932   7.305788
    37  O    6.977318   6.651221   6.386865   7.118916   7.628683
    38  N    7.207496   6.726844   6.585551   6.715885   7.106498
    39  H    7.114736   6.763607   6.752776   6.557657   6.971864
    40  C    7.505268   6.572463   6.251991   6.558492   6.737994
    41  H    8.383995   7.383379   7.070806   7.215872   7.296675
    42  H    7.870591   6.866467   6.420813   7.056581   7.221742
    43  C    6.387482   5.224616   4.909347   5.122564   5.229169
    44  O    5.894728   4.471609   3.980247   4.615527   4.667063
    45  O    6.284407   5.260042   5.154509   4.804129   4.905546
    46  H    5.566384   4.454593   4.429554   3.857873   3.931901
                   21         22         23         24         25
    21  H    0.000000
    22  C    2.173903   0.000000
    23  O    3.179362   1.236348   0.000000
    24  N    2.657974   1.353714   2.294461   0.000000
    25  H    2.448385   2.021696   3.162201   1.021889   0.000000
    26  C    4.085956   2.450415   2.845169   1.440303   2.132672
    27  H    4.476364   2.603687   2.527795   2.071984   2.983629
    28  H    4.557449   3.297236   3.807511   2.081846   2.431812
    29  C    4.985027   3.256352   3.521831   2.469830   2.921859
    30  O    4.835699   3.228829   3.543430   2.758856   3.050451
    31  N    6.298485   4.533669   4.639445   3.701111   4.137507
    32  H    6.650274   4.940458   5.040130   3.995143   4.444676
    33  C    7.384935   5.622146   5.664021   4.916897   5.269844
    34  H    7.464442   5.918244   6.144866   5.141487   5.292910
    35  H    8.318685   6.523762   6.502832   5.766260   6.144927
    36  C    7.525988   5.623907   5.426783   5.272707   5.754709
    37  O    7.935045   6.172804   6.031197   5.924890   6.294966
    38  N    7.522939   5.444684   4.967325   5.285861   5.970985
    39  H    7.279449   5.162067   4.662605   4.909791   5.666721
    40  C    7.491688   5.417353   4.720606   5.618825   6.370691
    41  H    8.138848   6.019288   5.163258   6.286185   7.121657
    42  H    8.035049   6.068256   5.450348   6.301003   6.958002
    43  C    6.092543   4.059122   3.306655   4.497804   5.281165
    44  O    5.661077   3.875365   3.292130   4.487646   5.126653
    45  O    5.662846   3.523535   2.596600   3.943494   4.871564
    46  H    4.705443   2.601368   1.592071   3.222833   4.165366
                   26         27         28         29         30
    26  C    0.000000
    27  H    1.095364   0.000000
    28  H    1.095431   1.768506   0.000000
    29  C    1.537645   2.146604   2.178387   0.000000
    30  O    2.426386   3.040395   3.204122   1.229121   0.000000
    31  N    2.465263   2.792178   2.696932   1.364468   2.264513
    32  H    2.607201   2.799821   2.487553   2.065506   3.162562
    33  C    3.832977   4.146174   4.120507   2.448697   2.748469
    34  H    4.241023   4.779655   4.461978   2.796935   2.813157
    35  H    4.545517   4.741152   4.667228   3.335470   3.810543
    36  C    4.379394   4.493733   4.978790   2.970362   2.828281
    37  O    5.245283   5.469232   5.897345   3.769573   3.246475
    38  N    4.343024   4.121160   5.037259   3.248379   3.320125
    39  H    3.810340   3.439367   4.415096   2.967620   3.397390
    40  C    4.960276   4.613494   5.838815   4.047461   3.843624
    41  H    5.567732   5.032794   6.408311   4.836620   4.798930
    42  H    5.744285   5.529921   6.633810   4.670431   4.229769
    43  C    4.150439   3.806924   5.169427   3.528859   3.206331
    44  O    4.489713   4.360729   5.559892   3.851155   3.165931
    45  O    3.494530   2.867422   4.471169   3.323017   3.415165
    46  H    3.089819   2.510264   4.118180   3.251718   3.308112
                   31         32         33         34         35
    31  N    0.000000
    32  H    1.011627   0.000000
    33  C    1.461721   2.147866   0.000000
    34  H    2.124083   2.824815   1.093082   0.000000
    35  H    2.084321   2.316714   1.093719   1.776392   0.000000
    36  C    2.470445   3.288160   1.539124   2.130590   2.176915
    37  O    3.496304   4.386606   2.421079   2.505689   3.056931
    38  N    2.821482   3.446004   2.439847   3.318612   2.834285
    39  H    2.425014   2.813749   2.497404   3.527906   2.759780
    40  C    4.019385   4.690584   3.777331   4.517859   4.278917
    41  H    4.701974   5.212414   4.535549   5.386694   4.851808
    42  H    4.653865   5.424128   4.129923   4.683874   4.650900
    43  C    4.002163   4.710874   4.199710   4.838298   4.941718
    44  O    4.588493   5.411257   4.735511   5.141233   5.622601
    45  O    3.812222   4.291079   4.409879   5.185754   5.058381
    46  H    4.047400   4.509456   4.852736   5.516720   5.600419
                   36         37         38         39         40
    36  C    0.000000
    37  O    1.232380   0.000000
    38  N    1.357706   2.288005   0.000000
    39  H    2.020137   3.151023   1.013586   0.000000
    40  C    2.458660   2.862035   1.461036   2.091326   0.000000
    41  H    3.319457   3.808931   2.097712   2.427272   1.092555
    42  H    2.624244   2.534168   2.091631   2.968041   1.088579
    43  C    3.150044   3.554713   2.401192   2.674503   1.530713
    44  O    3.679324   3.748446   3.308644   3.725367   2.440893
    45  O    3.726389   4.447518   2.799707   2.564348   2.346241
    46  H    4.345438   5.016745   3.623870   3.353384   3.242217
                   41         42         43         44         45
    41  H    0.000000
    42  H    1.780094   0.000000
    43  C    2.170616   2.174347   0.000000
    44  O    3.193391   2.618538   1.224075   0.000000
    45  O    2.600467   3.279726   1.319493   2.254745   0.000000
    46  H    3.586344   4.073782   1.928122   2.383855   1.011909
                   46
    46  H    0.000000
 Symmetry turned off by external request.
 Stoichiometry    C12H21N6O7(1+)
 Framework group  C1[X(C12H21N6O7)]
 Deg. of freedom   132
 Full point group                 C1      NOp   1
 Rotational constants (GHZ):           0.3077490           0.2009739           0.1712806
 Standard basis: 6-31G(d) (6D, 7F)
   417 basis functions,   784 primitive gaussians,   417 cartesian basis functions
    95 alpha electrons       95 beta electrons
       nuclear repulsion energy      2619.6941695479 Hartrees.
 NAtoms=   46 NActive=   46 NUniq=   46 SFac= 1.00D+00 NAtFMM=   60 NAOKFM=F Big=F
 Integral buffers will be    131072 words long.
 Raffenetti 2 integral format.
 Two-electron integral symmetry is turned off.
 Nuclear repulsion after empirical dispersion term =     2619.6258678413 Hartrees.
 One-electron integrals computed using PRISM.
 NBasis=   417 RedAO= T EigKep=  2.45D-03  NBF=   417
 NBsUse=   417 1.00D-06 EigRej= -1.00D+00 NBFU=   417
 Initial guess from the checkpoint file:  "conf-824.chk"
 B after Tr=     0.000000    0.000000    0.000000
         Rot=    1.000000    0.000000    0.000000    0.000000 Ang=   0.00 deg.
 Requested convergence on RMS density matrix=1.00D-08 within 128 cycles.
 Requested convergence on MAX density matrix=1.00D-06.
 Requested convergence on             energy=1.00D-06.
 No special actions if energy rises.
 SCF Done:  E(RB3LYP) =  -1324.97499974     A.U. after    3 cycles
            NFock=  3  Conv=0.71D-09     -V/T= 2.0092

 **********************************************************************

            Population analysis using the SCF Density.

 **********************************************************************

 Alpha  occ. eigenvalues --  -19.30068 -19.26688 -19.26383 -19.26217 -19.25632
 Alpha  occ. eigenvalues --  -19.24551 -19.23422 -14.56735 -14.50921 -14.49988
 Alpha  occ. eigenvalues --  -14.49817 -14.47824 -14.47743 -10.44666 -10.43271
 Alpha  occ. eigenvalues --  -10.43156 -10.42950 -10.41167 -10.40422 -10.38110
 Alpha  occ. eigenvalues --  -10.36916 -10.36057 -10.36045 -10.34687 -10.33829
 Alpha  occ. eigenvalues --   -1.22187  -1.18509  -1.17837  -1.17446  -1.16027
 Alpha  occ. eigenvalues --   -1.14979  -1.13510  -1.11516  -1.07360  -1.05909
 Alpha  occ. eigenvalues --   -1.05675  -1.04768  -1.03547  -0.90243  -0.89325
 Alpha  occ. eigenvalues --   -0.87582  -0.85277  -0.83156  -0.80850  -0.74966
 Alpha  occ. eigenvalues --   -0.73474  -0.72694  -0.72236  -0.71575  -0.70984
 Alpha  occ. eigenvalues --   -0.70500  -0.69347  -0.67221  -0.65868  -0.65221
 Alpha  occ. eigenvalues --   -0.64333  -0.62981  -0.62618  -0.62447  -0.61772
 Alpha  occ. eigenvalues --   -0.60014  -0.59728  -0.59547  -0.59013  -0.58259
 Alpha  occ. eigenvalues --   -0.57791  -0.57421  -0.56142  -0.55460  -0.54530
 Alpha  occ. eigenvalues --   -0.54382  -0.53866  -0.53675  -0.53044  -0.52540
 Alpha  occ. eigenvalues --   -0.52085  -0.51804  -0.50688  -0.50218  -0.49862
 Alpha  occ. eigenvalues --   -0.49475  -0.48951  -0.48414  -0.43847  -0.42552
 Alpha  occ. eigenvalues --   -0.41655  -0.40692  -0.40506  -0.39938  -0.39655
 Alpha  occ. eigenvalues --   -0.39138  -0.38293  -0.37863  -0.36457  -0.36061
 Alpha virt. eigenvalues --   -0.13453  -0.12191  -0.11955  -0.11269  -0.10713
 Alpha virt. eigenvalues --   -0.09302  -0.07077  -0.05674  -0.04135  -0.02132
 Alpha virt. eigenvalues --   -0.01187  -0.00536  -0.00287   0.00336   0.00866
 Alpha virt. eigenvalues --    0.01553   0.02386   0.02902   0.03587   0.03695
 Alpha virt. eigenvalues --    0.04549   0.04924   0.05430   0.06128   0.06423
 Alpha virt. eigenvalues --    0.06892   0.07722   0.08148   0.08393   0.09355
 Alpha virt. eigenvalues --    0.09611   0.10379   0.10442   0.10863   0.12184
 Alpha virt. eigenvalues --    0.12831   0.13960   0.14440   0.16039   0.18198
 Alpha virt. eigenvalues --    0.19406   0.20425   0.21549   0.22092   0.22932
 Alpha virt. eigenvalues --    0.24861   0.25828   0.27542   0.27818   0.28740
 Alpha virt. eigenvalues --    0.30714   0.34158   0.36069   0.37528   0.37995
 Alpha virt. eigenvalues --    0.39326   0.39978   0.40162   0.41104   0.41427
 Alpha virt. eigenvalues --    0.42036   0.42307   0.43200   0.44097   0.44497
 Alpha virt. eigenvalues --    0.44824   0.45927   0.46834   0.47011   0.47216
 Alpha virt. eigenvalues --    0.49063   0.49582   0.50576   0.50768   0.51848
 Alpha virt. eigenvalues --    0.52567   0.53750   0.54401   0.54905   0.55333
 Alpha virt. eigenvalues --    0.55685   0.55900   0.56339   0.57563   0.58408
 Alpha virt. eigenvalues --    0.58751   0.59965   0.60655   0.62119   0.63716
 Alpha virt. eigenvalues --    0.64414   0.65874   0.67220   0.67891   0.68513
 Alpha virt. eigenvalues --    0.68982   0.69939   0.70485   0.70706   0.71242
 Alpha virt. eigenvalues --    0.71499   0.72036   0.73067   0.73383   0.73517
 Alpha virt. eigenvalues --    0.74597   0.74987   0.76082   0.76339   0.77204
 Alpha virt. eigenvalues --    0.77432   0.77800   0.78569   0.79244   0.80438
 Alpha virt. eigenvalues --    0.80956   0.81226   0.82242   0.83074   0.83949
 Alpha virt. eigenvalues --    0.85172   0.86355   0.87637   0.88166   0.89663
 Alpha virt. eigenvalues --    0.90138   0.91179   0.92091   0.93041   0.94159
 Alpha virt. eigenvalues --    0.94882   0.95819   0.96703   0.97938   1.00508
 Alpha virt. eigenvalues --    1.01653   1.02586   1.03386   1.04249   1.05170
 Alpha virt. eigenvalues --    1.05540   1.07039   1.08130   1.08471   1.09274
 Alpha virt. eigenvalues --    1.10852   1.11493   1.12735   1.14754   1.16853
 Alpha virt. eigenvalues --    1.17834   1.18617   1.19486   1.19873   1.20654
 Alpha virt. eigenvalues --    1.23354   1.24724   1.24887   1.25452   1.27099
 Alpha virt. eigenvalues --    1.27581   1.29510   1.30503   1.31432   1.32275
 Alpha virt. eigenvalues --    1.33527   1.34468   1.35827   1.37333   1.38548
 Alpha virt. eigenvalues --    1.39893   1.42436   1.44205   1.45417   1.45980
 Alpha virt. eigenvalues --    1.47864   1.50068   1.52906   1.53382   1.55686
 Alpha virt. eigenvalues --    1.56538   1.57151   1.57835   1.59181   1.60008
 Alpha virt. eigenvalues --    1.61877   1.62436   1.63285   1.64154   1.64525
 Alpha virt. eigenvalues --    1.66100   1.66601   1.66791   1.67673   1.68437
 Alpha virt. eigenvalues --    1.68972   1.70182   1.71077   1.71854   1.72408
 Alpha virt. eigenvalues --    1.72596   1.73804   1.74403   1.74589   1.75753
 Alpha virt. eigenvalues --    1.76363   1.76631   1.78581   1.78664   1.79361
 Alpha virt. eigenvalues --    1.80162   1.80581   1.81256   1.82102   1.82556
 Alpha virt. eigenvalues --    1.83588   1.84913   1.85076   1.85618   1.86303
 Alpha virt. eigenvalues --    1.87698   1.88621   1.89813   1.90732   1.93075
 Alpha virt. eigenvalues --    1.94145   1.94870   1.96566   1.97086   1.98939
 Alpha virt. eigenvalues --    1.99471   2.00942   2.01677   2.02986   2.04011
 Alpha virt. eigenvalues --    2.04368   2.05829   2.10606   2.12255   2.13190
 Alpha virt. eigenvalues --    2.14144   2.17878   2.18885   2.20350   2.20826
 Alpha virt. eigenvalues --    2.22540   2.23061   2.23854   2.25073   2.25385
 Alpha virt. eigenvalues --    2.27824   2.28490   2.29660   2.30295   2.30721
 Alpha virt. eigenvalues --    2.32300   2.32780   2.33646   2.35195   2.37856
 Alpha virt. eigenvalues --    2.39227   2.40797   2.42619   2.44767   2.45066
 Alpha virt. eigenvalues --    2.47113   2.49737   2.50381   2.51582   2.52823
 Alpha virt. eigenvalues --    2.53980   2.55960   2.56836   2.59112   2.60381
 Alpha virt. eigenvalues --    2.61363   2.61955   2.63337   2.66961   2.72305
 Alpha virt. eigenvalues --    2.75798   2.77622   2.78690   2.79407   2.82092
 Alpha virt. eigenvalues --    2.87002   2.87713   2.88099   2.88939   2.90735
 Alpha virt. eigenvalues --    2.94072   2.96365   2.98438   3.00210   3.00857
 Alpha virt. eigenvalues --    3.02535   3.03623   3.75792   3.78546   3.83543
 Alpha virt. eigenvalues --    3.84952   3.87555   3.89087   3.93557   3.94362
 Alpha virt. eigenvalues --    3.99166   4.05205   4.05693   4.08937   4.13635
 Alpha virt. eigenvalues --    4.14930   4.16847   4.17865   4.22416   4.26103
 Alpha virt. eigenvalues --    4.27647   4.35171   4.36618   4.39398   4.42954
 Alpha virt. eigenvalues --    4.45554   4.47652
          Condensed to atoms (all electrons):
               1          2          3          4          5          6
     1  N    6.964060   0.251926   0.297770   0.203092   0.212871  -0.030017
     2  H    0.251926   0.304254  -0.008205  -0.009147  -0.019542  -0.000448
     3  H    0.297770  -0.008205   0.330421  -0.008340  -0.023212  -0.003879
     4  H    0.203092  -0.009147  -0.008340   0.278147  -0.020209   0.002747
     5  C    0.212871  -0.019542  -0.023212  -0.020209   5.354045   0.360809
     6  H   -0.030017  -0.000448  -0.003879   0.002747   0.360809   0.485321
     7  H   -0.029059  -0.004502   0.003614  -0.001106   0.340836  -0.020050
     8  C   -0.029993   0.003074  -0.000238  -0.001506   0.287423  -0.022176
     9  O   -0.002009   0.000596   0.005969   0.011413  -0.092501   0.000548
    10  N    0.002444  -0.000009   0.000205   0.000386  -0.120713   0.000156
    11  H   -0.000003  -0.000015  -0.000011  -0.000033   0.000555   0.000335
    12  C   -0.000094   0.000001  -0.000004  -0.000027   0.007009  -0.000164
    13  H   -0.000005   0.000000  -0.000001  -0.000004   0.000431  -0.000002
    14  H    0.000000  -0.000000  -0.000000  -0.000000  -0.000112   0.000004
    15  C    0.000005   0.000000   0.000000   0.000014  -0.000491  -0.000001
    16  O   -0.000000  -0.000000  -0.000000   0.000000  -0.000006   0.000000
    17  N    0.000004  -0.000000   0.000001  -0.000009  -0.000095  -0.000001
    18  H   -0.000017  -0.000000  -0.000007   0.000004   0.000610  -0.000002
    19  C   -0.000000  -0.000000  -0.000000   0.000000   0.000005  -0.000000
    20  H    0.000000  -0.000000   0.000000  -0.000000  -0.000000  -0.000000
    21  H    0.000000   0.000000   0.000000  -0.000000  -0.000000  -0.000000
    22  C    0.000000   0.000000   0.000000  -0.000001  -0.000003  -0.000000
    23  O   -0.000000  -0.000000  -0.000000  -0.000005   0.000000   0.000000
    24  N    0.000000   0.000000   0.000000  -0.000001  -0.000006  -0.000000
    25  H    0.000000  -0.000000  -0.000000   0.000000  -0.000003  -0.000000
    26  C   -0.000001  -0.000000  -0.000000   0.000007  -0.000025   0.000000
    27  H    0.000000   0.000000  -0.000000  -0.000002  -0.000000  -0.000000
    28  H    0.000000   0.000000   0.000000  -0.000000   0.000000  -0.000000
    29  C    0.000022  -0.000016   0.000000  -0.000107   0.000020  -0.000007
    30  O   -0.000165  -0.000116   0.000000   0.001852  -0.009664   0.000297
    31  N    0.000002  -0.000020  -0.000000   0.000001   0.000099  -0.000000
    32  H   -0.000000   0.000001   0.000000  -0.000000   0.000000  -0.000000
    33  C   -0.000221   0.001013   0.000002  -0.000034  -0.000199   0.000000
    34  H    0.000010  -0.000052  -0.000001  -0.000002  -0.000231  -0.000004
    35  H    0.000001  -0.000013   0.000000   0.000000  -0.000003   0.000000
    36  C    0.001266  -0.004620   0.000042   0.000773  -0.000685   0.000023
    37  O   -0.025541   0.053639   0.000683  -0.000617  -0.002408  -0.000051
    38  N    0.000278  -0.001229  -0.000016  -0.000078   0.000027  -0.000001
    39  H    0.000008  -0.000015  -0.000000  -0.000025  -0.000000   0.000000
    40  C   -0.000265   0.000569   0.000008  -0.000523  -0.000051   0.000000
    41  H   -0.000003   0.000001   0.000000   0.000062   0.000000  -0.000000
    42  H    0.000327   0.001955  -0.000004   0.000212   0.000069  -0.000001
    43  C    0.002434  -0.000032   0.000041  -0.005420   0.000061  -0.000000
    44  O   -0.038947   0.000180   0.000660   0.084622   0.001202  -0.000024
    45  O   -0.000031  -0.000001   0.000000   0.000494   0.000003  -0.000000
    46  H    0.000005   0.000000  -0.000000  -0.000033  -0.000000   0.000000
               7          8          9         10         11         12
     1  N   -0.029059  -0.029993  -0.002009   0.002444  -0.000003  -0.000094
     2  H   -0.004502   0.003074   0.000596  -0.000009  -0.000015   0.000001
     3  H    0.003614  -0.000238   0.005969   0.000205  -0.000011  -0.000004
     4  H   -0.001106  -0.001506   0.011413   0.000386  -0.000033  -0.000027
     5  C    0.340836   0.287423  -0.092501  -0.120713   0.000555   0.007009
     6  H   -0.020050  -0.022176   0.000548   0.000156   0.000335  -0.000164
     7  H    0.448049  -0.020124   0.001231   0.001628   0.001590  -0.000077
     8  C   -0.020124   4.338489   0.549113   0.299280  -0.021933  -0.025091
     9  O    0.001231   0.549113   8.103001  -0.090752   0.002862   0.006249
    10  N    0.001628   0.299280  -0.090752   7.044235   0.306614   0.260054
    11  H    0.001590  -0.021933   0.002862   0.306614   0.379709  -0.028723
    12  C   -0.000077  -0.025091   0.006249   0.260054  -0.028723   5.132159
    13  H   -0.000010  -0.004601   0.007085  -0.036115   0.004148   0.359898
    14  H   -0.000004   0.005063   0.000374  -0.029951  -0.002862   0.360335
    15  C    0.000014  -0.006518  -0.002133  -0.051607   0.000661   0.334075
    16  O   -0.000003  -0.000292   0.000014  -0.000864   0.001577  -0.067960
    17  N    0.000019   0.005721  -0.009688   0.000029   0.000122  -0.106760
    18  H   -0.000028  -0.000007   0.027311  -0.003224  -0.000068   0.001415
    19  C    0.000001  -0.000315   0.000196  -0.000227   0.000001   0.006830
    20  H    0.000000   0.000013  -0.000010  -0.000002  -0.000000  -0.000093
    21  H    0.000000   0.000003  -0.000004  -0.000013  -0.000001   0.000336
    22  C   -0.000011   0.000151   0.000024   0.000074   0.000010  -0.000420
    23  O    0.000000  -0.000006  -0.000002   0.000000   0.000000  -0.000001
    24  N   -0.000005   0.000058  -0.000001   0.000028   0.000002  -0.000268
    25  H   -0.000000  -0.000023   0.000006  -0.000168   0.000006   0.001312
    26  C    0.000174  -0.000034   0.000002   0.000005  -0.000010   0.000022
    27  H   -0.000001   0.000001  -0.000000   0.000000   0.000000  -0.000000
    28  H   -0.000003   0.000000  -0.000000   0.000000  -0.000001   0.000000
    29  C    0.000059   0.000083  -0.000009   0.000154   0.000121  -0.000031
    30  O    0.019283   0.003817  -0.000237  -0.000979   0.001118  -0.000385
    31  N   -0.000657   0.000012  -0.000000  -0.000001  -0.000005  -0.000000
    32  H   -0.000002  -0.000000   0.000000   0.000000  -0.000000   0.000000
    33  C    0.000162  -0.000034   0.000000   0.000000   0.000003  -0.000000
    34  H    0.001858   0.000025   0.000000  -0.000003   0.000017  -0.000000
    35  H    0.000035   0.000000   0.000000  -0.000000  -0.000000   0.000000
    36  C    0.001379  -0.000036  -0.000001  -0.000001  -0.000004   0.000000
    37  O    0.009764   0.000165  -0.000001  -0.000001  -0.000002   0.000000
    38  N   -0.000001   0.000009   0.000000  -0.000000   0.000000  -0.000000
    39  H   -0.000005  -0.000000   0.000000   0.000000   0.000000  -0.000000
    40  C   -0.000009  -0.000000  -0.000002   0.000000   0.000000   0.000000
    41  H   -0.000001  -0.000000  -0.000000  -0.000000   0.000000   0.000000
    42  H   -0.000046  -0.000011  -0.000001  -0.000000   0.000000  -0.000000
    43  C    0.000091   0.000012   0.000006  -0.000001  -0.000000   0.000000
    44  O    0.000048   0.000363  -0.000354  -0.000001   0.000000  -0.000000
    45  O    0.000001  -0.000003   0.000000  -0.000000   0.000000   0.000000
    46  H   -0.000000   0.000001  -0.000002   0.000000   0.000000  -0.000000
              13         14         15         16         17         18
     1  N   -0.000005   0.000000   0.000005  -0.000000   0.000004  -0.000017
     2  H    0.000000  -0.000000   0.000000  -0.000000  -0.000000  -0.000000
     3  H   -0.000001  -0.000000   0.000000  -0.000000   0.000001  -0.000007
     4  H   -0.000004  -0.000000   0.000014   0.000000  -0.000009   0.000004
     5  C    0.000431  -0.000112  -0.000491  -0.000006  -0.000095   0.000610
     6  H   -0.000002   0.000004  -0.000001   0.000000  -0.000001  -0.000002
     7  H   -0.000010  -0.000004   0.000014  -0.000003   0.000019  -0.000028
     8  C   -0.004601   0.005063  -0.006518  -0.000292   0.005721  -0.000007
     9  O    0.007085   0.000374  -0.002133   0.000014  -0.009688   0.027311
    10  N   -0.036115  -0.029951  -0.051607  -0.000864   0.000029  -0.003224
    11  H    0.004148  -0.002862   0.000661   0.001577   0.000122  -0.000068
    12  C    0.359898   0.360335   0.334075  -0.067960  -0.106760   0.001415
    13  H    0.504075  -0.018959  -0.034826   0.002347   0.006402   0.000151
    14  H   -0.018959   0.498609  -0.029822   0.003595   0.004555  -0.000003
    15  C   -0.034826  -0.029822   4.421856   0.526113   0.277515  -0.014225
    16  O    0.002347   0.003595   0.526113   8.112613  -0.102257   0.002822
    17  N    0.006402   0.004555   0.277515  -0.102257   7.080191   0.283168
    18  H    0.000151  -0.000003  -0.014225   0.002822   0.283168   0.346009
    19  C   -0.000105  -0.000176  -0.026198   0.011304   0.251638  -0.023472
    20  H   -0.000027   0.000002   0.004609   0.000462  -0.028155  -0.002932
    21  H   -0.000040   0.000005  -0.003363   0.007109  -0.038671   0.002970
    22  C    0.000025   0.000002  -0.006533  -0.005183  -0.046919   0.000876
    23  O    0.000000   0.000000  -0.000161  -0.000000  -0.000113   0.000347
    24  N    0.000000   0.000004   0.006530  -0.024022   0.002976   0.000064
    25  H   -0.000026  -0.000015  -0.002172   0.059305  -0.007410  -0.000036
    26  C   -0.000000  -0.000000  -0.000721   0.000823  -0.000344   0.000018
    27  H    0.000000   0.000000   0.000001  -0.000013  -0.000013  -0.000001
    28  H    0.000000   0.000000   0.000023  -0.000014  -0.000007  -0.000000
    29  C    0.000000   0.000000   0.000294   0.000062  -0.000038   0.000000
    30  O   -0.000001  -0.000001   0.001697  -0.000178  -0.000098   0.000015
    31  N   -0.000000  -0.000000   0.000004  -0.000000  -0.000001   0.000000
    32  H    0.000000   0.000000  -0.000000   0.000000   0.000000  -0.000000
    33  C   -0.000000  -0.000000  -0.000000  -0.000000   0.000000  -0.000000
    34  H   -0.000000  -0.000000   0.000000   0.000000  -0.000000   0.000000
    35  H   -0.000000   0.000000  -0.000000   0.000000  -0.000000   0.000000
    36  C    0.000000   0.000000  -0.000000   0.000000  -0.000000  -0.000000
    37  O    0.000000   0.000000   0.000000  -0.000000  -0.000000   0.000000
    38  N   -0.000000  -0.000000   0.000000  -0.000000  -0.000000  -0.000000
    39  H   -0.000000  -0.000000   0.000000  -0.000000  -0.000000   0.000000
    40  C    0.000000   0.000000   0.000000  -0.000000   0.000000   0.000000
    41  H    0.000000   0.000000  -0.000000  -0.000000  -0.000000  -0.000000
    42  H    0.000000  -0.000000  -0.000000   0.000000  -0.000000  -0.000000
    43  C   -0.000000  -0.000000   0.000001  -0.000000   0.000006   0.000005
    44  O    0.000000  -0.000000   0.000002  -0.000000   0.000002   0.000091
    45  O   -0.000000   0.000000   0.000000  -0.000000   0.000002  -0.000001
    46  H    0.000000   0.000000  -0.000000   0.000000  -0.000093   0.000004
              19         20         21         22         23         24
     1  N   -0.000000   0.000000   0.000000   0.000000  -0.000000   0.000000
     2  H   -0.000000  -0.000000   0.000000   0.000000  -0.000000   0.000000
     3  H   -0.000000   0.000000   0.000000   0.000000  -0.000000   0.000000
     4  H    0.000000  -0.000000  -0.000000  -0.000001  -0.000005  -0.000001
     5  C    0.000005  -0.000000  -0.000000  -0.000003   0.000000  -0.000006
     6  H   -0.000000  -0.000000  -0.000000  -0.000000   0.000000  -0.000000
     7  H    0.000001   0.000000   0.000000  -0.000011   0.000000  -0.000005
     8  C   -0.000315   0.000013   0.000003   0.000151  -0.000006   0.000058
     9  O    0.000196  -0.000010  -0.000004   0.000024  -0.000002  -0.000001
    10  N   -0.000227  -0.000002  -0.000013   0.000074   0.000000   0.000028
    11  H    0.000001  -0.000000  -0.000001   0.000010   0.000000   0.000002
    12  C    0.006830  -0.000093   0.000336  -0.000420  -0.000001  -0.000268
    13  H   -0.000105  -0.000027  -0.000040   0.000025   0.000000   0.000000
    14  H   -0.000176   0.000002   0.000005   0.000002   0.000000   0.000004
    15  C   -0.026198   0.004609  -0.003363  -0.006533  -0.000161   0.006530
    16  O    0.011304   0.000462   0.007109  -0.005183  -0.000000  -0.024022
    17  N    0.251638  -0.028155  -0.038671  -0.046919  -0.000113   0.002976
    18  H   -0.023472  -0.002932   0.002970   0.000876   0.000347   0.000064
    19  C    5.117079   0.357100   0.362875   0.347006  -0.066088  -0.104673
    20  H    0.357100   0.500001  -0.017240  -0.031824   0.004712   0.005044
    21  H    0.362875  -0.017240   0.504197  -0.036952   0.001977   0.004676
    22  C    0.347006  -0.031824  -0.036952   4.394883   0.503921   0.297168
    23  O   -0.066088   0.004712   0.001977   0.503921   8.132989  -0.092697
    24  N   -0.104673   0.005044   0.004676   0.297168  -0.092697   7.067216
    25  H    0.002798   0.000031  -0.000752  -0.014292   0.002426   0.253572
    26  C    0.007608  -0.000179  -0.000128  -0.032607   0.005617   0.265127
    27  H    0.000381  -0.000008  -0.000043  -0.001378   0.012131  -0.036065
    28  H   -0.000133   0.000002  -0.000010   0.003992   0.000388  -0.031123
    29  C   -0.000334   0.000001   0.000010  -0.000072  -0.001140  -0.050477
    30  O   -0.000313  -0.000000   0.000001   0.008587  -0.000770  -0.003596
    31  N   -0.000002  -0.000000   0.000000   0.000270  -0.000021   0.003008
    32  H   -0.000000   0.000000  -0.000000  -0.000013  -0.000001   0.000052
    33  C   -0.000000   0.000000   0.000000  -0.000009   0.000001  -0.000119
    34  H   -0.000000  -0.000000   0.000000  -0.000000   0.000000   0.000005
    35  H    0.000000  -0.000000  -0.000000  -0.000000  -0.000000   0.000001
    36  C    0.000000  -0.000000  -0.000000  -0.000000  -0.000001  -0.000001
    37  O   -0.000000   0.000000   0.000000   0.000000  -0.000000   0.000000
    38  N    0.000000  -0.000000   0.000000  -0.000003   0.000000   0.000002
    39  H   -0.000000  -0.000000   0.000000  -0.000004   0.000006   0.000005
    40  C   -0.000001   0.000000   0.000000   0.000028  -0.000059   0.000000
    41  H    0.000000  -0.000000   0.000000  -0.000000   0.000000   0.000000
    42  H    0.000000  -0.000000  -0.000000  -0.000000   0.000001  -0.000000
    43  C   -0.000049   0.000002   0.000001   0.001159   0.000663  -0.000113
    44  O   -0.000047   0.000004  -0.000000   0.000942  -0.000808  -0.000013
    45  O   -0.000058   0.000000   0.000000   0.002638  -0.035659  -0.000006
    46  H    0.001252  -0.000004  -0.000026  -0.006541   0.083883  -0.001121
              25         26         27         28         29         30
     1  N    0.000000  -0.000001   0.000000   0.000000   0.000022  -0.000165
     2  H   -0.000000  -0.000000   0.000000   0.000000  -0.000016  -0.000116
     3  H   -0.000000  -0.000000  -0.000000   0.000000   0.000000   0.000000
     4  H    0.000000   0.000007  -0.000002  -0.000000  -0.000107   0.001852
     5  C   -0.000003  -0.000025  -0.000000   0.000000   0.000020  -0.009664
     6  H   -0.000000   0.000000  -0.000000  -0.000000  -0.000007   0.000297
     7  H   -0.000000   0.000174  -0.000001  -0.000003   0.000059   0.019283
     8  C   -0.000023  -0.000034   0.000001   0.000000   0.000083   0.003817
     9  O    0.000006   0.000002  -0.000000  -0.000000  -0.000009  -0.000237
    10  N   -0.000168   0.000005   0.000000   0.000000   0.000154  -0.000979
    11  H    0.000006  -0.000010   0.000000  -0.000001   0.000121   0.001118
    12  C    0.001312   0.000022  -0.000000   0.000000  -0.000031  -0.000385
    13  H   -0.000026  -0.000000   0.000000   0.000000   0.000000  -0.000001
    14  H   -0.000015  -0.000000   0.000000   0.000000   0.000000  -0.000001
    15  C   -0.002172  -0.000721   0.000001   0.000023   0.000294   0.001697
    16  O    0.059305   0.000823  -0.000013  -0.000014   0.000062  -0.000178
    17  N   -0.007410  -0.000344  -0.000013  -0.000007  -0.000038  -0.000098
    18  H   -0.000036   0.000018  -0.000001  -0.000000   0.000000   0.000015
    19  C    0.002798   0.007608   0.000381  -0.000133  -0.000334  -0.000313
    20  H    0.000031  -0.000179  -0.000008   0.000002   0.000001  -0.000000
    21  H   -0.000752  -0.000128  -0.000043  -0.000010   0.000010   0.000001
    22  C   -0.014292  -0.032607  -0.001378   0.003992  -0.000072   0.008587
    23  O    0.002426   0.005617   0.012131   0.000388  -0.001140  -0.000770
    24  N    0.253572   0.265127  -0.036065  -0.031123  -0.050477  -0.003596
    25  H    0.333897  -0.021739   0.002809  -0.002055   0.000983   0.000960
    26  C   -0.021739   5.202744   0.358049   0.360083   0.306973  -0.080080
    27  H    0.002809   0.358049   0.495225  -0.020120  -0.034298  -0.000408
    28  H   -0.002055   0.360083  -0.020120   0.518578  -0.034327   0.001440
    29  C    0.000983   0.306973  -0.034298  -0.034327   4.436214   0.551380
    30  O    0.000960  -0.080080  -0.000408   0.001440   0.551380   8.109691
    31  N    0.000021  -0.113967   0.001393   0.003076   0.248526  -0.098967
    32  H   -0.000006   0.002934   0.000289   0.002069  -0.022891   0.003045
    33  C    0.000001   0.006067  -0.000156  -0.000230  -0.027626   0.008276
    34  H   -0.000000   0.000110  -0.000008   0.000001  -0.002353   0.002191
    35  H   -0.000000  -0.000064   0.000005  -0.000007   0.004971   0.000538
    36  C   -0.000000  -0.000213   0.000011   0.000008  -0.004034   0.014995
    37  O    0.000000  -0.000014   0.000000   0.000000  -0.000294  -0.002510
    38  N    0.000000  -0.000306   0.000059  -0.000001   0.001858  -0.002915
    39  H    0.000000  -0.000133   0.000226   0.000005   0.001025  -0.000841
    40  C   -0.000000   0.000018  -0.000029  -0.000001  -0.001574  -0.000897
    41  H    0.000000  -0.000001   0.000001  -0.000000   0.000004  -0.000003
    42  H    0.000000  -0.000000   0.000001  -0.000000   0.000007   0.000021
    43  C   -0.000002   0.000175  -0.000197   0.000004   0.002052   0.006592
    44  O    0.000000  -0.000037   0.000021  -0.000000  -0.000235  -0.000769
    45  O   -0.000003  -0.001029   0.004195   0.000040   0.004615  -0.001347
    46  H   -0.000023   0.001021  -0.000353   0.000018  -0.000269   0.000456
              31         32         33         34         35         36
     1  N    0.000002  -0.000000  -0.000221   0.000010   0.000001   0.001266
     2  H   -0.000020   0.000001   0.001013  -0.000052  -0.000013  -0.004620
     3  H   -0.000000   0.000000   0.000002  -0.000001   0.000000   0.000042
     4  H    0.000001  -0.000000  -0.000034  -0.000002   0.000000   0.000773
     5  C    0.000099   0.000000  -0.000199  -0.000231  -0.000003  -0.000685
     6  H   -0.000000  -0.000000   0.000000  -0.000004   0.000000   0.000023
     7  H   -0.000657  -0.000002   0.000162   0.001858   0.000035   0.001379
     8  C    0.000012  -0.000000  -0.000034   0.000025   0.000000  -0.000036
     9  O   -0.000000   0.000000   0.000000   0.000000   0.000000  -0.000001
    10  N   -0.000001   0.000000   0.000000  -0.000003  -0.000000  -0.000001
    11  H   -0.000005  -0.000000   0.000003   0.000017  -0.000000  -0.000004
    12  C   -0.000000   0.000000  -0.000000  -0.000000   0.000000   0.000000
    13  H   -0.000000   0.000000  -0.000000  -0.000000  -0.000000   0.000000
    14  H   -0.000000   0.000000  -0.000000  -0.000000   0.000000   0.000000
    15  C    0.000004  -0.000000  -0.000000   0.000000  -0.000000  -0.000000
    16  O   -0.000000   0.000000  -0.000000   0.000000   0.000000   0.000000
    17  N   -0.000001   0.000000   0.000000  -0.000000  -0.000000  -0.000000
    18  H    0.000000  -0.000000  -0.000000   0.000000   0.000000  -0.000000
    19  C   -0.000002  -0.000000  -0.000000  -0.000000   0.000000   0.000000
    20  H   -0.000000   0.000000   0.000000  -0.000000  -0.000000  -0.000000
    21  H    0.000000  -0.000000   0.000000   0.000000  -0.000000  -0.000000
    22  C    0.000270  -0.000013  -0.000009  -0.000000  -0.000000  -0.000000
    23  O   -0.000021  -0.000001   0.000001   0.000000  -0.000000  -0.000001
    24  N    0.003008   0.000052  -0.000119   0.000005   0.000001  -0.000001
    25  H    0.000021  -0.000006   0.000001  -0.000000  -0.000000  -0.000000
    26  C   -0.113967   0.002934   0.006067   0.000110  -0.000064  -0.000213
    27  H    0.001393   0.000289  -0.000156  -0.000008   0.000005   0.000011
    28  H    0.003076   0.002069  -0.000230   0.000001  -0.000007   0.000008
    29  C    0.248526  -0.022891  -0.027626  -0.002353   0.004971  -0.004034
    30  O   -0.098967   0.003045   0.008276   0.002191   0.000538   0.014995
    31  N    7.139027   0.308517   0.221369  -0.038079  -0.029131  -0.050162
    32  H    0.308517   0.372463  -0.024154   0.001713  -0.004192   0.002148
    33  C    0.221369  -0.024154   5.163335   0.366641   0.357341   0.336984
    34  H   -0.038079   0.001713   0.366641   0.509996  -0.022082  -0.037021
    35  H   -0.029131  -0.004192   0.357341  -0.022082   0.501724  -0.021312
    36  C   -0.050162   0.002148   0.336984  -0.037021  -0.021312   4.393448
    37  O    0.001568  -0.000059  -0.066540   0.005487   0.001345   0.522288
    38  N    0.000443  -0.000064  -0.121818   0.005139   0.000753   0.278074
    39  H    0.014627  -0.000068  -0.004639   0.000428   0.000111  -0.028609
    40  C   -0.000021   0.000020   0.007767  -0.000157  -0.000100  -0.028207
    41  H   -0.000002   0.000001  -0.000185   0.000001   0.000004   0.004165
    42  H   -0.000056   0.000001   0.000467  -0.000015  -0.000016  -0.002911
    43  C   -0.000324   0.000003  -0.000253   0.000007  -0.000000   0.000033
    44  O    0.000039   0.000000  -0.000015   0.000002  -0.000000   0.001847
    45  O   -0.000641  -0.000024  -0.000018  -0.000000   0.000001  -0.000322
    46  H    0.000012  -0.000003   0.000009   0.000000  -0.000000  -0.000037
              37         38         39         40         41         42
     1  N   -0.025541   0.000278   0.000008  -0.000265  -0.000003   0.000327
     2  H    0.053639  -0.001229  -0.000015   0.000569   0.000001   0.001955
     3  H    0.000683  -0.000016  -0.000000   0.000008   0.000000  -0.000004
     4  H   -0.000617  -0.000078  -0.000025  -0.000523   0.000062   0.000212
     5  C   -0.002408   0.000027  -0.000000  -0.000051   0.000000   0.000069
     6  H   -0.000051  -0.000001   0.000000   0.000000  -0.000000  -0.000001
     7  H    0.009764  -0.000001  -0.000005  -0.000009  -0.000001  -0.000046
     8  C    0.000165   0.000009  -0.000000  -0.000000  -0.000000  -0.000011
     9  O   -0.000001   0.000000   0.000000  -0.000002  -0.000000  -0.000001
    10  N   -0.000001  -0.000000   0.000000   0.000000  -0.000000  -0.000000
    11  H   -0.000002   0.000000   0.000000   0.000000   0.000000   0.000000
    12  C    0.000000  -0.000000  -0.000000   0.000000   0.000000  -0.000000
    13  H    0.000000  -0.000000  -0.000000   0.000000   0.000000   0.000000
    14  H    0.000000  -0.000000  -0.000000   0.000000   0.000000  -0.000000
    15  C    0.000000   0.000000   0.000000   0.000000  -0.000000  -0.000000
    16  O   -0.000000  -0.000000  -0.000000  -0.000000  -0.000000   0.000000
    17  N   -0.000000  -0.000000  -0.000000   0.000000  -0.000000  -0.000000
    18  H    0.000000  -0.000000   0.000000   0.000000  -0.000000  -0.000000
    19  C   -0.000000   0.000000  -0.000000  -0.000001   0.000000   0.000000
    20  H    0.000000  -0.000000  -0.000000   0.000000  -0.000000  -0.000000
    21  H    0.000000   0.000000   0.000000   0.000000   0.000000  -0.000000
    22  C    0.000000  -0.000003  -0.000004   0.000028  -0.000000  -0.000000
    23  O   -0.000000   0.000000   0.000006  -0.000059   0.000000   0.000001
    24  N    0.000000   0.000002   0.000005   0.000000   0.000000  -0.000000
    25  H    0.000000   0.000000   0.000000  -0.000000   0.000000   0.000000
    26  C   -0.000014  -0.000306  -0.000133   0.000018  -0.000001  -0.000000
    27  H    0.000000   0.000059   0.000226  -0.000029   0.000001   0.000001
    28  H    0.000000  -0.000001   0.000005  -0.000001  -0.000000  -0.000000
    29  C   -0.000294   0.001858   0.001025  -0.001574   0.000004   0.000007
    30  O   -0.002510  -0.002915  -0.000841  -0.000897  -0.000003   0.000021
    31  N    0.001568   0.000443   0.014627  -0.000021  -0.000002  -0.000056
    32  H   -0.000059  -0.000064  -0.000068   0.000020   0.000001   0.000001
    33  C   -0.066540  -0.121818  -0.004639   0.007767  -0.000185   0.000467
    34  H    0.005487   0.005139   0.000428  -0.000157   0.000001  -0.000015
    35  H    0.001345   0.000753   0.000111  -0.000100   0.000004  -0.000016
    36  C    0.522288   0.278074  -0.028609  -0.028207   0.004165  -0.002911
    37  O    8.132697  -0.090237   0.003225   0.001884   0.000287   0.010077
    38  N   -0.090237   7.040798   0.300912   0.255549  -0.030012  -0.035484
    39  H    0.003225   0.300912   0.383058  -0.031754  -0.001913   0.004359
    40  C    0.001884   0.255549  -0.031754   5.128118   0.356369   0.361955
    41  H    0.000287  -0.030012  -0.001913   0.356369   0.495383  -0.020507
    42  H    0.010077  -0.035484   0.004359   0.361955  -0.020507   0.515894
    43  C   -0.000375  -0.052879  -0.003636   0.337738  -0.025935  -0.032915
    44  O   -0.000286  -0.000485   0.000011  -0.065934   0.002490   0.001906
    45  O    0.000008  -0.001402   0.010421  -0.101816   0.001987   0.003214
    46  H    0.000001  -0.000384  -0.000147   0.005169  -0.000204  -0.000118
              43         44         45         46
     1  N    0.002434  -0.038947  -0.000031   0.000005
     2  H   -0.000032   0.000180  -0.000001   0.000000
     3  H    0.000041   0.000660   0.000000  -0.000000
     4  H   -0.005420   0.084622   0.000494  -0.000033
     5  C    0.000061   0.001202   0.000003  -0.000000
     6  H   -0.000000  -0.000024  -0.000000   0.000000
     7  H    0.000091   0.000048   0.000001  -0.000000
     8  C    0.000012   0.000363  -0.000003   0.000001
     9  O    0.000006  -0.000354   0.000000  -0.000002
    10  N   -0.000001  -0.000001  -0.000000   0.000000
    11  H   -0.000000   0.000000   0.000000   0.000000
    12  C    0.000000  -0.000000   0.000000  -0.000000
    13  H   -0.000000   0.000000  -0.000000   0.000000
    14  H   -0.000000  -0.000000   0.000000   0.000000
    15  C    0.000001   0.000002   0.000000  -0.000000
    16  O   -0.000000  -0.000000  -0.000000   0.000000
    17  N    0.000006   0.000002   0.000002  -0.000093
    18  H    0.000005   0.000091  -0.000001   0.000004
    19  C   -0.000049  -0.000047  -0.000058   0.001252
    20  H    0.000002   0.000004   0.000000  -0.000004
    21  H    0.000001  -0.000000   0.000000  -0.000026
    22  C    0.001159   0.000942   0.002638  -0.006541
    23  O    0.000663  -0.000808  -0.035659   0.083883
    24  N   -0.000113  -0.000013  -0.000006  -0.001121
    25  H   -0.000002   0.000000  -0.000003  -0.000023
    26  C    0.000175  -0.000037  -0.001029   0.001021
    27  H   -0.000197   0.000021   0.004195  -0.000353
    28  H    0.000004  -0.000000   0.000040   0.000018
    29  C    0.002052  -0.000235   0.004615  -0.000269
    30  O    0.006592  -0.000769  -0.001347   0.000456
    31  N   -0.000324   0.000039  -0.000641   0.000012
    32  H    0.000003   0.000000  -0.000024  -0.000003
    33  C   -0.000253  -0.000015  -0.000018   0.000009
    34  H    0.000007   0.000002  -0.000000   0.000000
    35  H   -0.000000  -0.000000   0.000001  -0.000000
    36  C    0.000033   0.001847  -0.000322  -0.000037
    37  O   -0.000375  -0.000286   0.000008   0.000001
    38  N   -0.052879  -0.000485  -0.001402  -0.000384
    39  H   -0.003636   0.000011   0.010421  -0.000147
    40  C    0.337738  -0.065934  -0.101816   0.005169
    41  H   -0.025935   0.002490   0.001987  -0.000204
    42  H   -0.032915   0.001906   0.003214  -0.000118
    43  C    4.369836   0.478082   0.318190  -0.006391
    44  O    0.478082   8.101714  -0.074304   0.005467
    45  O    0.318190  -0.074304   8.291920   0.169693
    46  H   -0.006391   0.005467   0.169693   0.264218
 Mulliken charges:
               1
     1  N   -0.780153
     2  H    0.430776
     3  H    0.404501
     4  H    0.463404
     5  C   -0.275914
     6  H    0.226588
     7  H    0.245871
     8  C    0.640067
     9  O   -0.518295
    10  N   -0.580658
    11  H    0.354220
    12  C   -0.239594
    13  H    0.210159
    14  H    0.209358
    15  C    0.605356
    16  O   -0.527356
    17  N   -0.571683
    18  H    0.378142
    19  C   -0.243882
    20  H    0.208492
    21  H    0.213084
    22  C    0.621013
    23  O   -0.551533
    24  N   -0.561233
    25  H    0.390598
    26  C   -0.265944
    27  H    0.218295
    28  H    0.198306
    29  C    0.620699
    30  O   -0.531012
    31  N   -0.609960
    32  H    0.358220
    33  C   -0.223188
    34  H    0.206377
    35  H    0.210091
    36  C    0.620692
    37  O   -0.554185
    38  N   -0.546587
    39  H    0.353362
    40  C   -0.223792
    41  H    0.218011
    42  H    0.191619
    43  C    0.611328
    44  O   -0.497436
    45  O   -0.590758
    46  H    0.484534
 Sum of Mulliken charges =   1.00000
 Mulliken charges with hydrogens summed into heavy atoms:
               1
     1  N    0.518528
     5  C    0.196544
     8  C    0.640067
     9  O   -0.518295
    10  N   -0.226438
    12  C    0.179922
    15  C    0.605356
    16  O   -0.527356
    17  N   -0.193541
    19  C    0.177694
    22  C    0.621013
    23  O   -0.551533
    24  N   -0.170635
    26  C    0.150657
    29  C    0.620699
    30  O   -0.531012
    31  N   -0.251740
    33  C    0.193279
    36  C    0.620692
    37  O   -0.554185
    38  N   -0.193225
    40  C    0.185837
    43  C    0.611328
    44  O   -0.497436
    45  O   -0.106224
 Electronic spatial extent (au):  <R**2>=           7179.1211
 Charge=              1.0000 electrons
 Dipole moment (field-independent basis, Debye):
    X=              1.7473    Y=              1.7322    Z=              6.5364  Tot=              6.9841
 Quadrupole moment (field-independent basis, Debye-Ang):
   XX=           -116.7925   YY=           -104.5046   ZZ=           -115.9922
   XY=             -4.4257   XZ=             13.3209   YZ=             -7.8948
 Traceless Quadrupole moment (field-independent basis, Debye-Ang):
   XX=             -4.3627   YY=              7.9252   ZZ=             -3.5624
   XY=             -4.4257   XZ=             13.3209   YZ=             -7.8948
 Octapole moment (field-independent basis, Debye-Ang**2):
  XXX=            -18.3461  YYY=             91.6852  ZZZ=            -35.4944  XYY=             -5.3694
  XXY=             55.8587  XXZ=            -10.6026  XZZ=            -27.9256  YZZ=            -42.7016
  YYZ=             14.8229  XYZ=            -28.5782
 Hexadecapole moment (field-independent basis, Debye-Ang**3):
 XXXX=          -3350.6638 YYYY=          -2122.2979 ZZZZ=          -2312.8168 XXXY=            -95.8183
 XXXZ=           -672.3519 YYYX=             83.5389 YYYZ=           -195.5447 ZZZX=           -620.9314
 ZZZY=           -273.3255 XXYY=          -1022.7329 XXZZ=          -1006.7627 YYZZ=           -803.6936
 XXYZ=           -100.2757 YYXZ=           -221.7732 ZZXY=            -60.9901
 N-N= 2.619625867841D+03 E-N=-8.311890477004D+03  KE= 1.312933115155D+03
 Unable to Open any file for archive entry.
 1\1\GINC-VIM-001\SP\RB3LYP\6-31G(d)\C12H21N6O7(1+)\KENGMITH\30-Jun-202
 2\0\\# B3LYP/6-31G* empiricaldispersion=gd3 guess=read geom=check nosy
 mm integral(ultrafinegrid)\\Candidate Structure: Conf:824 Charge calc 
 in gas phase\\1,1\N,0,0.906660585,2.8368055488,0.4487381195\H,0,1.5176
 027628,2.8489901257,1.2838833925\H,0,0.9733891774,3.7014116276,-0.0935
 752085\H,0,1.2757430255,2.0632734146,-0.16232839\C,0,-0.4904070382,2.5
 659255,0.8954431975\H,0,-0.9009226406,3.4759294207,1.3412625251\H,0,-0
 .4286116401,1.7830171767,1.6499913197\C,0,-1.3066449002,2.1130829085,-
 0.3115853944\O,0,-0.8629552251,2.2497064613,-1.4489768097\N,0,-2.52496
 88088,1.6018642478,-0.0198308215\H,0,-2.716419338,1.3101984767,0.93031
 5621\C,0,-3.3618260095,1.0272190156,-1.0732997628\H,0,-3.3186470626,1.
 6858237717,-1.9432538136\H,0,-4.3889583705,0.9642156134,-0.7129424712\
 C,0,-2.8760109038,-0.3907520746,-1.3914894587\O,0,-3.329945804,-1.3669
 970774,-0.7899509788\N,0,-1.8889954963,-0.4731652823,-2.3173030676\H,0
 ,-1.4175822779,0.3833384273,-2.5910480806\C,0,-1.2726209528,-1.7527302
 139,-2.6520615802\H,0,-0.7496872155,-1.658904806,-3.6035004475\H,0,-2.
 0637854702,-2.5028404271,-2.7419218596\C,0,-0.2481972263,-2.1732522381
 ,-1.5926324013\O,0,0.9625692792,-2.1344507896,-1.8398089237\N,0,-0.780
 9613319,-2.5760653155,-0.4151585009\H,0,-1.78812606,-2.4389258951,-0.3
 099438024\C,0,0.0202188108,-2.805439845,0.759563142\H,0,0.9941514632,-
 3.2010547669,0.4517201963\H,0,-0.4605360278,-3.5604808721,1.391035056\
 C,0,0.2612814215,-1.5116968455,1.5548438127\O,0,-0.0045719045,-0.40268
 04505,1.0964307157\N,0,0.8571727911,-1.6564862903,2.7737464289\H,0,0.9
 596683468,-2.5768879328,3.1808633269\C,0,1.1877995449,-0.4772307615,3.
 5716633676\H,0,0.2930270027,0.0850952595,3.8509473181\H,0,1.6924295235
 ,-0.807246792,4.4841654575\C,0,2.0896180845,0.484579676,2.7775939027\O
 ,0,1.8560837243,1.6938498307,2.73414875\N,0,3.1323608478,-0.1111693076
 ,2.1442409448\H,0,3.1413066563,-1.1246373589,2.1568480985\C,0,3.734147
 3157,0.477066093,0.9498964952\H,0,4.7593531926,0.1158304856,0.83972525
 65\H,0,3.7411961463,1.5613966363,1.0457126672\C,0,2.8774813872,0.03448
 74129,-0.238938419\O,0,2.1582885713,0.7817892776,-0.8890630803\O,0,2.9
 41370968,-1.2741472375,-0.3953185679\H,0,2.2263163562,-1.5966476879,-1
 .0345755119\\Version=ES64L-G16RevC.01\HF=-1324.9749997\RMSD=7.077e-10\
 Dipole=0.3440542,0.8814795,2.2258398\Quadrupole=-3.2435894,5.8921819,-
 2.6485925,-3.2904268,9.9037848,-5.86961\PG=C01 [X(C12H21N6O7)]\\@
 The archive entry for this job was punched.


 IF NO USE IS MADE OF THE LABOR OF PAST AGES,
 THE WORLD MUST REMAIN ALWAYS IN THE INFANCY OF KNOWLEDGE.

                          -- CICERO
 Job cpu time:       0 days  0 hours  4 minutes  2.3 seconds.
 Elapsed time:       0 days  0 hours  1 minutes  4.2 seconds.
 File lengths (MBytes):  RWF=    208 Int=      0 D2E=      0 Chk=     24 Scr=     16
 Normal termination of Gaussian 16 at Thu Jun 30 18:40:27 2022.
