 Entering Gaussian System, Link 0=/opt/software/Gaussian/g16-AVX2-C.01/g16/g16
 Input=charge-conf-315.com
 Output=charge-conf-315.log
 Initial command:
 /opt/software/Gaussian/g16-AVX2-C.01/g16/l1.exe "/mnt/gs18/scratch/users/kengmith/Gau-13677.inp" -scrdir="/mnt/gs18/scratch/users/kengmith/"
 Entering Link 1 = /opt/software/Gaussian/g16-AVX2-C.01/g16/l1.exe PID=     13696.
  
 Copyright (c) 1988-2019, Gaussian, Inc.  All Rights Reserved.
  
 This is part of the Gaussian(R) 16 program.  It is based on
 the Gaussian(R) 09 system (copyright 2009, Gaussian, Inc.),
 the Gaussian(R) 03 system (copyright 2003, Gaussian, Inc.),
 the Gaussian(R) 98 system (copyright 1998, Gaussian, Inc.),
 the Gaussian(R) 94 system (copyright 1995, Gaussian, Inc.),
 the Gaussian 92(TM) system (copyright 1992, Gaussian, Inc.),
 the Gaussian 90(TM) system (copyright 1990, Gaussian, Inc.),
 the Gaussian 88(TM) system (copyright 1988, Gaussian, Inc.),
 the Gaussian 86(TM) system (copyright 1986, Carnegie Mellon
 University), and the Gaussian 82(TM) system (copyright 1983,
 Carnegie Mellon University). Gaussian is a federally registered
 trademark of Gaussian, Inc.
  
 This software contains proprietary and confidential information,
 including trade secrets, belonging to Gaussian, Inc.
  
 This software is provided under written license and may be
 used, copied, transmitted, or stored only in accord with that
 written license.
  
 The following legend is applicable only to US Government
 contracts under FAR:
  
                    RESTRICTED RIGHTS LEGEND
  
 Use, reproduction and disclosure by the US Government is
 subject to restrictions as set forth in subparagraphs (a)
 and (c) of the Commercial Computer Software - Restricted
 Rights clause in FAR 52.227-19.
  
 Gaussian, Inc.
 340 Quinnipiac St., Bldg. 40, Wallingford CT 06492
  
  
 ---------------------------------------------------------------
 Warning -- This program may not be used in any manner that
 competes with the business of Gaussian, Inc. or will provide
 assistance to any competitor of Gaussian, Inc.  The licensee
 of this program is prohibited from giving any competitor of
 Gaussian, Inc. access to this program.  By using this program,
 the user acknowledges that Gaussian, Inc. is engaged in the
 business of creating and licensing software in the field of
 computational chemistry and represents and warrants to the
 licensee that it is not a competitor of Gaussian, Inc. and that
 it will not use this program in any manner prohibited above.
 ---------------------------------------------------------------
  

 Cite this work as:
 Gaussian 16, Revision C.01,
 M. J. Frisch, G. W. Trucks, H. B. Schlegel, G. E. Scuseria, 
 M. A. Robb, J. R. Cheeseman, G. Scalmani, V. Barone, 
 G. A. Petersson, H. Nakatsuji, X. Li, M. Caricato, A. V. Marenich, 
 J. Bloino, B. G. Janesko, R. Gomperts, B. Mennucci, H. P. Hratchian, 
 J. V. Ortiz, A. F. Izmaylov, J. L. Sonnenberg, D. Williams-Young, 
 F. Ding, F. Lipparini, F. Egidi, J. Goings, B. Peng, A. Petrone, 
 T. Henderson, D. Ranasinghe, V. G. Zakrzewski, J. Gao, N. Rega, 
 G. Zheng, W. Liang, M. Hada, M. Ehara, K. Toyota, R. Fukuda, 
 J. Hasegawa, M. Ishida, T. Nakajima, Y. Honda, O. Kitao, H. Nakai, 
 T. Vreven, K. Throssell, J. A. Montgomery, Jr., J. E. Peralta, 
 F. Ogliaro, M. J. Bearpark, J. J. Heyd, E. N. Brothers, K. N. Kudin, 
 V. N. Staroverov, T. A. Keith, R. Kobayashi, J. Normand, 
 K. Raghavachari, A. P. Rendell, J. C. Burant, S. S. Iyengar, 
 J. Tomasi, M. Cossi, J. M. Millam, M. Klene, C. Adamo, R. Cammi, 
 J. W. Ochterski, R. L. Martin, K. Morokuma, O. Farkas, 
 J. B. Foresman, and D. J. Fox, Gaussian, Inc., Wallingford CT, 2019.
 
 ******************************************
 Gaussian 16:  ES64L-G16RevC.01  3-Jul-2019
                26-May-2022 
 ******************************************
 %mem=8gb
 %nproc=4
 Will use up to    4 processors via shared memory.
 %chk=conf-315.chk
 -------------------------------------------------------------------
 # B3LYP/6-31G* guess=read geom=check nosymm integral(ultrafinegrid)
 -------------------------------------------------------------------
 1/29=2,38=1,172=1/1;
 2/12=2,15=1,40=1/2;
 3/5=1,6=6,7=1,11=2,14=-4,25=1,30=1,74=-5,75=-5,116=-2/1,2,3;
 4/5=1/1;
 5/5=2,38=6/2;
 6/7=2,8=2,9=2,10=2,28=1/1;
 99/5=1,9=1/99;
 ------------------------------------------------------
 Candidate Structure: Conf:315 Charge calc in gas phase
 ------------------------------------------------------
 Structure from the checkpoint file:  "conf-315.chk"
 Charge =  1 Multiplicity = 1
 Redundant internal coordinates found in file.  (old form).
 N,0,-5.84962576,-0.41276598,3.81244019
 H,0,-6.37699676,0.3181506,3.3462293
 H,0,-5.96678477,-1.2385197,3.23115793
 C,0,-4.43378121,-0.08095576,3.82587924
 H,0,-4.30925166,0.88492451,4.32934765
 C,0,-3.84237252,-0.00556433,2.415547
 C,0,-3.69487573,-1.15583834,4.64067324
 H,0,-4.26051937,-1.31484782,5.56204859
 H,0,-3.72829518,-2.09608559,4.08276977
 O,0,-4.24984949,-0.72386447,1.51527962
 C,0,-2.24910599,-0.83696319,5.01043028
 H,0,-2.19667265,0.03706623,5.66179383
 H,0,-1.63499852,-0.66972325,4.12401242
 C,0,-1.73760698,-2.08035177,5.77142871
 O,0,-1.85727623,-2.05793224,7.00682289
 O,0,-1.28777157,-2.98502961,5.04413784
 N,0,-2.82048474,0.88183049,2.25691361
 H,0,-2.40632973,1.30438574,3.07457856
 C,0,-1.98284957,0.86459559,1.07524265
 H,0,-2.31544528,0.02393192,0.46581747
 C,0,-0.53237438,0.68076884,1.5250996
 C,0,-2.125655,2.16448894,0.26692482
 H,0,-1.41529615,2.16066053,-0.5638398
 H,0,-1.86990774,3.00512824,0.9163898
 O,0,-0.11708986,1.15985681,2.57233671
 C,0,-3.5280088,2.32638431,-0.24849674
 C,0,-4.59277989,2.80446415,0.46589009
 H,0,-4.62187994,3.17441009,1.47962345
 C,0,-4.04379272,1.94193666,-1.5384745
 C,0,-5.42221543,2.21665146,-1.53862013
 C,0,-3.44834888,1.39311113,-2.68023424
 H,0,-2.38676661,1.1725853,-2.70584386
 N,0,-5.73344849,2.74404904,-0.30489518
 H,0,-6.65228342,3.00475605,0.00059764
 C,0,-5.62621854,1.41436037,-3.76215603
 H,0,-6.22228134,1.199467,-4.64084711
 C,0,-6.23680476,1.95887913,-2.64324433
 H,0,-7.29889688,2.17719673,-2.62154628
 C,0,-4.24657709,1.13457257,-3.78103052
 H,0,-3.80418479,0.70998041,-4.67436239
 N,0,0.25345375,-0.03337553,0.67003123
 H,0,-0.1030164,-0.2473036,-0.24754913
 C,0,1.70069486,-0.12264466,0.83450265
 H,0,2.0282607,0.70926867,1.44782211
 C,0,2.31792426,-0.08831943,-0.54642458
 C,0,2.13130891,-1.4480258,1.49414824
 H,0,3.21913385,-1.50667405,1.46127558
 O,0,1.98162294,-0.92462133,-1.39990349
 C,0,1.63248511,-1.62271572,2.91191611
 H,0,2.08463752,-0.87141547,3.56383845
 H,0,1.89935885,-2.61150022,3.28530165
 H,0,0.55038731,-1.51625888,2.97233892
 O,0,1.63920437,-2.56833629,0.6487705
 H,0,0.66674608,-2.61292336,0.79042106
 N,0,3.21267762,0.87982302,-0.81640592
 H,0,3.63604573,1.35438572,-0.03356998
 C,0,4.06641366,0.72756906,-1.98922155
 H,0,3.42845297,0.45005168,-2.83352165
 C,0,5.03078952,-0.42085221,-1.76415807
 C,0,4.80288044,2.0293711,-2.28642283
 H,0,5.52849606,1.8458033,-3.0793648
 H,0,5.3672704,2.31553158,-1.39679573
 O,0,5.1718836,-1.00971784,-0.72365767
 C,0,3.85766255,3.14519209,-2.7110118
 H,0,3.27066278,2.80616913,-3.5674655
 H,0,3.15096787,3.37510038,-1.91908177
 C,0,4.60795064,4.41337241,-3.0846966
 H,0,5.22479574,4.75211304,-2.24514954
 H,0,5.29111645,4.2033871,-3.91067187
 N,0,3.75298553,5.52211663,-3.54549882
 H,0,3.41790626,5.44617982,-4.49566724
 N,0,2.99774678,6.02035166,-1.39245341
 H,0,2.63427904,6.72370031,-0.76940279
 H,0,3.74332122,5.45119746,-1.02750609
 N,0,2.08013854,7.09883491,-3.26538236
 H,0,2.30228855,7.46383592,-4.18211522
 H,0,1.63780433,7.75924298,-2.64331354
 C,0,2.96234385,6.22429268,-2.72229774
 O,0,5.72860843,-0.70832903,-2.88101857
 H,0,6.31263216,-1.44212392,-2.65536191
 H,0,1.74835281,-2.19705928,-0.28253317
 Recover connectivity data from disk.
                           ----------------------------
                           !    Current Parameters    !
                           ! (Angstroms and Degrees)  !
 --------------------------                            --------------------------
 ! Name  Definition              Value                                          !
 --------------------------------------------------------------------------------
 ! R1    R(1,2)                  1.0147                                         !
 ! R2    R(1,3)                  1.0166                                         !
 ! R3    R(1,4)                  1.4543                                         !
 ! R4    R(4,5)                  1.0963                                         !
 ! R5    R(4,6)                  1.5312                                         !
 ! R6    R(4,7)                  1.5379                                         !
 ! R7    R(6,10)                 1.2217                                         !
 ! R8    R(6,17)                 1.3627                                         !
 ! R9    R(7,8)                  1.0928                                         !
 ! R10   R(7,9)                  1.0938                                         !
 ! R11   R(7,11)                 1.526                                          !
 ! R12   R(11,12)                1.0913                                         !
 ! R13   R(11,13)                1.0913                                         !
 ! R14   R(11,14)                1.5449                                         !
 ! R15   R(14,15)                1.2414                                         !
 ! R16   R(14,16)                1.2449                                         !
 ! R17   R(17,18)                1.0093                                         !
 ! R18   R(17,19)                1.4485                                         !
 ! R19   R(19,20)                1.0903                                         !
 ! R20   R(19,21)                1.5297                                         !
 ! R21   R(19,22)                1.5374                                         !
 ! R22   R(21,25)                1.2242                                         !
 ! R23   R(21,41)                1.3633                                         !
 ! R24   R(22,23)                1.0931                                         !
 ! R25   R(22,24)                1.0927                                         !
 ! R26   R(22,26)                1.5028                                         !
 ! R27   R(26,27)                1.3684                                         !
 ! R28   R(26,29)                1.4415                                         !
 ! R29   R(27,28)                1.0795                                         !
 ! R30   R(27,33)                1.378                                          !
 ! R31   R(29,30)                1.4055                                         !
 ! R32   R(29,31)                1.3998                                         !
 ! R33   R(30,33)                1.3773                                         !
 ! R34   R(30,37)                1.3965                                         !
 ! R35   R(31,32)                1.0845                                         !
 ! R36   R(31,39)                1.3841                                         !
 ! R37   R(33,34)                1.0028                                         !
 ! R38   R(35,36)                1.0833                                         !
 ! R39   R(35,37)                1.3861                                         !
 ! R40   R(35,39)                1.4079                                         !
 ! R41   R(37,38)                1.0845                                         !
 ! R42   R(39,40)                1.0835                                         !
 ! R43   R(41,42)                1.0074                                         !
 ! R44   R(41,43)                1.4593                                         !
 ! R45   R(43,44)                1.0842                                         !
 ! R46   R(43,45)                1.513                                          !
 ! R47   R(43,46)                1.5418                                         !
 ! R48   R(45,48)                1.2413                                         !
 ! R49   R(45,55)                1.3456                                         !
 ! R50   R(46,47)                1.0899                                         !
 ! R51   R(46,49)                1.5131                                         !
 ! R52   R(46,53)                1.4873                                         !
 ! R53   R(49,50)                1.0927                                         !
 ! R54   R(49,51)                1.0901                                         !
 ! R55   R(49,52)                1.089                                          !
 ! R56   R(53,54)                0.9837                                         !
 ! R57   R(53,81)                1.0085                                         !
 ! R58   R(55,56)                1.0086                                         !
 ! R59   R(55,57)                1.4586                                         !
 ! R60   R(57,58)                1.094                                          !
 ! R61   R(57,59)                1.5164                                         !
 ! R62   R(57,60)                1.5249                                         !
 ! R63   R(59,63)                1.2039                                         !
 ! R64   R(59,79)                1.348                                          !
 ! R65   R(60,61)                1.0904                                         !
 ! R66   R(60,62)                1.0917                                         !
 ! R67   R(60,64)                1.5228                                         !
 ! R68   R(64,65)                1.0923                                         !
 ! R69   R(64,66)                1.086                                          !
 ! R70   R(64,67)                1.5201                                         !
 ! R71   R(67,68)                1.0955                                         !
 ! R72   R(67,69)                1.0923                                         !
 ! R73   R(67,70)                1.474                                          !
 ! R74   R(70,71)                1.0104                                         !
 ! R75   R(70,78)                1.3401                                         !
 ! R76   R(72,73)                1.0075                                         !
 ! R77   R(72,74)                1.0065                                         !
 ! R78   R(72,78)                1.3459                                         !
 ! R79   R(75,76)                1.0114                                         !
 ! R80   R(75,77)                1.0093                                         !
 ! R81   R(75,78)                1.3557                                         !
 ! R82   R(79,80)                0.9646                                         !
 ! A1    A(2,1,3)              105.2171                                         !
 ! A2    A(2,1,4)              110.2353                                         !
 ! A3    A(3,1,4)              107.6267                                         !
 ! A4    A(1,4,5)              108.412                                          !
 ! A5    A(1,4,6)              112.2571                                         !
 ! A6    A(1,4,7)              108.2515                                         !
 ! A7    A(5,4,6)              109.6176                                         !
 ! A8    A(5,4,7)              108.5349                                         !
 ! A9    A(6,4,7)              109.6836                                         !
 ! A10   A(4,6,10)             121.398                                          !
 ! A11   A(4,6,17)             115.4003                                         !
 ! A12   A(10,6,17)            123.1773                                         !
 ! A13   A(4,7,8)              107.4398                                         !
 ! A14   A(4,7,9)              108.4141                                         !
 ! A15   A(4,7,11)             115.9459                                         !
 ! A16   A(8,7,9)              106.8073                                         !
 ! A17   A(8,7,11)             108.4522                                         !
 ! A18   A(9,7,11)             109.3999                                         !
 ! A19   A(7,11,12)            110.9469                                         !
 ! A20   A(7,11,13)            111.6152                                         !
 ! A21   A(7,11,14)            105.3585                                         !
 ! A22   A(12,11,13)           109.5755                                         !
 ! A23   A(12,11,14)           109.5527                                         !
 ! A24   A(13,11,14)           109.703                                          !
 ! A25   A(11,14,15)           116.3437                                         !
 ! A26   A(11,14,16)           114.6288                                         !
 ! A27   A(15,14,16)           129.0032                                         !
 ! A28   A(6,17,18)            119.0816                                         !
 ! A29   A(6,17,19)            121.3901                                         !
 ! A30   A(18,17,19)           115.3776                                         !
 ! A31   A(17,19,20)           106.7832                                         !
 ! A32   A(17,19,21)           108.0493                                         !
 ! A33   A(17,19,22)           111.4162                                         !
 ! A34   A(20,19,21)           111.1598                                         !
 ! A35   A(20,19,22)           109.2517                                         !
 ! A36   A(21,19,22)           110.1395                                         !
 ! A37   A(19,21,25)           121.7485                                         !
 ! A38   A(19,21,41)           115.1537                                         !
 ! A39   A(25,21,41)           123.0922                                         !
 ! A40   A(19,22,23)           109.6505                                         !
 ! A41   A(19,22,24)           108.4365                                         !
 ! A42   A(19,22,26)           110.9832                                         !
 ! A43   A(23,22,24)           107.5983                                         !
 ! A44   A(23,22,26)           110.2515                                         !
 ! A45   A(24,22,26)           109.8398                                         !
 ! A46   A(22,26,27)           125.7791                                         !
 ! A47   A(22,26,29)           127.7404                                         !
 ! A48   A(27,26,29)           106.3759                                         !
 ! A49   A(26,27,28)           129.1186                                         !
 ! A50   A(26,27,33)           109.6794                                         !
 ! A51   A(28,27,33)           121.1965                                         !
 ! A52   A(26,29,30)           107.3903                                         !
 ! A53   A(26,29,31)           133.0238                                         !
 ! A54   A(30,29,31)           119.586                                          !
 ! A55   A(29,30,33)           107.2388                                         !
 ! A56   A(29,30,37)           122.4161                                         !
 ! A57   A(33,30,37)           130.3449                                         !
 ! A58   A(29,31,32)           121.0216                                         !
 ! A59   A(29,31,39)           118.4653                                         !
 ! A60   A(32,31,39)           120.5131                                         !
 ! A61   A(27,33,30)           109.3152                                         !
 ! A62   A(27,33,34)           125.2173                                         !
 ! A63   A(30,33,34)           125.4141                                         !
 ! A64   A(36,35,37)           119.3611                                         !
 ! A65   A(36,35,39)           119.2683                                         !
 ! A66   A(37,35,39)           121.3706                                         !
 ! A67   A(30,37,35)           117.006                                          !
 ! A68   A(30,37,38)           121.216                                          !
 ! A69   A(35,37,38)           121.778                                          !
 ! A70   A(31,39,35)           121.1559                                         !
 ! A71   A(31,39,40)           119.5668                                         !
 ! A72   A(35,39,40)           119.2773                                         !
 ! A73   A(21,41,42)           118.5915                                         !
 ! A74   A(21,41,43)           122.2083                                         !
 ! A75   A(42,41,43)           116.1429                                         !
 ! A76   A(41,43,44)           108.448                                          !
 ! A77   A(41,43,45)           107.4774                                         !
 ! A78   A(41,43,46)           112.1969                                         !
 ! A79   A(44,43,45)           112.0642                                         !
 ! A80   A(44,43,46)           109.4621                                         !
 ! A81   A(45,43,46)           107.2211                                         !
 ! A82   A(43,45,48)           120.1145                                         !
 ! A83   A(43,45,55)           118.08                                           !
 ! A84   A(48,45,55)           121.7964                                         !
 ! A85   A(43,46,47)           108.1865                                         !
 ! A86   A(43,46,49)           114.0829                                         !
 ! A87   A(43,46,53)           108.1757                                         !
 ! A88   A(47,46,49)           110.5543                                         !
 ! A89   A(47,46,53)           105.8174                                         !
 ! A90   A(49,46,53)           109.6673                                         !
 ! A91   A(46,49,50)           110.075                                          !
 ! A92   A(46,49,51)           110.1793                                         !
 ! A93   A(46,49,52)           111.6101                                         !
 ! A94   A(50,49,51)           108.5428                                         !
 ! A95   A(50,49,52)           108.1115                                         !
 ! A96   A(51,49,52)           108.2358                                         !
 ! A97   A(46,53,54)           106.2234                                         !
 ! A98   A(46,53,81)           102.2265                                         !
 ! A99   A(54,53,81)           104.871                                          !
 ! A100  A(45,55,56)           117.5098                                         !
 ! A101  A(45,55,57)           118.3858                                         !
 ! A102  A(56,55,57)           115.3095                                         !
 ! A103  A(55,57,58)           107.8002                                         !
 ! A104  A(55,57,59)           109.3868                                         !
 ! A105  A(55,57,60)           110.5041                                         !
 ! A106  A(58,57,59)           107.0545                                         !
 ! A107  A(58,57,60)           110.3511                                         !
 ! A108  A(59,57,60)           111.6109                                         !
 ! A109  A(57,59,63)           124.977                                          !
 ! A110  A(57,59,79)           111.5779                                         !
 ! A111  A(63,59,79)           123.4445                                         !
 ! A112  A(57,60,61)           108.6264                                         !
 ! A113  A(57,60,62)           108.3379                                         !
 ! A114  A(57,60,64)           112.3404                                         !
 ! A115  A(61,60,62)           107.0191                                         !
 ! A116  A(61,60,64)           109.4914                                         !
 ! A117  A(62,60,64)           110.8574                                         !
 ! A118  A(60,64,65)           108.9526                                         !
 ! A119  A(60,64,66)           110.8379                                         !
 ! A120  A(60,64,67)           111.9305                                         !
 ! A121  A(65,64,66)           106.7251                                         !
 ! A122  A(65,64,67)           109.3561                                         !
 ! A123  A(66,64,67)           108.8939                                         !
 ! A124  A(64,67,68)           110.3337                                         !
 ! A125  A(64,67,69)           109.5246                                         !
 ! A126  A(64,67,70)           114.7144                                         !
 ! A127  A(68,67,69)           106.6662                                         !
 ! A128  A(68,67,70)           109.4874                                         !
 ! A129  A(69,67,70)           105.7233                                         !
 ! A130  A(67,70,71)           115.4563                                         !
 ! A131  A(67,70,78)           122.9782                                         !
 ! A132  A(71,70,78)           114.923                                          !
 ! A133  A(73,72,74)           115.9633                                         !
 ! A134  A(73,72,78)           119.722                                          !
 ! A135  A(74,72,78)           117.6106                                         !
 ! A136  A(76,75,77)           114.7555                                         !
 ! A137  A(76,75,78)           116.9327                                         !
 ! A138  A(77,75,78)           117.4097                                         !
 ! A139  A(70,78,72)           120.8013                                         !
 ! A140  A(70,78,75)           118.4144                                         !
 ! A141  A(72,78,75)           120.709                                          !
 ! A142  A(59,79,80)           106.3703                                         !
 ! D1    D(2,1,4,5)             57.8437                                         !
 ! D2    D(2,1,4,6)            -63.3932                                         !
 ! D3    D(2,1,4,7)            175.3962                                         !
 ! D4    D(3,1,4,5)            172.0893                                         !
 ! D5    D(3,1,4,6)             50.8524                                         !
 ! D6    D(3,1,4,7)            -70.3582                                         !
 ! D7    D(1,4,6,10)           -32.9343                                         !
 ! D8    D(1,4,6,17)           148.804                                          !
 ! D9    D(5,4,6,10)          -153.4768                                         !
 ! D10   D(5,4,6,17)            28.2615                                         !
 ! D11   D(7,4,6,10)            87.4505                                         !
 ! D12   D(7,4,6,17)           -90.8112                                         !
 ! D13   D(1,4,7,8)            -46.54                                           !
 ! D14   D(1,4,7,9)             68.5493                                         !
 ! D15   D(1,4,7,11)          -167.9932                                         !
 ! D16   D(5,4,7,8)             70.9337                                         !
 ! D17   D(5,4,7,9)           -173.977                                          !
 ! D18   D(5,4,7,11)           -50.5196                                         !
 ! D19   D(6,4,7,8)           -169.3293                                         !
 ! D20   D(6,4,7,9)            -54.24                                           !
 ! D21   D(6,4,7,11)            69.2175                                         !
 ! D22   D(4,6,17,18)           10.7522                                         !
 ! D23   D(4,6,17,19)          166.7948                                         !
 ! D24   D(10,6,17,18)        -167.475                                          !
 ! D25   D(10,6,17,19)         -11.4325                                         !
 ! D26   D(4,7,11,12)           63.3348                                         !
 ! D27   D(4,7,11,13)          -59.1839                                         !
 ! D28   D(4,7,11,14)         -178.1905                                         !
 ! D29   D(8,7,11,12)          -57.5767                                         !
 ! D30   D(8,7,11,13)          179.9046                                         !
 ! D31   D(8,7,11,14)           60.898                                          !
 ! D32   D(9,7,11,12)         -173.7238                                         !
 ! D33   D(9,7,11,13)           63.7575                                         !
 ! D34   D(9,7,11,14)          -55.2491                                         !
 ! D35   D(7,11,14,15)         -92.3908                                         !
 ! D36   D(7,11,14,16)          85.9806                                         !
 ! D37   D(12,11,14,15)         27.0142                                         !
 ! D38   D(12,11,14,16)       -154.6145                                         !
 ! D39   D(13,11,14,15)        147.3355                                         !
 ! D40   D(13,11,14,16)        -34.2931                                         !
 ! D41   D(6,17,19,20)          -2.9339                                         !
 ! D42   D(6,17,19,21)        -122.5922                                         !
 ! D43   D(6,17,19,22)         116.29                                           !
 ! D44   D(18,17,19,20)        153.9394                                         !
 ! D45   D(18,17,19,21)         34.2811                                         !
 ! D46   D(18,17,19,22)        -86.8367                                         !
 ! D47   D(17,19,21,25)        -34.1175                                         !
 ! D48   D(17,19,21,41)        146.7207                                         !
 ! D49   D(20,19,21,25)       -150.9759                                         !
 ! D50   D(20,19,21,41)         29.8623                                         !
 ! D51   D(22,19,21,25)         87.7904                                         !
 ! D52   D(22,19,21,41)        -91.3715                                         !
 ! D53   D(17,19,22,23)        174.7499                                         !
 ! D54   D(17,19,22,24)         57.5276                                         !
 ! D55   D(17,19,22,26)        -63.204                                          !
 ! D56   D(20,19,22,23)        -67.506                                          !
 ! D57   D(20,19,22,24)        175.2717                                         !
 ! D58   D(20,19,22,26)         54.5401                                         !
 ! D59   D(21,19,22,23)         54.8604                                         !
 ! D60   D(21,19,22,24)        -62.3619                                         !
 ! D61   D(21,19,22,26)        176.9065                                         !
 ! D62   D(19,21,41,42)         10.5744                                         !
 ! D63   D(19,21,41,43)        170.03                                           !
 ! D64   D(25,21,41,42)       -168.5749                                         !
 ! D65   D(25,21,41,43)         -9.1193                                         !
 ! D66   D(19,22,26,27)         81.1778                                         !
 ! D67   D(19,22,26,29)        -94.5884                                         !
 ! D68   D(23,22,26,27)       -157.127                                          !
 ! D69   D(23,22,26,29)         27.1067                                         !
 ! D70   D(24,22,26,27)        -38.7209                                         !
 ! D71   D(24,22,26,29)        145.5128                                         !
 ! D72   D(22,26,27,28)          2.3878                                         !
 ! D73   D(22,26,27,33)       -176.7484                                         !
 ! D74   D(29,26,27,28)        178.8992                                         !
 ! D75   D(29,26,27,33)         -0.2369                                         !
 ! D76   D(22,26,29,30)        176.582                                          !
 ! D77   D(22,26,29,31)         -3.4769                                         !
 ! D78   D(27,26,29,30)          0.161                                          !
 ! D79   D(27,26,29,31)       -179.8979                                         !
 ! D80   D(26,27,33,30)          0.2284                                         !
 ! D81   D(26,27,33,34)        177.6846                                         !
 ! D82   D(28,27,33,30)       -178.9882                                         !
 ! D83   D(28,27,33,34)         -1.532                                          !
 ! D84   D(26,29,30,33)         -0.0263                                         !
 ! D85   D(26,29,30,37)       -179.8703                                         !
 ! D86   D(31,29,30,33)       -179.9768                                         !
 ! D87   D(31,29,30,37)          0.1792                                         !
 ! D88   D(26,29,31,32)          0.023                                          !
 ! D89   D(26,29,31,39)        179.9367                                         !
 ! D90   D(30,29,31,32)        179.9584                                         !
 ! D91   D(30,29,31,39)         -0.128                                          !
 ! D92   D(29,30,33,27)         -0.1194                                         !
 ! D93   D(29,30,33,34)       -177.5694                                         !
 ! D94   D(37,30,33,27)        179.7079                                         !
 ! D95   D(37,30,33,34)          2.2579                                         !
 ! D96   D(29,30,37,35)         -0.1184                                         !
 ! D97   D(29,30,37,38)        179.9064                                         !
 ! D98   D(33,30,37,35)       -179.923                                          !
 ! D99   D(33,30,37,38)          0.1018                                         !
 ! D100  D(29,31,39,35)          0.0269                                         !
 ! D101  D(29,31,39,40)        179.9896                                         !
 ! D102  D(32,31,39,35)        179.9409                                         !
 ! D103  D(32,31,39,40)         -0.0963                                         !
 ! D104  D(36,35,37,30)       -179.9775                                         !
 ! D105  D(36,35,37,38)         -0.0024                                         !
 ! D106  D(39,35,37,30)          0.0128                                         !
 ! D107  D(39,35,37,38)        179.9878                                         !
 ! D108  D(36,35,39,31)       -179.9779                                         !
 ! D109  D(36,35,39,40)          0.0592                                         !
 ! D110  D(37,35,39,31)          0.0318                                         !
 ! D111  D(37,35,39,40)       -179.9311                                         !
 ! D112  D(21,41,43,44)        -20.6165                                         !
 ! D113  D(21,41,43,45)       -141.9618                                         !
 ! D114  D(21,41,43,46)        100.4117                                         !
 ! D115  D(42,41,43,44)        139.3083                                         !
 ! D116  D(42,41,43,45)         17.9629                                         !
 ! D117  D(42,41,43,46)        -99.6636                                         !
 ! D118  D(41,43,45,48)        -56.4795                                         !
 ! D119  D(41,43,45,55)        122.4413                                         !
 ! D120  D(44,43,45,48)       -175.5314                                         !
 ! D121  D(44,43,45,55)          3.3894                                         !
 ! D122  D(46,43,45,48)         64.3349                                         !
 ! D123  D(46,43,45,55)       -116.7444                                         !
 ! D124  D(41,43,46,47)        172.3621                                         !
 ! D125  D(41,43,46,49)        -64.1591                                         !
 ! D126  D(41,43,46,53)         58.1679                                         !
 ! D127  D(44,43,46,47)        -67.1956                                         !
 ! D128  D(44,43,46,49)         56.2833                                         !
 ! D129  D(44,43,46,53)        178.6103                                         !
 ! D130  D(45,43,46,47)         54.583                                          !
 ! D131  D(45,43,46,49)        178.0619                                         !
 ! D132  D(45,43,46,53)        -59.6111                                         !
 ! D133  D(43,45,55,56)         18.0751                                         !
 ! D134  D(43,45,55,57)        164.1021                                         !
 ! D135  D(48,45,55,56)       -163.0233                                         !
 ! D136  D(48,45,55,57)        -16.9963                                         !
 ! D137  D(43,46,49,50)        -65.1542                                         !
 ! D138  D(43,46,49,51)        175.1737                                         !
 ! D139  D(43,46,49,52)         54.8965                                         !
 ! D140  D(47,46,49,50)         57.0344                                         !
 ! D141  D(47,46,49,51)        -62.6377                                         !
 ! D142  D(47,46,49,52)        177.0851                                         !
 ! D143  D(53,46,49,50)        173.3398                                         !
 ! D144  D(53,46,49,51)         53.6677                                         !
 ! D145  D(53,46,49,52)        -66.6095                                         !
 ! D146  D(43,46,53,54)        -73.2659                                         !
 ! D147  D(43,46,53,81)         36.4004                                         !
 ! D148  D(47,46,53,54)        170.9844                                         !
 ! D149  D(47,46,53,81)        -79.3494                                         !
 ! D150  D(49,46,53,54)         51.7243                                         !
 ! D151  D(49,46,53,81)        161.3906                                         !
 ! D152  D(45,55,57,58)         47.9775                                         !
 ! D153  D(45,55,57,59)        -68.0961                                         !
 ! D154  D(45,55,57,60)        168.6434                                         !
 ! D155  D(56,55,57,58)       -165.2692                                         !
 ! D156  D(56,55,57,59)         78.6572                                         !
 ! D157  D(56,55,57,60)        -44.6033                                         !
 ! D158  D(55,57,59,63)         -7.9055                                         !
 ! D159  D(55,57,59,79)        172.3618                                         !
 ! D160  D(58,57,59,63)       -124.4525                                         !
 ! D161  D(58,57,59,79)         55.8149                                         !
 ! D162  D(60,57,59,63)        114.697                                          !
 ! D163  D(60,57,59,79)        -65.0357                                         !
 ! D164  D(55,57,60,61)        172.4599                                         !
 ! D165  D(55,57,60,62)         56.5403                                         !
 ! D166  D(55,57,60,64)        -66.2619                                         !
 ! D167  D(58,57,60,61)        -68.4085                                         !
 ! D168  D(58,57,60,62)        175.672                                          !
 ! D169  D(58,57,60,64)         52.8697                                         !
 ! D170  D(59,57,60,61)         50.4992                                         !
 ! D171  D(59,57,60,62)        -65.4203                                         !
 ! D172  D(59,57,60,64)        171.7774                                         !
 ! D173  D(57,59,79,80)       -179.9855                                         !
 ! D174  D(63,59,79,80)          0.277                                          !
 ! D175  D(57,60,64,65)        -55.5267                                         !
 ! D176  D(57,60,64,66)         61.6205                                         !
 ! D177  D(57,60,64,67)       -176.5932                                         !
 ! D178  D(61,60,64,65)         65.2548                                         !
 ! D179  D(61,60,64,66)       -177.5981                                         !
 ! D180  D(61,60,64,67)        -55.8118                                         !
 ! D181  D(62,60,64,65)       -176.8981                                         !
 ! D182  D(62,60,64,66)        -59.751                                          !
 ! D183  D(62,60,64,67)         62.0353                                         !
 ! D184  D(60,64,67,68)        -57.5745                                         !
 ! D185  D(60,64,67,69)         59.5499                                         !
 ! D186  D(60,64,67,70)        178.2173                                         !
 ! D187  D(65,64,67,68)       -178.4073                                         !
 ! D188  D(65,64,67,69)        -61.2829                                         !
 ! D189  D(65,64,67,70)         57.3844                                         !
 ! D190  D(66,64,67,68)         65.3212                                         !
 ! D191  D(66,64,67,69)       -177.5544                                         !
 ! D192  D(66,64,67,70)        -58.8871                                         !
 ! D193  D(64,67,70,71)        -77.6866                                         !
 ! D194  D(64,67,70,78)         72.2236                                         !
 ! D195  D(68,67,70,71)        157.658                                          !
 ! D196  D(68,67,70,78)        -52.4319                                         !
 ! D197  D(69,67,70,71)         43.0963                                         !
 ! D198  D(69,67,70,78)       -166.9936                                         !
 ! D199  D(67,70,78,72)          5.793                                          !
 ! D200  D(67,70,78,75)       -171.074                                          !
 ! D201  D(71,70,78,72)        155.8481                                         !
 ! D202  D(71,70,78,75)        -21.0189                                         !
 ! D203  D(73,72,78,70)        160.8526                                         !
 ! D204  D(73,72,78,75)        -22.3524                                         !
 ! D205  D(74,72,78,70)         10.6836                                         !
 ! D206  D(74,72,78,75)       -172.5214                                         !
 ! D207  D(76,75,78,70)        -24.6278                                         !
 ! D208  D(76,75,78,72)        158.5022                                         !
 ! D209  D(77,75,78,70)       -167.0515                                         !
 ! D210  D(77,75,78,72)         16.0785                                         !
 --------------------------------------------------------------------------------
 Symmetry turned off by external request.
 Stoichiometry    C26H39N8O8(1+)
 Framework group  C1[X(C26H39N8O8)]
 Deg. of freedom   237
 Full point group                 C1      NOp   1
                          Input orientation:                          
 ---------------------------------------------------------------------
 Center     Atomic      Atomic             Coordinates (Angstroms)
 Number     Number       Type             X           Y           Z
 ---------------------------------------------------------------------
      1          7           0       -5.849626   -0.412766    3.812440
      2          1           0       -6.376997    0.318151    3.346229
      3          1           0       -5.966785   -1.238520    3.231158
      4          6           0       -4.433781   -0.080956    3.825879
      5          1           0       -4.309252    0.884925    4.329348
      6          6           0       -3.842373   -0.005564    2.415547
      7          6           0       -3.694876   -1.155838    4.640673
      8          1           0       -4.260519   -1.314848    5.562049
      9          1           0       -3.728295   -2.096086    4.082770
     10          8           0       -4.249849   -0.723864    1.515280
     11          6           0       -2.249106   -0.836963    5.010430
     12          1           0       -2.196673    0.037066    5.661794
     13          1           0       -1.634999   -0.669723    4.124012
     14          6           0       -1.737607   -2.080352    5.771429
     15          8           0       -1.857276   -2.057932    7.006823
     16          8           0       -1.287772   -2.985030    5.044138
     17          7           0       -2.820485    0.881830    2.256914
     18          1           0       -2.406330    1.304386    3.074579
     19          6           0       -1.982850    0.864596    1.075243
     20          1           0       -2.315445    0.023932    0.465817
     21          6           0       -0.532374    0.680769    1.525100
     22          6           0       -2.125655    2.164489    0.266925
     23          1           0       -1.415296    2.160661   -0.563840
     24          1           0       -1.869908    3.005128    0.916390
     25          8           0       -0.117090    1.159857    2.572337
     26          6           0       -3.528009    2.326384   -0.248497
     27          6           0       -4.592780    2.804464    0.465890
     28          1           0       -4.621880    3.174410    1.479623
     29          6           0       -4.043793    1.941937   -1.538475
     30          6           0       -5.422215    2.216651   -1.538620
     31          6           0       -3.448349    1.393111   -2.680234
     32          1           0       -2.386767    1.172585   -2.705844
     33          7           0       -5.733448    2.744049   -0.304895
     34          1           0       -6.652283    3.004756    0.000598
     35          6           0       -5.626219    1.414360   -3.762156
     36          1           0       -6.222281    1.199467   -4.640847
     37          6           0       -6.236805    1.958879   -2.643244
     38          1           0       -7.298897    2.177197   -2.621546
     39          6           0       -4.246577    1.134573   -3.781031
     40          1           0       -3.804185    0.709980   -4.674362
     41          7           0        0.253454   -0.033376    0.670031
     42          1           0       -0.103016   -0.247304   -0.247549
     43          6           0        1.700695   -0.122645    0.834503
     44          1           0        2.028261    0.709269    1.447822
     45          6           0        2.317924   -0.088319   -0.546425
     46          6           0        2.131309   -1.448026    1.494148
     47          1           0        3.219134   -1.506674    1.461276
     48          8           0        1.981623   -0.924621   -1.399903
     49          6           0        1.632485   -1.622716    2.911916
     50          1           0        2.084638   -0.871415    3.563838
     51          1           0        1.899359   -2.611500    3.285302
     52          1           0        0.550387   -1.516259    2.972339
     53          8           0        1.639204   -2.568336    0.648771
     54          1           0        0.666746   -2.612923    0.790421
     55          7           0        3.212678    0.879823   -0.816406
     56          1           0        3.636046    1.354386   -0.033570
     57          6           0        4.066414    0.727569   -1.989222
     58          1           0        3.428453    0.450052   -2.833522
     59          6           0        5.030790   -0.420852   -1.764158
     60          6           0        4.802880    2.029371   -2.286423
     61          1           0        5.528496    1.845803   -3.079365
     62          1           0        5.367270    2.315532   -1.396796
     63          8           0        5.171884   -1.009718   -0.723658
     64          6           0        3.857663    3.145192   -2.711012
     65          1           0        3.270663    2.806169   -3.567466
     66          1           0        3.150968    3.375100   -1.919082
     67          6           0        4.607951    4.413372   -3.084697
     68          1           0        5.224796    4.752113   -2.245150
     69          1           0        5.291116    4.203387   -3.910672
     70          7           0        3.752986    5.522117   -3.545499
     71          1           0        3.417906    5.446180   -4.495667
     72          7           0        2.997747    6.020352   -1.392453
     73          1           0        2.634279    6.723700   -0.769403
     74          1           0        3.743321    5.451197   -1.027506
     75          7           0        2.080139    7.098835   -3.265382
     76          1           0        2.302289    7.463836   -4.182115
     77          1           0        1.637804    7.759243   -2.643314
     78          6           0        2.962344    6.224293   -2.722298
     79          8           0        5.728608   -0.708329   -2.881019
     80          1           0        6.312632   -1.442124   -2.655362
     81          1           0        1.748353   -2.197059   -0.282533
 ---------------------------------------------------------------------
 Rotational constants (GHZ):           0.0758811           0.0457578           0.0338237
 Standard basis: 6-31G(d) (6D, 7F)
   708 basis functions,  1332 primitive gaussians,   708 cartesian basis functions
   157 alpha electrons      157 beta electrons
       nuclear repulsion energy      5088.0167932870 Hartrees.
 NAtoms=   81 NActive=   81 NUniq=   81 SFac= 1.00D+00 NAtFMM=   60 NAOKFM=T Big=T
 Integral buffers will be    131072 words long.
 Raffenetti 2 integral format.
 Two-electron integral symmetry is turned off.
 One-electron integrals computed using PRISM.
 NBasis=   708 RedAO= T EigKep=  3.59D-04  NBF=   708
 NBsUse=   708 1.00D-06 EigRej= -1.00D+00 NBFU=   708
 Initial guess from the checkpoint file:  "conf-315.chk"
 B after Tr=     0.000000    0.000000    0.000000
         Rot=    1.000000    0.000000    0.000000    0.000000 Ang=   0.00 deg.
 Requested convergence on RMS density matrix=1.00D-08 within 128 cycles.
 Requested convergence on MAX density matrix=1.00D-06.
 Requested convergence on             energy=1.00D-06.
 No special actions if energy rises.
 SCF Done:  E(RB3LYP) =  -2053.73959450     A.U. after    3 cycles
            NFock=  3  Conv=0.56D-09     -V/T= 2.0088

 **********************************************************************

            Population analysis using the SCF Density.

 **********************************************************************

 Alpha  occ. eigenvalues --  -19.43900 -19.33361 -19.30346 -19.28457 -19.23304
 Alpha  occ. eigenvalues --  -19.15578 -19.04686 -19.04435 -14.55843 -14.55754
 Alpha  occ. eigenvalues --  -14.54961 -14.53559 -14.50073 -14.43759 -14.41145
 Alpha  occ. eigenvalues --  -14.33203 -10.50553 -10.46353 -10.46204 -10.42161
 Alpha  occ. eigenvalues --  -10.40496 -10.40053 -10.39687 -10.39626 -10.35742
 Alpha  occ. eigenvalues --  -10.35515 -10.31980 -10.31312 -10.29732 -10.27840
 Alpha  occ. eigenvalues --  -10.27818 -10.27477 -10.24656 -10.24525 -10.24326
 Alpha  occ. eigenvalues --  -10.24176 -10.23994 -10.23959 -10.23885 -10.22344
 Alpha  occ. eigenvalues --  -10.18311 -10.16153  -1.31406  -1.25044  -1.22037
 Alpha  occ. eigenvalues --   -1.20266  -1.16209  -1.15599  -1.10463  -1.09849
 Alpha  occ. eigenvalues --   -1.08743  -1.07902  -1.06722  -1.03991  -0.98525
 Alpha  occ. eigenvalues --   -0.98216  -0.97916  -0.95259  -0.92381  -0.91009
 Alpha  occ. eigenvalues --   -0.89954  -0.89412  -0.87998  -0.86965  -0.85442
 Alpha  occ. eigenvalues --   -0.82942  -0.81906  -0.80984  -0.79530  -0.78566
 Alpha  occ. eigenvalues --   -0.78124  -0.77853  -0.77574  -0.76915  -0.76517
 Alpha  occ. eigenvalues --   -0.74932  -0.74491  -0.73871  -0.72866  -0.69931
 Alpha  occ. eigenvalues --   -0.69001  -0.68370  -0.68207  -0.68121  -0.67474
 Alpha  occ. eigenvalues --   -0.66522  -0.65805  -0.65274  -0.65201  -0.64424
 Alpha  occ. eigenvalues --   -0.64242  -0.62993  -0.62588  -0.62170  -0.61870
 Alpha  occ. eigenvalues --   -0.61062  -0.59946  -0.59758  -0.59593  -0.58433
 Alpha  occ. eigenvalues --   -0.57826  -0.57276  -0.56907  -0.56190  -0.55588
 Alpha  occ. eigenvalues --   -0.55386  -0.54064  -0.53707  -0.53524  -0.53392
 Alpha  occ. eigenvalues --   -0.52908  -0.52655  -0.52533  -0.52127  -0.51814
 Alpha  occ. eigenvalues --   -0.50989  -0.50782  -0.49877  -0.49369  -0.49134
 Alpha  occ. eigenvalues --   -0.48949  -0.48147  -0.48024  -0.47409  -0.46991
 Alpha  occ. eigenvalues --   -0.46370  -0.45960  -0.45872  -0.45247  -0.44965
 Alpha  occ. eigenvalues --   -0.44928  -0.44274  -0.43887  -0.43679  -0.43045
 Alpha  occ. eigenvalues --   -0.41909  -0.41304  -0.41123  -0.39765  -0.39241
 Alpha  occ. eigenvalues --   -0.39190  -0.38965  -0.37473  -0.36956  -0.35820
 Alpha  occ. eigenvalues --   -0.35015  -0.33513  -0.33334  -0.31874  -0.31008
 Alpha  occ. eigenvalues --   -0.29405  -0.28084  -0.26224  -0.25900  -0.20157
 Alpha  occ. eigenvalues --   -0.18609  -0.17877
 Alpha virt. eigenvalues --   -0.17038  -0.16264  -0.13521  -0.12521  -0.11566
 Alpha virt. eigenvalues --   -0.09828  -0.08601  -0.07783  -0.07517  -0.06795
 Alpha virt. eigenvalues --   -0.06406  -0.05209  -0.04443  -0.03979  -0.03424
 Alpha virt. eigenvalues --   -0.03225  -0.02992  -0.01979  -0.01571  -0.01426
 Alpha virt. eigenvalues --   -0.00817  -0.00442   0.00148   0.00473   0.00897
 Alpha virt. eigenvalues --    0.01648   0.02444   0.02718   0.03188   0.03574
 Alpha virt. eigenvalues --    0.03928   0.04699   0.04755   0.05263   0.05363
 Alpha virt. eigenvalues --    0.05792   0.06486   0.06642   0.07037   0.07096
 Alpha virt. eigenvalues --    0.07355   0.08405   0.08755   0.09122   0.09483
 Alpha virt. eigenvalues --    0.09670   0.09988   0.10657   0.10942   0.11167
 Alpha virt. eigenvalues --    0.11483   0.11968   0.12178   0.12600   0.13160
 Alpha virt. eigenvalues --    0.13545   0.13845   0.14608   0.15596   0.16565
 Alpha virt. eigenvalues --    0.17016   0.17508   0.17951   0.18356   0.18465
 Alpha virt. eigenvalues --    0.19116   0.19206   0.20267   0.20999   0.21236
 Alpha virt. eigenvalues --    0.22032   0.22587   0.22966   0.24199   0.24877
 Alpha virt. eigenvalues --    0.25461   0.25660   0.25877   0.26455   0.28498
 Alpha virt. eigenvalues --    0.28578   0.29210   0.29615   0.30300   0.31326
 Alpha virt. eigenvalues --    0.31699   0.34008   0.34494   0.34776   0.35786
 Alpha virt. eigenvalues --    0.36109   0.37430   0.37614   0.38243   0.38256
 Alpha virt. eigenvalues --    0.39124   0.39545   0.39838   0.41002   0.41138
 Alpha virt. eigenvalues --    0.41437   0.41815   0.42960   0.43415   0.43805
 Alpha virt. eigenvalues --    0.44448   0.45222   0.45402   0.45922   0.46122
 Alpha virt. eigenvalues --    0.46652   0.47028   0.47938   0.48235   0.48539
 Alpha virt. eigenvalues --    0.48921   0.49524   0.49981   0.50563   0.50590
 Alpha virt. eigenvalues --    0.51051   0.51404   0.51883   0.52359   0.52494
 Alpha virt. eigenvalues --    0.53192   0.53398   0.53611   0.53925   0.54718
 Alpha virt. eigenvalues --    0.54961   0.55295   0.55563   0.55614   0.56412
 Alpha virt. eigenvalues --    0.56688   0.56906   0.57126   0.57499   0.57824
 Alpha virt. eigenvalues --    0.58313   0.58845   0.59228   0.60046   0.60863
 Alpha virt. eigenvalues --    0.61220   0.61732   0.62019   0.62250   0.62694
 Alpha virt. eigenvalues --    0.63096   0.63337   0.63931   0.64498   0.64774
 Alpha virt. eigenvalues --    0.64968   0.65151   0.65501   0.66375   0.66576
 Alpha virt. eigenvalues --    0.66830   0.67992   0.68431   0.68791   0.69314
 Alpha virt. eigenvalues --    0.69836   0.70121   0.70446   0.70661   0.71002
 Alpha virt. eigenvalues --    0.71678   0.71780   0.71901   0.72330   0.72631
 Alpha virt. eigenvalues --    0.73546   0.73997   0.74493   0.74696   0.74929
 Alpha virt. eigenvalues --    0.75276   0.75580   0.75789   0.76503   0.76597
 Alpha virt. eigenvalues --    0.76962   0.77148   0.77201   0.77659   0.78238
 Alpha virt. eigenvalues --    0.78358   0.79008   0.79212   0.79360   0.79743
 Alpha virt. eigenvalues --    0.79966   0.80564   0.80970   0.81391   0.81555
 Alpha virt. eigenvalues --    0.81793   0.81990   0.82358   0.83020   0.83580
 Alpha virt. eigenvalues --    0.83791   0.84683   0.85422   0.85599   0.85794
 Alpha virt. eigenvalues --    0.85920   0.86388   0.87032   0.87293   0.87837
 Alpha virt. eigenvalues --    0.88069   0.88435   0.89041   0.89413   0.90816
 Alpha virt. eigenvalues --    0.91118   0.91532   0.92083   0.92287   0.92584
 Alpha virt. eigenvalues --    0.93088   0.93792   0.94223   0.94546   0.95135
 Alpha virt. eigenvalues --    0.95966   0.96699   0.96797   0.97515   0.97853
 Alpha virt. eigenvalues --    0.98763   0.99226   0.99808   1.01012   1.01394
 Alpha virt. eigenvalues --    1.01992   1.02884   1.03481   1.03859   1.04777
 Alpha virt. eigenvalues --    1.05339   1.06122   1.06398   1.06623   1.06935
 Alpha virt. eigenvalues --    1.07878   1.08892   1.09395   1.10149   1.10999
 Alpha virt. eigenvalues --    1.11455   1.13032   1.13789   1.14095   1.15268
 Alpha virt. eigenvalues --    1.15785   1.16104   1.16739   1.17520   1.18102
 Alpha virt. eigenvalues --    1.18738   1.18996   1.20296   1.21101   1.21494
 Alpha virt. eigenvalues --    1.22531   1.24347   1.25276   1.25373   1.25955
 Alpha virt. eigenvalues --    1.27168   1.28004   1.28262   1.28525   1.29619
 Alpha virt. eigenvalues --    1.29996   1.30221   1.32312   1.33196   1.33540
 Alpha virt. eigenvalues --    1.34999   1.35960   1.36093   1.36314   1.37517
 Alpha virt. eigenvalues --    1.38416   1.38790   1.40304   1.41082   1.41126
 Alpha virt. eigenvalues --    1.41451   1.42572   1.43549   1.44307   1.44758
 Alpha virt. eigenvalues --    1.45024   1.45737   1.46080   1.47312   1.47699
 Alpha virt. eigenvalues --    1.48633   1.49853   1.50480   1.51152   1.52006
 Alpha virt. eigenvalues --    1.53058   1.53782   1.54301   1.54590   1.54887
 Alpha virt. eigenvalues --    1.55608   1.56736   1.57183   1.58359   1.59057
 Alpha virt. eigenvalues --    1.59507   1.60129   1.60313   1.61109   1.62413
 Alpha virt. eigenvalues --    1.63920   1.64994   1.65398   1.66384   1.66946
 Alpha virt. eigenvalues --    1.67831   1.68017   1.68817   1.70090   1.70658
 Alpha virt. eigenvalues --    1.71330   1.71617   1.72297   1.73041   1.73459
 Alpha virt. eigenvalues --    1.74711   1.75355   1.75602   1.76145   1.76720
 Alpha virt. eigenvalues --    1.77212   1.77843   1.78047   1.78433   1.79239
 Alpha virt. eigenvalues --    1.79744   1.80416   1.81525   1.81886   1.82248
 Alpha virt. eigenvalues --    1.82962   1.83707   1.84434   1.85635   1.85869
 Alpha virt. eigenvalues --    1.86251   1.86513   1.86993   1.87535   1.88212
 Alpha virt. eigenvalues --    1.88647   1.89033   1.89075   1.90066   1.90129
 Alpha virt. eigenvalues --    1.90233   1.90597   1.90763   1.91323   1.91510
 Alpha virt. eigenvalues --    1.92378   1.92994   1.93530   1.94127   1.95224
 Alpha virt. eigenvalues --    1.95509   1.96231   1.96408   1.96627   1.97212
 Alpha virt. eigenvalues --    1.97932   1.98027   1.98682   1.99334   2.00492
 Alpha virt. eigenvalues --    2.00671   2.01280   2.01740   2.02342   2.03290
 Alpha virt. eigenvalues --    2.03954   2.04747   2.05670   2.06710   2.07073
 Alpha virt. eigenvalues --    2.07709   2.08586   2.08777   2.09291   2.09951
 Alpha virt. eigenvalues --    2.10370   2.11651   2.12274   2.12592   2.13147
 Alpha virt. eigenvalues --    2.14103   2.15899   2.15946   2.16703   2.17638
 Alpha virt. eigenvalues --    2.18246   2.19304   2.19928   2.20360   2.21427
 Alpha virt. eigenvalues --    2.21987   2.22194   2.22975   2.23469   2.23857
 Alpha virt. eigenvalues --    2.26935   2.27520   2.28377   2.29403   2.29871
 Alpha virt. eigenvalues --    2.30566   2.31278   2.32251   2.33152   2.33766
 Alpha virt. eigenvalues --    2.33964   2.34586   2.35271   2.35644   2.37164
 Alpha virt. eigenvalues --    2.37592   2.38697   2.39071   2.39849   2.40498
 Alpha virt. eigenvalues --    2.40850   2.41487   2.42364   2.43117   2.43685
 Alpha virt. eigenvalues --    2.44315   2.45080   2.45514   2.46739   2.47114
 Alpha virt. eigenvalues --    2.48740   2.49136   2.50980   2.51157   2.52217
 Alpha virt. eigenvalues --    2.52760   2.54626   2.55421   2.56601   2.57283
 Alpha virt. eigenvalues --    2.57844   2.59417   2.60029   2.61007   2.62420
 Alpha virt. eigenvalues --    2.62954   2.64503   2.65040   2.66408   2.67169
 Alpha virt. eigenvalues --    2.68830   2.69050   2.69850   2.72060   2.74157
 Alpha virt. eigenvalues --    2.75915   2.76598   2.77123   2.78694   2.78934
 Alpha virt. eigenvalues --    2.80613   2.80998   2.81910   2.82254   2.83707
 Alpha virt. eigenvalues --    2.85631   2.87039   2.88264   2.88879   2.89717
 Alpha virt. eigenvalues --    2.90584   2.92029   2.96045   2.98630   2.98807
 Alpha virt. eigenvalues --    2.99697   3.00386   3.00829   3.04419   3.08161
 Alpha virt. eigenvalues --    3.12245   3.20082   3.21100   3.40197   3.61614
 Alpha virt. eigenvalues --    3.65052   3.68342   3.69312   3.79306   3.80334
 Alpha virt. eigenvalues --    3.88667   3.92913   3.96200   3.98411   3.99738
 Alpha virt. eigenvalues --    4.02125   4.02906   4.04169   4.06176   4.08947
 Alpha virt. eigenvalues --    4.10295   4.11130   4.12437   4.16894   4.17970
 Alpha virt. eigenvalues --    4.18743   4.20525   4.20783   4.21383   4.25967
 Alpha virt. eigenvalues --    4.27052   4.28680   4.30252   4.34064   4.34810
 Alpha virt. eigenvalues --    4.35148   4.37405   4.39540   4.43676   4.50859
 Alpha virt. eigenvalues --    4.51651   4.54645   4.57887   4.62251   4.69116
 Alpha virt. eigenvalues --    4.74960
          Condensed to atoms (all electrons):
 Mulliken charges:
               1
     1  N   -0.686169
     2  H    0.281562
     3  H    0.310722
     4  C   -0.084062
     5  H    0.118891
     6  C    0.595470
     7  C   -0.258268
     8  H    0.182885
     9  H    0.150446
    10  O   -0.527365
    11  C   -0.340786
    12  H    0.112815
    13  H    0.079066
    14  C    0.549500
    15  O   -0.540751
    16  O   -0.603838
    17  N   -0.600494
    18  H    0.351785
    19  C   -0.062487
    20  H    0.187622
    21  C    0.633732
    22  C   -0.350469
    23  H    0.114424
    24  H    0.154475
    25  O   -0.504332
    26  C    0.064945
    27  C    0.023365
    28  H    0.157442
    29  C    0.095552
    30  C    0.322754
    31  C   -0.207154
    32  H    0.082950
    33  N   -0.692865
    34  H    0.335985
    35  C   -0.151598
    36  H    0.134263
    37  C   -0.154516
    38  H    0.137097
    39  C   -0.138421
    40  H    0.117382
    41  N   -0.643704
    42  H    0.355529
    43  C   -0.092238
    44  H    0.210110
    45  C    0.641408
    46  C    0.026286
    47  H    0.232847
    48  O   -0.562934
    49  C   -0.480490
    50  H    0.211867
    51  H    0.224968
    52  H    0.235598
    53  O   -0.577984
    54  H    0.494643
    55  N   -0.584505
    56  H    0.351492
    57  C   -0.063869
    58  H    0.226789
    59  C    0.601817
    60  C   -0.308280
    61  H    0.204916
    62  H    0.157217
    63  O   -0.455782
    64  C   -0.278415
    65  H    0.175417
    66  H    0.163201
    67  C   -0.194964
    68  H    0.181731
    69  H    0.207871
    70  N   -0.572424
    71  H    0.369313
    72  N   -0.734141
    73  H    0.382119
    74  H    0.376755
    75  N   -0.731995
    76  H    0.380645
    77  H    0.376965
    78  C    0.735518
    79  O   -0.556803
    80  H    0.439957
    81  H    0.481993
 Sum of Mulliken charges =   1.00000
 Mulliken charges with hydrogens summed into heavy atoms:
               1
     1  N   -0.093885
     4  C    0.034829
     6  C    0.595470
     7  C    0.075064
    10  O   -0.527365
    11  C   -0.148905
    14  C    0.549500
    15  O   -0.540751
    16  O   -0.603838
    17  N   -0.248709
    19  C    0.125134
    21  C    0.633732
    22  C   -0.081569
    25  O   -0.504332
    26  C    0.064945
    27  C    0.180807
    29  C    0.095552
    30  C    0.322754
    31  C   -0.124204
    33  N   -0.356880
    35  C   -0.017334
    37  C   -0.017419
    39  C   -0.021039
    41  N   -0.288175
    43  C    0.117873
    45  C    0.641408
    46  C    0.259133
    48  O   -0.562934
    49  C    0.191942
    53  O    0.398651
    55  N   -0.233014
    57  C    0.162920
    59  C    0.601817
    60  C    0.053853
    63  O   -0.455782
    64  C    0.060204
    67  C    0.194638
    70  N   -0.203111
    72  N    0.024733
    75  N    0.025616
    78  C    0.735518
    79  O   -0.116845
 Electronic spatial extent (au):  <R**2>=          32989.0111
 Charge=              1.0000 electrons
 Dipole moment (field-independent basis, Debye):
    X=             26.5510    Y=             31.5938    Z=            -28.9807  Tot=             50.4282
 Quadrupole moment (field-independent basis, Debye-Ang):
   XX=           -142.5905   YY=            -82.5155   ZZ=           -318.8813
   XY=             39.1874   XZ=            -10.2653   YZ=            -14.5906
 Traceless Quadrupole moment (field-independent basis, Debye-Ang):
   XX=             38.7386   YY=             98.8136   ZZ=           -137.5522
   XY=             39.1874   XZ=            -10.2653   YZ=            -14.5906
 Octapole moment (field-independent basis, Debye-Ang**2):
  XXX=            533.9022  YYY=            479.2334  ZZZ=          -1203.7419  XYY=            585.3274
  XXY=            140.4435  XXZ=           -334.8963  XZZ=            517.2306  YZZ=            316.1993
  YYZ=           -605.4549  XYZ=           -303.5630
 Hexadecapole moment (field-independent basis, Debye-Ang**3):
 XXXX=         -16352.9172 YYYY=          -1807.6465 ZZZZ=         -17228.2315 XXXY=           -939.0221
 XXXZ=           2183.5886 YYYX=           2060.8442 YYYZ=            444.9478 ZZZX=           3740.0100
 ZZZY=           3947.1101 XXYY=          -3334.7716 XXZZ=          -5233.8777 YYZZ=          -2873.1846
 XXYZ=            745.7601 YYXZ=           -255.7941 ZZXY=             -6.1601
 N-N= 5.088016793287D+03 E-N=-1.493483130928D+04  KE= 2.035883437285D+03
 Unable to Open any file for archive entry.
 1\1\GINC-LAC-311\SP\RB3LYP\6-31G(d)\C26H39N8O8(1+)\KENGMITH\26-May-202
 2\0\\# B3LYP/6-31G* guess=read geom=check nosymm integral(ultrafinegri
 d)\\Candidate Structure: Conf:315 Charge calc in gas phase\\1,1\N,0,-5
 .84962576,-0.41276598,3.81244019\H,0,-6.37699676,0.3181506,3.3462293\H
 ,0,-5.96678477,-1.2385197,3.23115793\C,0,-4.43378121,-0.08095576,3.825
 87924\H,0,-4.30925166,0.88492451,4.32934765\C,0,-3.84237252,-0.0055643
 3,2.415547\C,0,-3.69487573,-1.15583834,4.64067324\H,0,-4.26051937,-1.3
 1484782,5.56204859\H,0,-3.72829518,-2.09608559,4.08276977\O,0,-4.24984
 949,-0.72386447,1.51527962\C,0,-2.24910599,-0.83696319,5.01043028\H,0,
 -2.19667265,0.03706623,5.66179383\H,0,-1.63499852,-0.66972325,4.124012
 42\C,0,-1.73760698,-2.08035177,5.77142871\O,0,-1.85727623,-2.05793224,
 7.00682289\O,0,-1.28777157,-2.98502961,5.04413784\N,0,-2.82048474,0.88
 183049,2.25691361\H,0,-2.40632973,1.30438574,3.07457856\C,0,-1.9828495
 7,0.86459559,1.07524265\H,0,-2.31544528,0.02393192,0.46581747\C,0,-0.5
 3237438,0.68076884,1.5250996\C,0,-2.125655,2.16448894,0.26692482\H,0,-
 1.41529615,2.16066053,-0.5638398\H,0,-1.86990774,3.00512824,0.9163898\
 O,0,-0.11708986,1.15985681,2.57233671\C,0,-3.5280088,2.32638431,-0.248
 49674\C,0,-4.59277989,2.80446415,0.46589009\H,0,-4.62187994,3.17441009
 ,1.47962345\C,0,-4.04379272,1.94193666,-1.5384745\C,0,-5.42221543,2.21
 665146,-1.53862013\C,0,-3.44834888,1.39311113,-2.68023424\H,0,-2.38676
 661,1.1725853,-2.70584386\N,0,-5.73344849,2.74404904,-0.30489518\H,0,-
 6.65228342,3.00475605,0.00059764\C,0,-5.62621854,1.41436037,-3.7621560
 3\H,0,-6.22228134,1.199467,-4.64084711\C,0,-6.23680476,1.95887913,-2.6
 4324433\H,0,-7.29889688,2.17719673,-2.62154628\C,0,-4.24657709,1.13457
 257,-3.78103052\H,0,-3.80418479,0.70998041,-4.67436239\N,0,0.25345375,
 -0.03337553,0.67003123\H,0,-0.1030164,-0.2473036,-0.24754913\C,0,1.700
 69486,-0.12264466,0.83450265\H,0,2.0282607,0.70926867,1.44782211\C,0,2
 .31792426,-0.08831943,-0.54642458\C,0,2.13130891,-1.4480258,1.49414824
 \H,0,3.21913385,-1.50667405,1.46127558\O,0,1.98162294,-0.92462133,-1.3
 9990349\C,0,1.63248511,-1.62271572,2.91191611\H,0,2.08463752,-0.871415
 47,3.56383845\H,0,1.89935885,-2.61150022,3.28530165\H,0,0.55038731,-1.
 51625888,2.97233892\O,0,1.63920437,-2.56833629,0.6487705\H,0,0.6667460
 8,-2.61292336,0.79042106\N,0,3.21267762,0.87982302,-0.81640592\H,0,3.6
 3604573,1.35438572,-0.03356998\C,0,4.06641366,0.72756906,-1.98922155\H
 ,0,3.42845297,0.45005168,-2.83352165\C,0,5.03078952,-0.42085221,-1.764
 15807\C,0,4.80288044,2.0293711,-2.28642283\H,0,5.52849606,1.8458033,-3
 .0793648\H,0,5.3672704,2.31553158,-1.39679573\O,0,5.1718836,-1.0097178
 4,-0.72365767\C,0,3.85766255,3.14519209,-2.7110118\H,0,3.27066278,2.80
 616913,-3.5674655\H,0,3.15096787,3.37510038,-1.91908177\C,0,4.60795064
 ,4.41337241,-3.0846966\H,0,5.22479574,4.75211304,-2.24514954\H,0,5.291
 11645,4.2033871,-3.91067187\N,0,3.75298553,5.52211663,-3.54549882\H,0,
 3.41790626,5.44617982,-4.49566724\N,0,2.99774678,6.02035166,-1.3924534
 1\H,0,2.63427904,6.72370031,-0.76940279\H,0,3.74332122,5.45119746,-1.0
 2750609\N,0,2.08013854,7.09883491,-3.26538236\H,0,2.30228855,7.4638359
 2,-4.18211522\H,0,1.63780433,7.75924298,-2.64331354\C,0,2.96234385,6.2
 2429268,-2.72229774\O,0,5.72860843,-0.70832903,-2.88101857\H,0,6.31263
 216,-1.44212392,-2.65536191\H,0,1.74835281,-2.19705928,-0.28253317\\Ve
 rsion=ES64L-G16RevC.01\HF=-2053.7395945\RMSD=5.595e-10\Dipole=11.08725
 52,10.6222209,-11.8164899\Quadrupole=28.8012287,73.4654907,-102.266719
 4,29.1348455,-7.6320045,-10.8477626\PG=C01 [X(C26H39N8O8)]\\@
 The archive entry for this job was punched.


 You can't act like a skunk without someone's getting wind of it.
 -- Lorene Workman
 Job cpu time:       0 days  0 hours  4 minutes 42.5 seconds.
 Elapsed time:       0 days  0 hours  1 minutes 11.5 seconds.
 File lengths (MBytes):  RWF=    376 Int=      0 D2E=      0 Chk=     56 Scr=     16
 Normal termination of Gaussian 16 at Thu May 26 18:17:00 2022.
