 Entering Gaussian System, Link 0=/opt/software/Gaussian/g16-AVX2-C.01/g16/g16
 Input=charge-conf-304.com
 Output=charge-conf-304.log
 Initial command:
 /opt/software/Gaussian/g16-AVX2-C.01/g16/l1.exe "/mnt/gs18/scratch/users/kengmith/Gau-63227.inp" -scrdir="/mnt/gs18/scratch/users/kengmith/"
 Entering Link 1 = /opt/software/Gaussian/g16-AVX2-C.01/g16/l1.exe PID=     63252.
  
 Copyright (c) 1988-2019, Gaussian, Inc.  All Rights Reserved.
  
 This is part of the Gaussian(R) 16 program.  It is based on
 the Gaussian(R) 09 system (copyright 2009, Gaussian, Inc.),
 the Gaussian(R) 03 system (copyright 2003, Gaussian, Inc.),
 the Gaussian(R) 98 system (copyright 1998, Gaussian, Inc.),
 the Gaussian(R) 94 system (copyright 1995, Gaussian, Inc.),
 the Gaussian 92(TM) system (copyright 1992, Gaussian, Inc.),
 the Gaussian 90(TM) system (copyright 1990, Gaussian, Inc.),
 the Gaussian 88(TM) system (copyright 1988, Gaussian, Inc.),
 the Gaussian 86(TM) system (copyright 1986, Carnegie Mellon
 University), and the Gaussian 82(TM) system (copyright 1983,
 Carnegie Mellon University). Gaussian is a federally registered
 trademark of Gaussian, Inc.
  
 This software contains proprietary and confidential information,
 including trade secrets, belonging to Gaussian, Inc.
  
 This software is provided under written license and may be
 used, copied, transmitted, or stored only in accord with that
 written license.
  
 The following legend is applicable only to US Government
 contracts under FAR:
  
                    RESTRICTED RIGHTS LEGEND
  
 Use, reproduction and disclosure by the US Government is
 subject to restrictions as set forth in subparagraphs (a)
 and (c) of the Commercial Computer Software - Restricted
 Rights clause in FAR 52.227-19.
  
 Gaussian, Inc.
 340 Quinnipiac St., Bldg. 40, Wallingford CT 06492
  
  
 ---------------------------------------------------------------
 Warning -- This program may not be used in any manner that
 competes with the business of Gaussian, Inc. or will provide
 assistance to any competitor of Gaussian, Inc.  The licensee
 of this program is prohibited from giving any competitor of
 Gaussian, Inc. access to this program.  By using this program,
 the user acknowledges that Gaussian, Inc. is engaged in the
 business of creating and licensing software in the field of
 computational chemistry and represents and warrants to the
 licensee that it is not a competitor of Gaussian, Inc. and that
 it will not use this program in any manner prohibited above.
 ---------------------------------------------------------------
  

 Cite this work as:
 Gaussian 16, Revision C.01,
 M. J. Frisch, G. W. Trucks, H. B. Schlegel, G. E. Scuseria, 
 M. A. Robb, J. R. Cheeseman, G. Scalmani, V. Barone, 
 G. A. Petersson, H. Nakatsuji, X. Li, M. Caricato, A. V. Marenich, 
 J. Bloino, B. G. Janesko, R. Gomperts, B. Mennucci, H. P. Hratchian, 
 J. V. Ortiz, A. F. Izmaylov, J. L. Sonnenberg, D. Williams-Young, 
 F. Ding, F. Lipparini, F. Egidi, J. Goings, B. Peng, A. Petrone, 
 T. Henderson, D. Ranasinghe, V. G. Zakrzewski, J. Gao, N. Rega, 
 G. Zheng, W. Liang, M. Hada, M. Ehara, K. Toyota, R. Fukuda, 
 J. Hasegawa, M. Ishida, T. Nakajima, Y. Honda, O. Kitao, H. Nakai, 
 T. Vreven, K. Throssell, J. A. Montgomery, Jr., J. E. Peralta, 
 F. Ogliaro, M. J. Bearpark, J. J. Heyd, E. N. Brothers, K. N. Kudin, 
 V. N. Staroverov, T. A. Keith, R. Kobayashi, J. Normand, 
 K. Raghavachari, A. P. Rendell, J. C. Burant, S. S. Iyengar, 
 J. Tomasi, M. Cossi, J. M. Millam, M. Klene, C. Adamo, R. Cammi, 
 J. W. Ochterski, R. L. Martin, K. Morokuma, O. Farkas, 
 J. B. Foresman, and D. J. Fox, Gaussian, Inc., Wallingford CT, 2019.
 
 ******************************************
 Gaussian 16:  ES64L-G16RevC.01  3-Jul-2019
                26-May-2022 
 ******************************************
 %mem=8gb
 %nproc=4
 Will use up to    4 processors via shared memory.
 %chk=conf-304.chk
 -------------------------------------------------------------------
 # B3LYP/6-31G* guess=read geom=check nosymm integral(ultrafinegrid)
 -------------------------------------------------------------------
 1/29=2,38=1,172=1/1;
 2/12=2,15=1,40=1/2;
 3/5=1,6=6,7=1,11=2,14=-4,25=1,30=1,74=-5,75=-5,116=-2/1,2,3;
 4/5=1/1;
 5/5=2,38=6/2;
 6/7=2,8=2,9=2,10=2,28=1/1;
 99/5=1,9=1/99;
 ------------------------------------------------------
 Candidate Structure: Conf:304 Charge calc in gas phase
 ------------------------------------------------------
 Structure from the checkpoint file:  "conf-304.chk"
 Charge =  1 Multiplicity = 1
 Redundant internal coordinates found in file.  (old form).
 N,0,-5.4739958868,-3.3509401771,-2.7345643242
 H,0,-5.852156442,-3.9733094047,-3.4548914507
 H,0,-4.7549264862,-3.8764754376,-2.1862091373
 H,0,-6.2486212653,-3.0260904843,-2.1292499397
 C,0,-4.7246721455,-2.167895479,-3.3025943413
 H,0,-5.0909324679,-1.9922245915,-4.3162228719
 C,0,-3.2428950559,-2.5964111035,-3.2483511558
 C,0,-4.9542431357,-0.9222698797,-2.3935333168
 H,0,-4.3680064922,-1.0483344182,-1.4747694317
 H,0,-4.5398256888,-0.057162562,-2.9225751733
 O,0,-2.9377052967,-3.5080763627,-2.4676883195
 C,0,-6.4165609664,-0.7179427514,-2.0588747988
 C,0,-6.9093522397,-1.1510723069,-0.8153279598
 H,0,-6.2180736007,-1.5430949866,-0.0704356737
 C,0,-7.3050115357,-0.1490408433,-2.9842194746
 H,0,-6.9359707503,0.2087272541,-3.9433018489
 C,0,-8.2675378119,-1.0173027002,-0.5066133731
 H,0,-8.633966181,-1.3401509945,0.4632800844
 C,0,-8.6564310785,-0.0116115982,-2.6710272707
 H,0,-9.3322878766,0.4447292893,-3.3881239352
 C,0,-9.14055179,-0.4499980719,-1.4342766416
 H,0,-10.1930969229,-0.3372964473,-1.1928673017
 N,0,-2.3738014249,-1.8956898596,-3.9952859159
 H,0,-2.721445422,-1.0595945966,-4.4561594089
 C,0,-0.9279614827,-1.8563601416,-3.6549800464
 H,0,-0.6395947657,-2.8733617251,-3.3840558126
 C,0,-0.858897128,-0.8845076932,-2.4673635552
 C,0,-0.0774089413,-1.4001129056,-4.8461757443
 H,0,0.9472884659,-1.2802179544,-4.4825016735
 H,0,-0.4173406131,-0.4130173116,-5.1915463859
 O,0,-1.0546287483,0.3183834276,-2.6342131736
 O,0,-0.0506374647,-2.3665718368,-5.8759522059
 H,0,-0.8421925623,-2.2698856857,-6.4255623379
 N,0,-0.7606695965,-1.4669755618,-1.2461731078
 H,0,-0.4034972064,-2.4127962644,-1.1826305127
 C,0,-0.9823551142,-0.7167082121,-0.0082491123
 H,0,-1.5799037851,0.152753356,-0.2973739241
 C,0,0.3672831213,-0.2323582614,0.5539099304
 C,0,-1.7945974537,-1.5818167516,0.9636672978
 H,0,-2.087396822,-0.9845166717,1.8295100781
 H,0,-1.1867362147,-2.4187824425,1.331232014
 O,0,0.8449513017,-0.724823445,1.5916398145
 O,0,-3.0006555645,-2.0436706304,0.3530807936
 H,0,-2.7472743619,-2.6706972425,-0.3451438076
 N,0,0.9635595851,0.681898086,-0.2172875898
 H,0,0.4579646405,0.9931109713,-1.0407077871
 C,0,2.3456127437,1.1114261456,-0.0605645074
 H,0,2.9437551256,0.2268715526,0.1850384136
 C,0,2.5007980086,2.153112044,1.0802060724
 C,0,2.8796813858,1.7291509714,-1.3647859398
 H,0,2.2836312247,2.6109753812,-1.6402229624
 H,0,3.901665255,2.106420073,-1.2003961686
 O,0,1.5229017812,2.7649611626,1.5239893496
 C,0,2.885740749,0.7821480703,-2.5455540632
 O,0,2.3601951568,-0.3182296638,-2.591267204
 O,0,3.5465009589,1.3162773358,-3.5851371092
 N,0,3.780919737,2.2920289424,1.4775511167
 H,0,4.5021194682,1.8815157365,0.8383691619
 C,0,4.3866147955,3.5987493893,1.8063786962
 H,0,3.6709724639,4.3894685722,1.5533806957
 C,0,5.6399307455,3.7146419261,0.8254894593
 C,0,4.8134574796,3.7771264007,3.2658659475
 H,0,5.3597435125,4.7233901635,3.2941403198
 H,0,5.5528869203,3.0044190322,3.5232000144
 O,0,6.3268667378,4.7290012482,0.9636064119
 C,0,3.64227837,3.782063976,4.2781649636
 H,0,2.6931890844,3.839297364,3.7314301374
 H,0,3.6755528483,4.6810450124,4.9065685668
 C,0,3.6219947373,2.5917869473,5.252312653
 H,0,4.4526196383,2.6702788943,5.9595579641
 H,0,2.6981622613,2.5735529804,5.8396572617
 N,0,3.7715892243,1.264431871,4.6269177168
 H,0,4.7188311988,0.9615988412,4.4439778138
 N,0,1.5649798482,1.1091287116,3.8802512878
 H,0,0.9370097168,0.5386087273,3.3192973476
 H,0,1.5053728064,2.0902087585,3.6131537303
 N,0,3.0292512851,-0.6431597256,3.5206066548
 H,0,3.9234197229,-1.0911234914,3.6585582046
 H,0,2.4318352049,-0.9685151943,2.7621751073
 C,0,2.8096313459,0.5993982623,3.985440299
 O,0,5.7660523308,2.7239698229,0.0321941154
 H,0,3.537387321,0.6605899784,-4.3077234892
 Recover connectivity data from disk.
                           ----------------------------
                           !    Current Parameters    !
                           ! (Angstroms and Degrees)  !
 --------------------------                            --------------------------
 ! Name  Definition              Value                                          !
 --------------------------------------------------------------------------------
 ! R1    R(1,2)                  1.0243                                         !
 ! R2    R(1,3)                  1.0459                                         !
 ! R3    R(1,4)                  1.0354                                         !
 ! R4    R(1,5)                  1.5112                                         !
 ! R5    R(5,6)                  1.092                                          !
 ! R6    R(5,7)                  1.5434                                         !
 ! R7    R(5,8)                  1.5591                                         !
 ! R8    R(7,11)                 1.2384                                         !
 ! R9    R(7,23)                 1.3432                                         !
 ! R10   R(8,9)                  1.0971                                         !
 ! R11   R(8,10)                 1.0955                                         !
 ! R12   R(8,12)                 1.514                                          !
 ! R13   R(12,13)                1.406                                          !
 ! R14   R(12,15)                1.4033                                         !
 ! R15   R(13,14)                1.0892                                         !
 ! R16   R(13,17)                1.3992                                         !
 ! R17   R(15,16)                1.0881                                         !
 ! R18   R(15,19)                1.394                                          !
 ! R19   R(17,18)                1.0859                                         !
 ! R20   R(17,21)                1.3945                                         !
 ! R21   R(19,20)                1.0859                                         !
 ! R22   R(19,21)                1.3986                                         !
 ! R23   R(21,22)                1.0857                                         !
 ! R24   R(23,24)                1.016                                          !
 ! R25   R(23,25)                1.4859                                         !
 ! R26   R(25,26)                1.0913                                         !
 ! R27   R(25,27)                1.5361                                         !
 ! R28   R(25,28)                1.5331                                         !
 ! R29   R(27,31)                1.2301                                         !
 ! R30   R(27,34)                1.3565                                         !
 ! R31   R(28,29)                1.0939                                         !
 ! R32   R(28,30)                1.0996                                         !
 ! R33   R(28,32)                1.4125                                         !
 ! R34   R(32,33)                0.9685                                         !
 ! R35   R(34,35)                1.013                                          !
 ! R36   R(34,36)                1.4644                                         !
 ! R37   R(36,37)                1.0939                                         !
 ! R38   R(36,38)                1.5402                                         !
 ! R39   R(36,39)                1.5339                                         !
 ! R40   R(38,42)                1.244                                          !
 ! R41   R(38,45)                1.3365                                         !
 ! R42   R(39,40)                1.0919                                         !
 ! R43   R(39,41)                1.0978                                         !
 ! R44   R(39,43)                1.4285                                         !
 ! R45   R(43,44)                0.9721                                         !
 ! R46   R(45,46)                1.0151                                         !
 ! R47   R(45,47)                1.4557                                         !
 ! R48   R(47,48)                1.0957                                         !
 ! R49   R(47,49)                1.5526                                         !
 ! R50   R(47,50)                1.5388                                         !
 ! R51   R(49,53)                1.236                                          !
 ! R52   R(49,57)                1.3476                                         !
 ! R53   R(50,51)                1.0994                                         !
 ! R54   R(50,52)                1.1017                                         !
 ! R55   R(50,54)                1.5136                                         !
 ! R56   R(54,55)                1.2203                                         !
 ! R57   R(54,56)                1.3426                                         !
 ! R58   R(56,82)                0.9758                                         !
 ! R59   R(57,58)                1.0475                                         !
 ! R60   R(57,59)                1.4773                                         !
 ! R61   R(59,60)                1.0961                                         !
 ! R62   R(59,61)                1.5957                                         !
 ! R63   R(59,62)                1.5311                                         !
 ! R64   R(61,65)                1.2328                                         !
 ! R65   R(61,81)                1.2754                                         !
 ! R66   R(62,63)                1.093                                          !
 ! R67   R(62,64)                1.1                                            !
 ! R68   R(62,66)                1.548                                          !
 ! R69   R(66,67)                1.0968                                         !
 ! R70   R(66,68)                1.0973                                         !
 ! R71   R(66,69)                1.5382                                         !
 ! R72   R(69,70)                1.0938                                         !
 ! R73   R(69,71)                1.0949                                         !
 ! R74   R(69,72)                1.4749                                         !
 ! R75   R(72,73)                1.0112                                         !
 ! R76   R(72,80)                1.3338                                         !
 ! R77   R(74,75)                1.0171                                         !
 ! R78   R(74,76)                1.0185                                         !
 ! R79   R(74,80)                1.3491                                         !
 ! R80   R(77,78)                1.0096                                         !
 ! R81   R(77,79)                1.0188                                         !
 ! R82   R(77,80)                1.3447                                         !
 ! A1    A(2,1,3)              108.4943                                         !
 ! A2    A(2,1,4)              108.9995                                         !
 ! A3    A(2,1,5)              113.2276                                         !
 ! A4    A(3,1,4)              111.4384                                         !
 ! A5    A(3,1,5)              104.4494                                         !
 ! A6    A(4,1,5)              110.1883                                         !
 ! A7    A(1,5,6)              107.9709                                         !
 ! A8    A(1,5,7)              104.21                                           !
 ! A9    A(1,5,8)              109.4681                                         !
 ! A10   A(6,5,7)              113.5338                                         !
 ! A11   A(6,5,8)              111.3042                                         !
 ! A12   A(7,5,8)              110.041                                          !
 ! A13   A(5,7,11)             117.5886                                         !
 ! A14   A(5,7,23)             117.1803                                         !
 ! A15   A(11,7,23)            125.1074                                         !
 ! A16   A(5,8,9)              108.5301                                         !
 ! A17   A(5,8,10)             107.0768                                         !
 ! A18   A(5,8,12)             112.2681                                         !
 ! A19   A(9,8,10)             107.0392                                         !
 ! A20   A(9,8,12)             110.2736                                         !
 ! A21   A(10,8,12)            111.4425                                         !
 ! A22   A(8,12,13)            119.5025                                         !
 ! A23   A(8,12,15)            121.3636                                         !
 ! A24   A(13,12,15)           119.0911                                         !
 ! A25   A(12,13,14)           119.5569                                         !
 ! A26   A(12,13,17)           120.3907                                         !
 ! A27   A(14,13,17)           119.9706                                         !
 ! A28   A(12,15,16)           119.985                                          !
 ! A29   A(12,15,19)           120.3701                                         !
 ! A30   A(16,15,19)           119.6298                                         !
 ! A31   A(13,17,18)           119.7473                                         !
 ! A32   A(13,17,21)           119.9872                                         !
 ! A33   A(18,17,21)           120.2563                                         !
 ! A34   A(15,19,20)           119.7634                                         !
 ! A35   A(15,19,21)           120.2206                                         !
 ! A36   A(20,19,21)           120.0142                                         !
 ! A37   A(17,21,19)           119.9384                                         !
 ! A38   A(17,21,22)           120.0813                                         !
 ! A39   A(19,21,22)           119.9761                                         !
 ! A40   A(7,23,24)            117.3961                                         !
 ! A41   A(7,23,25)            121.0671                                         !
 ! A42   A(24,23,25)           114.5223                                         !
 ! A43   A(23,25,26)           106.8175                                         !
 ! A44   A(23,25,27)           103.7427                                         !
 ! A45   A(23,25,28)           111.7008                                         !
 ! A46   A(26,25,27)           112.6927                                         !
 ! A47   A(26,25,28)           108.8827                                         !
 ! A48   A(27,25,28)           112.7971                                         !
 ! A49   A(25,27,31)           120.4414                                         !
 ! A50   A(25,27,34)           115.3144                                         !
 ! A51   A(31,27,34)           123.6084                                         !
 ! A52   A(25,28,29)           107.0968                                         !
 ! A53   A(25,28,30)           109.8562                                         !
 ! A54   A(25,28,32)           111.9214                                         !
 ! A55   A(29,28,30)           107.1938                                         !
 ! A56   A(29,28,32)           107.4341                                         !
 ! A57   A(30,28,32)           113.0213                                         !
 ! A58   A(28,32,33)           109.2642                                         !
 ! A59   A(27,34,35)           118.8746                                         !
 ! A60   A(27,34,36)           122.0085                                         !
 ! A61   A(35,34,36)           118.6007                                         !
 ! A62   A(34,36,37)           105.455                                          !
 ! A63   A(34,36,38)           109.6947                                         !
 ! A64   A(34,36,39)           109.0772                                         !
 ! A65   A(37,36,38)           108.9773                                         !
 ! A66   A(37,36,39)           109.0562                                         !
 ! A67   A(38,36,39)           114.2122                                         !
 ! A68   A(36,38,42)           121.0946                                         !
 ! A69   A(36,38,45)           113.2955                                         !
 ! A70   A(42,38,45)           125.5102                                         !
 ! A71   A(36,39,40)           109.6294                                         !
 ! A72   A(36,39,41)           110.423                                          !
 ! A73   A(36,39,43)           111.0133                                         !
 ! A74   A(40,39,41)           107.4606                                         !
 ! A75   A(40,39,43)           106.8223                                         !
 ! A76   A(41,39,43)           111.3525                                         !
 ! A77   A(39,43,44)           107.1874                                         !
 ! A78   A(38,45,46)           117.1017                                         !
 ! A79   A(38,45,47)           124.2844                                         !
 ! A80   A(46,45,47)           118.0162                                         !
 ! A81   A(45,47,48)           107.7105                                         !
 ! A82   A(45,47,49)           111.8368                                         !
 ! A83   A(45,47,50)           110.8984                                         !
 ! A84   A(48,47,49)           108.8072                                         !
 ! A85   A(48,47,50)           108.9415                                         !
 ! A86   A(49,47,50)           108.5859                                         !
 ! A87   A(47,49,53)           121.123                                          !
 ! A88   A(47,49,57)           112.3813                                         !
 ! A89   A(53,49,57)           126.4919                                         !
 ! A90   A(47,50,51)           110.2526                                         !
 ! A91   A(47,50,52)           109.4481                                         !
 ! A92   A(47,50,54)           114.2937                                         !
 ! A93   A(51,50,52)           105.4042                                         !
 ! A94   A(51,50,54)           107.9721                                         !
 ! A95   A(52,50,54)           109.0825                                         !
 ! A96   A(50,54,55)           126.2755                                         !
 ! A97   A(50,54,56)           110.9216                                         !
 ! A98   A(55,54,56)           122.7979                                         !
 ! A99   A(54,56,82)           107.5454                                         !
 ! A100  A(49,57,58)           115.7045                                         !
 ! A101  A(49,57,59)           123.113                                          !
 ! A102  A(58,57,59)           101.5478                                         !
 ! A103  A(57,59,60)           108.6042                                         !
 ! A104  A(57,59,61)           104.444                                          !
 ! A105  A(57,59,62)           115.4378                                         !
 ! A106  A(60,59,61)           108.574                                          !
 ! A107  A(60,59,62)           108.5426                                         !
 ! A108  A(61,59,62)           111.0102                                         !
 ! A109  A(59,61,65)           115.3739                                         !
 ! A110  A(59,61,81)           113.8029                                         !
 ! A111  A(65,61,81)           130.8199                                         !
 ! A112  A(59,62,63)           105.359                                          !
 ! A113  A(59,62,64)           109.1815                                         !
 ! A114  A(59,62,66)           114.3814                                         !
 ! A115  A(63,62,64)           105.4338                                         !
 ! A116  A(63,62,66)           111.0052                                         !
 ! A117  A(64,62,66)           110.9662                                         !
 ! A118  A(62,66,67)           109.1999                                         !
 ! A119  A(62,66,68)           110.7411                                         !
 ! A120  A(62,66,69)           114.9377                                         !
 ! A121  A(67,66,68)           105.6018                                         !
 ! A122  A(67,66,69)           110.1607                                         !
 ! A123  A(68,66,69)           105.7631                                         !
 ! A124  A(66,69,70)           110.1181                                         !
 ! A125  A(66,69,71)           111.33                                           !
 ! A126  A(66,69,72)           115.2467                                         !
 ! A127  A(70,69,71)           107.1636                                         !
 ! A128  A(70,69,72)           105.1734                                         !
 ! A129  A(71,69,72)           107.3409                                         !
 ! A130  A(69,72,73)           116.1841                                         !
 ! A131  A(69,72,80)           125.414                                          !
 ! A132  A(73,72,80)           116.0577                                         !
 ! A133  A(75,74,76)           111.0717                                         !
 ! A134  A(75,74,80)           113.6206                                         !
 ! A135  A(76,74,80)           116.0004                                         !
 ! A136  A(78,77,79)           118.6446                                         !
 ! A137  A(78,77,80)           120.4925                                         !
 ! A138  A(79,77,80)           117.171                                          !
 ! A139  A(72,80,74)           120.9627                                         !
 ! A140  A(72,80,77)           120.6084                                         !
 ! A141  A(74,80,77)           118.2197                                         !
 ! D1    D(2,1,5,6)             23.6784                                         !
 ! D2    D(2,1,5,7)            -97.3293                                         !
 ! D3    D(2,1,5,8)            144.9955                                         !
 ! D4    D(3,1,5,6)            141.5215                                         !
 ! D5    D(3,1,5,7)             20.5138                                         !
 ! D6    D(3,1,5,8)            -97.1614                                         !
 ! D7    D(4,1,5,6)            -98.6839                                         !
 ! D8    D(4,1,5,7)            140.3084                                         !
 ! D9    D(4,1,5,8)             22.6332                                         !
 ! D10   D(1,5,7,11)           -20.5081                                         !
 ! D11   D(1,5,7,23)           163.3268                                         !
 ! D12   D(6,5,7,11)          -137.7295                                         !
 ! D13   D(6,5,7,23)            46.1055                                         !
 ! D14   D(8,5,7,11)            96.7715                                         !
 ! D15   D(8,5,7,23)           -79.3936                                         !
 ! D16   D(1,5,8,9)             74.0475                                         !
 ! D17   D(1,5,8,10)          -170.7215                                         !
 ! D18   D(1,5,8,12)           -48.1033                                         !
 ! D19   D(6,5,8,9)           -166.6713                                         !
 ! D20   D(6,5,8,10)           -51.4403                                         !
 ! D21   D(6,5,8,12)            71.1779                                         !
 ! D22   D(7,5,8,9)            -39.912                                          !
 ! D23   D(7,5,8,10)            75.3189                                         !
 ! D24   D(7,5,8,12)          -162.0629                                         !
 ! D25   D(5,7,23,24)            7.4798                                         !
 ! D26   D(5,7,23,25)          156.5715                                         !
 ! D27   D(11,7,23,24)        -168.3649                                         !
 ! D28   D(11,7,23,25)         -19.2733                                         !
 ! D29   D(5,8,12,13)           99.6188                                         !
 ! D30   D(5,8,12,15)          -77.978                                          !
 ! D31   D(9,8,12,13)          -21.536                                          !
 ! D32   D(9,8,12,15)          160.8672                                         !
 ! D33   D(10,8,12,13)        -140.2661                                         !
 ! D34   D(10,8,12,15)          42.1371                                         !
 ! D35   D(8,12,13,14)           5.7026                                         !
 ! D36   D(8,12,13,17)        -177.5866                                         !
 ! D37   D(15,12,13,14)       -176.6457                                         !
 ! D38   D(15,12,13,17)          0.0651                                         !
 ! D39   D(8,12,15,16)          -3.5797                                         !
 ! D40   D(8,12,15,19)         177.8385                                         !
 ! D41   D(13,12,15,16)        178.8138                                         !
 ! D42   D(13,12,15,19)          0.2321                                         !
 ! D43   D(12,13,17,18)       -178.9837                                         !
 ! D44   D(12,13,17,21)         -0.0846                                         !
 ! D45   D(14,13,17,18)         -2.2865                                         !
 ! D46   D(14,13,17,21)        176.6126                                         !
 ! D47   D(12,15,19,20)        179.0092                                         !
 ! D48   D(12,15,19,21)         -0.5108                                         !
 ! D49   D(16,15,19,20)          0.4224                                         !
 ! D50   D(16,15,19,21)       -179.0976                                         !
 ! D51   D(13,17,21,19)         -0.1919                                         !
 ! D52   D(13,17,21,22)       -179.4502                                         !
 ! D53   D(18,17,21,19)        178.7014                                         !
 ! D54   D(18,17,21,22)         -0.5568                                         !
 ! D55   D(15,19,21,17)          0.4896                                         !
 ! D56   D(15,19,21,22)        179.7487                                         !
 ! D57   D(20,19,21,17)       -179.0292                                         !
 ! D58   D(20,19,21,22)          0.2299                                         !
 ! D59   D(7,23,25,26)          42.7022                                         !
 ! D60   D(7,23,25,27)         -76.561                                          !
 ! D61   D(7,23,25,28)         161.6601                                         !
 ! D62   D(24,23,25,26)       -167.3819                                         !
 ! D63   D(24,23,25,27)         73.3548                                         !
 ! D64   D(24,23,25,28)        -48.4241                                         !
 ! D65   D(23,25,27,31)        -70.44                                           !
 ! D66   D(23,25,27,34)        100.7437                                         !
 ! D67   D(26,25,27,31)        174.4023                                         !
 ! D68   D(26,25,27,34)        -14.4139                                         !
 ! D69   D(28,25,27,31)         50.6044                                         !
 ! D70   D(28,25,27,34)       -138.2118                                         !
 ! D71   D(23,25,28,29)        173.2054                                         !
 ! D72   D(23,25,28,30)         57.1082                                         !
 ! D73   D(23,25,28,32)        -69.2996                                         !
 ! D74   D(26,25,28,29)        -69.0698                                         !
 ! D75   D(26,25,28,30)        174.833                                          !
 ! D76   D(26,25,28,32)         48.4251                                         !
 ! D77   D(27,25,28,29)         56.8068                                         !
 ! D78   D(27,25,28,30)        -59.2904                                         !
 ! D79   D(27,25,28,32)        174.3018                                         !
 ! D80   D(25,27,34,35)         22.2152                                         !
 ! D81   D(25,27,34,36)       -166.1443                                         !
 ! D82   D(31,27,34,35)       -166.9139                                         !
 ! D83   D(31,27,34,36)          4.7266                                         !
 ! D84   D(25,28,32,33)         83.0501                                         !
 ! D85   D(29,28,32,33)       -159.6572                                         !
 ! D86   D(30,28,32,33)        -41.6174                                         !
 ! D87   D(27,34,36,37)         21.5809                                         !
 ! D88   D(27,34,36,38)        -95.6334                                         !
 ! D89   D(27,34,36,39)        138.5845                                         !
 ! D90   D(35,34,36,37)       -166.7565                                         !
 ! D91   D(35,34,36,38)         76.0291                                         !
 ! D92   D(35,34,36,39)        -49.753                                          !
 ! D93   D(34,36,38,42)       -109.5791                                         !
 ! D94   D(34,36,38,45)         66.982                                          !
 ! D95   D(37,36,38,42)        135.4348                                         !
 ! D96   D(37,36,38,45)        -48.0041                                         !
 ! D97   D(39,36,38,42)         13.213                                          !
 ! D98   D(39,36,38,45)       -170.2259                                         !
 ! D99   D(34,36,39,40)       -171.9621                                         !
 ! D100  D(34,36,39,41)         69.8259                                         !
 ! D101  D(34,36,39,43)        -54.1772                                         !
 ! D102  D(37,36,39,40)        -57.2679                                         !
 ! D103  D(37,36,39,41)       -175.4799                                         !
 ! D104  D(37,36,39,43)         60.517                                          !
 ! D105  D(38,36,39,40)         64.9106                                         !
 ! D106  D(38,36,39,41)        -53.3013                                         !
 ! D107  D(38,36,39,43)       -177.3044                                         !
 ! D108  D(36,38,45,46)          3.3128                                         !
 ! D109  D(36,38,45,47)       -167.6238                                         !
 ! D110  D(42,38,45,46)        179.6949                                         !
 ! D111  D(42,38,45,47)          8.7584                                         !
 ! D112  D(36,39,43,44)         67.9139                                         !
 ! D113  D(40,39,43,44)       -172.6078                                         !
 ! D114  D(41,39,43,44)        -55.5582                                         !
 ! D115  D(38,45,47,48)         39.2626                                         !
 ! D116  D(38,45,47,49)        -80.2458                                         !
 ! D117  D(38,45,47,50)        158.3852                                         !
 ! D118  D(46,45,47,48)       -131.5976                                         !
 ! D119  D(46,45,47,49)        108.8941                                         !
 ! D120  D(46,45,47,50)        -12.4749                                         !
 ! D121  D(45,47,49,53)        -17.2962                                         !
 ! D122  D(45,47,49,57)        163.3692                                         !
 ! D123  D(48,47,49,53)       -136.1566                                         !
 ! D124  D(48,47,49,57)         44.5088                                         !
 ! D125  D(50,47,49,53)        105.3994                                         !
 ! D126  D(50,47,49,57)        -73.9352                                         !
 ! D127  D(45,47,50,51)         60.7319                                         !
 ! D128  D(45,47,50,52)        176.2342                                         !
 ! D129  D(45,47,50,54)        -61.0972                                         !
 ! D130  D(48,47,50,51)        179.1114                                         !
 ! D131  D(48,47,50,52)        -65.3863                                         !
 ! D132  D(48,47,50,54)         57.2823                                         !
 ! D133  D(49,47,50,51)        -62.5295                                         !
 ! D134  D(49,47,50,52)         52.9728                                         !
 ! D135  D(49,47,50,54)        175.6414                                         !
 ! D136  D(47,49,57,58)         14.2227                                         !
 ! D137  D(47,49,57,59)        139.617                                          !
 ! D138  D(53,49,57,58)       -165.0688                                         !
 ! D139  D(53,49,57,59)        -39.6745                                         !
 ! D140  D(47,50,54,55)         10.2188                                         !
 ! D141  D(47,50,54,56)       -170.5792                                         !
 ! D142  D(51,50,54,55)       -112.8532                                         !
 ! D143  D(51,50,54,56)         66.3487                                         !
 ! D144  D(52,50,54,55)        133.086                                          !
 ! D145  D(52,50,54,56)        -47.712                                          !
 ! D146  D(50,54,56,82)        178.7597                                         !
 ! D147  D(55,54,56,82)         -2.0057                                         !
 ! D148  D(49,57,59,60)         -6.816                                          !
 ! D149  D(49,57,59,61)       -122.5228                                         !
 ! D150  D(49,57,59,62)        115.3028                                         !
 ! D151  D(58,57,59,60)        124.6203                                         !
 ! D152  D(58,57,59,61)          8.9135                                         !
 ! D153  D(58,57,59,62)       -113.2609                                         !
 ! D154  D(57,59,61,65)       -177.6907                                         !
 ! D155  D(57,59,61,81)          1.7252                                         !
 ! D156  D(60,59,61,65)         66.5814                                         !
 ! D157  D(60,59,61,81)       -114.0027                                         !
 ! D158  D(62,59,61,65)        -52.6564                                         !
 ! D159  D(62,59,61,81)        126.7595                                         !
 ! D160  D(57,59,62,63)        172.1669                                         !
 ! D161  D(57,59,62,64)         59.3519                                         !
 ! D162  D(57,59,62,66)        -65.6506                                         !
 ! D163  D(60,59,62,63)        -65.6813                                         !
 ! D164  D(60,59,62,64)       -178.4964                                         !
 ! D165  D(60,59,62,66)         56.5012                                         !
 ! D166  D(61,59,62,63)         53.5753                                         !
 ! D167  D(61,59,62,64)        -59.2397                                         !
 ! D168  D(61,59,62,66)        175.7578                                         !
 ! D169  D(59,62,66,67)        -10.3694                                         !
 ! D170  D(59,62,66,68)       -126.2438                                         !
 ! D171  D(59,62,66,69)        113.9914                                         !
 ! D172  D(63,62,66,67)        108.6775                                         !
 ! D173  D(63,62,66,68)         -7.197                                          !
 ! D174  D(63,62,66,69)       -126.9617                                         !
 ! D175  D(64,62,66,67)       -134.4239                                         !
 ! D176  D(64,62,66,68)        109.7016                                         !
 ! D177  D(64,62,66,69)        -10.0631                                         !
 ! D178  D(62,66,69,70)         69.6206                                         !
 ! D179  D(62,66,69,71)       -171.6662                                         !
 ! D180  D(62,66,69,72)        -49.1251                                         !
 ! D181  D(67,66,69,70)       -166.526                                          !
 ! D182  D(67,66,69,71)        -47.8128                                         !
 ! D183  D(67,66,69,72)         74.7283                                         !
 ! D184  D(68,66,69,70)        -52.8642                                         !
 ! D185  D(68,66,69,71)         65.849                                          !
 ! D186  D(68,66,69,72)       -171.6099                                         !
 ! D187  D(66,69,72,73)         84.1033                                         !
 ! D188  D(66,69,72,80)        -77.7496                                         !
 ! D189  D(70,69,72,73)        -37.3567                                         !
 ! D190  D(70,69,72,80)        160.7904                                         !
 ! D191  D(71,69,72,73)       -151.2478                                         !
 ! D192  D(71,69,72,80)         46.8994                                         !
 ! D193  D(69,72,80,74)         -1.2905                                         !
 ! D194  D(69,72,80,77)       -175.9413                                         !
 ! D195  D(73,72,80,74)       -163.1637                                         !
 ! D196  D(73,72,80,77)         22.1855                                         !
 ! D197  D(75,74,80,72)        176.3184                                         !
 ! D198  D(75,74,80,77)         -8.9061                                         !
 ! D199  D(76,74,80,72)         45.7845                                         !
 ! D200  D(76,74,80,77)       -139.44                                           !
 ! D201  D(78,77,80,72)          0.5185                                         !
 ! D202  D(78,77,80,74)       -174.2762                                         !
 ! D203  D(79,77,80,72)       -157.5425                                         !
 ! D204  D(79,77,80,74)         27.6628                                         !
 --------------------------------------------------------------------------------
 Symmetry turned off by external request.
 Stoichiometry    C25H39N8O10(1+)
 Framework group  C1[X(C25H39N8O10)]
 Deg. of freedom   240
 Full point group                 C1      NOp   1
                          Input orientation:                          
 ---------------------------------------------------------------------
 Center     Atomic      Atomic             Coordinates (Angstroms)
 Number     Number       Type             X           Y           Z
 ---------------------------------------------------------------------
      1          7           0       -5.473996   -3.350940   -2.734564
      2          1           0       -5.852156   -3.973309   -3.454891
      3          1           0       -4.754926   -3.876475   -2.186209
      4          1           0       -6.248621   -3.026090   -2.129250
      5          6           0       -4.724672   -2.167895   -3.302594
      6          1           0       -5.090932   -1.992225   -4.316223
      7          6           0       -3.242895   -2.596411   -3.248351
      8          6           0       -4.954243   -0.922270   -2.393533
      9          1           0       -4.368006   -1.048334   -1.474769
     10          1           0       -4.539826   -0.057163   -2.922575
     11          8           0       -2.937705   -3.508076   -2.467688
     12          6           0       -6.416561   -0.717943   -2.058875
     13          6           0       -6.909352   -1.151072   -0.815328
     14          1           0       -6.218074   -1.543095   -0.070436
     15          6           0       -7.305012   -0.149041   -2.984219
     16          1           0       -6.935971    0.208727   -3.943302
     17          6           0       -8.267538   -1.017303   -0.506613
     18          1           0       -8.633966   -1.340151    0.463280
     19          6           0       -8.656431   -0.011612   -2.671027
     20          1           0       -9.332288    0.444729   -3.388124
     21          6           0       -9.140552   -0.449998   -1.434277
     22          1           0      -10.193097   -0.337296   -1.192867
     23          7           0       -2.373801   -1.895690   -3.995286
     24          1           0       -2.721445   -1.059595   -4.456159
     25          6           0       -0.927961   -1.856360   -3.654980
     26          1           0       -0.639595   -2.873362   -3.384056
     27          6           0       -0.858897   -0.884508   -2.467364
     28          6           0       -0.077409   -1.400113   -4.846176
     29          1           0        0.947288   -1.280218   -4.482502
     30          1           0       -0.417341   -0.413017   -5.191546
     31          8           0       -1.054629    0.318383   -2.634213
     32          8           0       -0.050637   -2.366572   -5.875952
     33          1           0       -0.842193   -2.269886   -6.425562
     34          7           0       -0.760670   -1.466976   -1.246173
     35          1           0       -0.403497   -2.412796   -1.182631
     36          6           0       -0.982355   -0.716708   -0.008249
     37          1           0       -1.579904    0.152753   -0.297374
     38          6           0        0.367283   -0.232358    0.553910
     39          6           0       -1.794597   -1.581817    0.963667
     40          1           0       -2.087397   -0.984517    1.829510
     41          1           0       -1.186736   -2.418782    1.331232
     42          8           0        0.844951   -0.724823    1.591640
     43          8           0       -3.000656   -2.043671    0.353081
     44          1           0       -2.747274   -2.670697   -0.345144
     45          7           0        0.963560    0.681898   -0.217288
     46          1           0        0.457965    0.993111   -1.040708
     47          6           0        2.345613    1.111426   -0.060565
     48          1           0        2.943755    0.226872    0.185038
     49          6           0        2.500798    2.153112    1.080206
     50          6           0        2.879681    1.729151   -1.364786
     51          1           0        2.283631    2.610975   -1.640223
     52          1           0        3.901665    2.106420   -1.200396
     53          8           0        1.522902    2.764961    1.523989
     54          6           0        2.885741    0.782148   -2.545554
     55          8           0        2.360195   -0.318230   -2.591267
     56          8           0        3.546501    1.316277   -3.585137
     57          7           0        3.780920    2.292029    1.477551
     58          1           0        4.502119    1.881516    0.838369
     59          6           0        4.386615    3.598749    1.806379
     60          1           0        3.670972    4.389469    1.553381
     61          6           0        5.639931    3.714642    0.825489
     62          6           0        4.813457    3.777126    3.265866
     63          1           0        5.359744    4.723390    3.294140
     64          1           0        5.552887    3.004419    3.523200
     65          8           0        6.326867    4.729001    0.963606
     66          6           0        3.642278    3.782064    4.278165
     67          1           0        2.693189    3.839297    3.731430
     68          1           0        3.675553    4.681045    4.906569
     69          6           0        3.621995    2.591787    5.252313
     70          1           0        4.452620    2.670279    5.959558
     71          1           0        2.698162    2.573553    5.839657
     72          7           0        3.771589    1.264432    4.626918
     73          1           0        4.718831    0.961599    4.443978
     74          7           0        1.564980    1.109129    3.880251
     75          1           0        0.937010    0.538609    3.319297
     76          1           0        1.505373    2.090209    3.613154
     77          7           0        3.029251   -0.643160    3.520607
     78          1           0        3.923420   -1.091123    3.658558
     79          1           0        2.431835   -0.968515    2.762175
     80          6           0        2.809631    0.599398    3.985440
     81          8           0        5.766052    2.723970    0.032194
     82          1           0        3.537387    0.660590   -4.307723
 ---------------------------------------------------------------------
 Rotational constants (GHZ):           0.1217212           0.0342476           0.0299634
 Standard basis: 6-31G(d) (6D, 7F)
   723 basis functions,  1360 primitive gaussians,   723 cartesian basis functions
   162 alpha electrons      162 beta electrons
       nuclear repulsion energy      5496.7601909102 Hartrees.
 NAtoms=   82 NActive=   82 NUniq=   82 SFac= 1.00D+00 NAtFMM=   60 NAOKFM=T Big=T
 Integral buffers will be    131072 words long.
 Raffenetti 2 integral format.
 Two-electron integral symmetry is turned off.
 One-electron integrals computed using PRISM.
 NBasis=   723 RedAO= T EigKep=  4.77D-04  NBF=   723
 NBsUse=   723 1.00D-06 EigRej= -1.00D+00 NBFU=   723
 Initial guess from the checkpoint file:  "conf-304.chk"
 B after Tr=     0.000000    0.000000    0.000000
         Rot=    1.000000    0.000000    0.000000    0.000000 Ang=   0.00 deg.
 Requested convergence on RMS density matrix=1.00D-08 within 128 cycles.
 Requested convergence on MAX density matrix=1.00D-06.
 Requested convergence on             energy=1.00D-06.
 No special actions if energy rises.
 SCF Done:  E(RB3LYP) =  -2166.22264519     A.U. after    3 cycles
            NFock=  3  Conv=0.86D-09     -V/T= 2.0092

 **********************************************************************

            Population analysis using the SCF Density.

 **********************************************************************

 Alpha  occ. eigenvalues --  -19.29880 -19.27099 -19.26396 -19.25345 -19.24390
 Alpha  occ. eigenvalues --  -19.22969 -19.22165 -19.17846 -19.09361 -19.07923
 Alpha  occ. eigenvalues --  -14.61848 -14.53119 -14.49073 -14.47217 -14.46606
 Alpha  occ. eigenvalues --  -14.45895 -14.45206 -14.38814 -10.46689 -10.43055
 Alpha  occ. eigenvalues --  -10.42802 -10.41612 -10.40266 -10.39629 -10.36501
 Alpha  occ. eigenvalues --  -10.35376 -10.34657 -10.34564 -10.34518 -10.34419
 Alpha  occ. eigenvalues --  -10.33552 -10.32091 -10.31945 -10.31702 -10.31457
 Alpha  occ. eigenvalues --  -10.31402 -10.31134 -10.30850 -10.27597 -10.26876
 Alpha  occ. eigenvalues --  -10.24706 -10.24233 -10.22446  -1.22000  -1.18316
 Alpha  occ. eigenvalues --   -1.16628  -1.16053  -1.14111  -1.13302  -1.12921
 Alpha  occ. eigenvalues --   -1.11506  -1.09261  -1.08976  -1.08958  -1.05089
 Alpha  occ. eigenvalues --   -1.02377  -1.02140  -1.01110  -0.99150  -0.98960
 Alpha  occ. eigenvalues --   -0.96387  -0.95017  -0.93181  -0.90656  -0.88425
 Alpha  occ. eigenvalues --   -0.87238  -0.87021  -0.85817  -0.85187  -0.81099
 Alpha  occ. eigenvalues --   -0.79621  -0.78105  -0.77216  -0.76184  -0.75810
 Alpha  occ. eigenvalues --   -0.75119  -0.74646  -0.73632  -0.73006  -0.71867
 Alpha  occ. eigenvalues --   -0.71438  -0.71040  -0.69090  -0.68781  -0.68156
 Alpha  occ. eigenvalues --   -0.67468  -0.66031  -0.65523  -0.64822  -0.63921
 Alpha  occ. eigenvalues --   -0.63781  -0.62841  -0.61994  -0.61526  -0.61152
 Alpha  occ. eigenvalues --   -0.60705  -0.59959  -0.59738  -0.59545  -0.59371
 Alpha  occ. eigenvalues --   -0.58758  -0.58375  -0.57963  -0.57163  -0.56751
 Alpha  occ. eigenvalues --   -0.56324  -0.55653  -0.55353  -0.54516  -0.54421
 Alpha  occ. eigenvalues --   -0.54294  -0.54047  -0.53560  -0.53450  -0.52856
 Alpha  occ. eigenvalues --   -0.52634  -0.52159  -0.51777  -0.51553  -0.51230
 Alpha  occ. eigenvalues --   -0.50926  -0.50388  -0.50080  -0.49757  -0.48757
 Alpha  occ. eigenvalues --   -0.48632  -0.48517  -0.47590  -0.47053  -0.46869
 Alpha  occ. eigenvalues --   -0.46623  -0.46260  -0.44972  -0.44785  -0.44488
 Alpha  occ. eigenvalues --   -0.44458  -0.43898  -0.43571  -0.43190  -0.42097
 Alpha  occ. eigenvalues --   -0.40907  -0.39805  -0.39593  -0.39427  -0.39369
 Alpha  occ. eigenvalues --   -0.38927  -0.38609  -0.38040  -0.37917  -0.37831
 Alpha  occ. eigenvalues --   -0.37548  -0.37152  -0.36748  -0.36268  -0.35823
 Alpha  occ. eigenvalues --   -0.35319  -0.34970  -0.31860  -0.30734  -0.24315
 Alpha  occ. eigenvalues --   -0.24189  -0.21857
 Alpha virt. eigenvalues --   -0.16318  -0.13690  -0.13035  -0.11795  -0.11087
 Alpha virt. eigenvalues --   -0.09024  -0.08162  -0.07908  -0.06746  -0.06018
 Alpha virt. eigenvalues --   -0.04769  -0.04503  -0.03499  -0.03071  -0.02884
 Alpha virt. eigenvalues --   -0.02751  -0.01939  -0.00714  -0.00339  -0.00023
 Alpha virt. eigenvalues --    0.00547   0.01107   0.01372   0.01909   0.02179
 Alpha virt. eigenvalues --    0.02513   0.03298   0.03694   0.03845   0.04025
 Alpha virt. eigenvalues --    0.04771   0.05107   0.05173   0.05478   0.05915
 Alpha virt. eigenvalues --    0.06207   0.06374   0.06877   0.07086   0.07606
 Alpha virt. eigenvalues --    0.07786   0.07978   0.08454   0.08549   0.08943
 Alpha virt. eigenvalues --    0.09077   0.09361   0.09838   0.10519   0.11020
 Alpha virt. eigenvalues --    0.11261   0.11708   0.11888   0.12612   0.12826
 Alpha virt. eigenvalues --    0.13137   0.13582   0.14442   0.14766   0.15114
 Alpha virt. eigenvalues --    0.15500   0.16143   0.16954   0.17244   0.18237
 Alpha virt. eigenvalues --    0.18495   0.19267   0.19439   0.19707   0.20076
 Alpha virt. eigenvalues --    0.20223   0.20566   0.21489   0.22019   0.22915
 Alpha virt. eigenvalues --    0.23076   0.23893   0.24622   0.25392   0.26428
 Alpha virt. eigenvalues --    0.26943   0.28539   0.29213   0.30416   0.30771
 Alpha virt. eigenvalues --    0.32041   0.32638   0.33303   0.34055   0.34894
 Alpha virt. eigenvalues --    0.35217   0.36472   0.36764   0.39070   0.39771
 Alpha virt. eigenvalues --    0.40216   0.40304   0.41336   0.42079   0.42268
 Alpha virt. eigenvalues --    0.42375   0.42904   0.43212   0.43696   0.44037
 Alpha virt. eigenvalues --    0.44873   0.45056   0.45188   0.45727   0.45828
 Alpha virt. eigenvalues --    0.46284   0.46868   0.47035   0.47139   0.47604
 Alpha virt. eigenvalues --    0.47913   0.48316   0.48442   0.48815   0.49362
 Alpha virt. eigenvalues --    0.49690   0.49801   0.49946   0.50535   0.50985
 Alpha virt. eigenvalues --    0.51323   0.51572   0.52238   0.52602   0.52937
 Alpha virt. eigenvalues --    0.53371   0.53940   0.54360   0.54734   0.55251
 Alpha virt. eigenvalues --    0.55484   0.55662   0.56415   0.56920   0.57454
 Alpha virt. eigenvalues --    0.57822   0.58072   0.59148   0.59289   0.59712
 Alpha virt. eigenvalues --    0.60194   0.60397   0.61041   0.61246   0.61565
 Alpha virt. eigenvalues --    0.62101   0.62187   0.63258   0.63801   0.64917
 Alpha virt. eigenvalues --    0.65106   0.65584   0.66111   0.66403   0.66713
 Alpha virt. eigenvalues --    0.67631   0.68107   0.68335   0.68540   0.68844
 Alpha virt. eigenvalues --    0.69457   0.69602   0.70232   0.70697   0.71139
 Alpha virt. eigenvalues --    0.71641   0.71851   0.72186   0.72347   0.72934
 Alpha virt. eigenvalues --    0.73519   0.73748   0.74083   0.74346   0.74637
 Alpha virt. eigenvalues --    0.75107   0.75551   0.75856   0.76093   0.76841
 Alpha virt. eigenvalues --    0.77418   0.77495   0.78050   0.78214   0.78447
 Alpha virt. eigenvalues --    0.78821   0.79101   0.79136   0.79797   0.80240
 Alpha virt. eigenvalues --    0.80578   0.80872   0.81067   0.81558   0.81899
 Alpha virt. eigenvalues --    0.82116   0.82399   0.82694   0.83044   0.83808
 Alpha virt. eigenvalues --    0.84067   0.84198   0.84382   0.85016   0.85169
 Alpha virt. eigenvalues --    0.85518   0.86342   0.86495   0.86957   0.87341
 Alpha virt. eigenvalues --    0.87553   0.87835   0.88486   0.89506   0.89652
 Alpha virt. eigenvalues --    0.90109   0.91007   0.91599   0.91699   0.93011
 Alpha virt. eigenvalues --    0.93156   0.93824   0.94227   0.94748   0.95329
 Alpha virt. eigenvalues --    0.95764   0.96088   0.97496   0.98032   0.98579
 Alpha virt. eigenvalues --    0.98772   0.99025   0.99302   1.00301   1.01143
 Alpha virt. eigenvalues --    1.01569   1.02544   1.03211   1.03849   1.04462
 Alpha virt. eigenvalues --    1.04677   1.05412   1.05764   1.06567   1.06726
 Alpha virt. eigenvalues --    1.07510   1.08331   1.09051   1.10113   1.11744
 Alpha virt. eigenvalues --    1.11829   1.12729   1.13440   1.14057   1.14493
 Alpha virt. eigenvalues --    1.14988   1.15949   1.16701   1.16855   1.17605
 Alpha virt. eigenvalues --    1.17999   1.18439   1.19190   1.19523   1.20424
 Alpha virt. eigenvalues --    1.20884   1.22058   1.22870   1.23745   1.24256
 Alpha virt. eigenvalues --    1.24843   1.26252   1.26943   1.27362   1.27832
 Alpha virt. eigenvalues --    1.29849   1.29957   1.31498   1.31820   1.32297
 Alpha virt. eigenvalues --    1.33035   1.34512   1.34978   1.35422   1.35491
 Alpha virt. eigenvalues --    1.35651   1.36130   1.37018   1.37308   1.37844
 Alpha virt. eigenvalues --    1.38443   1.39332   1.39566   1.41753   1.42209
 Alpha virt. eigenvalues --    1.43448   1.43796   1.44212   1.44842   1.45545
 Alpha virt. eigenvalues --    1.47150   1.47916   1.48594   1.49109   1.49976
 Alpha virt. eigenvalues --    1.50616   1.51026   1.52224   1.52571   1.52909
 Alpha virt. eigenvalues --    1.53417   1.54324   1.56322   1.56739   1.57147
 Alpha virt. eigenvalues --    1.57311   1.58532   1.59216   1.59922   1.61308
 Alpha virt. eigenvalues --    1.61684   1.62273   1.62881   1.63676   1.64249
 Alpha virt. eigenvalues --    1.65185   1.65483   1.66103   1.66325   1.67108
 Alpha virt. eigenvalues --    1.67577   1.67871   1.68499   1.69145   1.69559
 Alpha virt. eigenvalues --    1.70168   1.70255   1.71219   1.72041   1.72090
 Alpha virt. eigenvalues --    1.72966   1.73293   1.73808   1.74040   1.74921
 Alpha virt. eigenvalues --    1.75448   1.75457   1.76089   1.76682   1.77130
 Alpha virt. eigenvalues --    1.77741   1.78251   1.79083   1.79300   1.79669
 Alpha virt. eigenvalues --    1.80184   1.80974   1.81229   1.82082   1.82158
 Alpha virt. eigenvalues --    1.82772   1.83635   1.83972   1.84402   1.84548
 Alpha virt. eigenvalues --    1.85026   1.85915   1.86425   1.86836   1.87435
 Alpha virt. eigenvalues --    1.87460   1.88110   1.88754   1.89634   1.89996
 Alpha virt. eigenvalues --    1.90796   1.91814   1.92192   1.92850   1.93079
 Alpha virt. eigenvalues --    1.93522   1.93769   1.94518   1.95702   1.95936
 Alpha virt. eigenvalues --    1.96880   1.97159   1.97547   1.98292   1.98692
 Alpha virt. eigenvalues --    1.99317   1.99971   2.00204   2.00707   2.01060
 Alpha virt. eigenvalues --    2.01603   2.01709   2.02358   2.02892   2.02975
 Alpha virt. eigenvalues --    2.03762   2.04242   2.05521   2.06804   2.07670
 Alpha virt. eigenvalues --    2.08345   2.09353   2.10590   2.10725   2.11511
 Alpha virt. eigenvalues --    2.12438   2.12741   2.13109   2.13567   2.14864
 Alpha virt. eigenvalues --    2.15130   2.15381   2.17833   2.18186   2.18420
 Alpha virt. eigenvalues --    2.19783   2.20138   2.20815   2.21148   2.22715
 Alpha virt. eigenvalues --    2.23481   2.23953   2.24484   2.25719   2.25953
 Alpha virt. eigenvalues --    2.26301   2.27370   2.28520   2.28908   2.29859
 Alpha virt. eigenvalues --    2.30150   2.30666   2.33076   2.34330   2.35198
 Alpha virt. eigenvalues --    2.35555   2.36206   2.37028   2.37124   2.38194
 Alpha virt. eigenvalues --    2.38795   2.39547   2.40661   2.41478   2.41897
 Alpha virt. eigenvalues --    2.42671   2.43985   2.44638   2.44856   2.45852
 Alpha virt. eigenvalues --    2.46703   2.46957   2.47501   2.49328   2.49732
 Alpha virt. eigenvalues --    2.50750   2.51315   2.52831   2.53163   2.54173
 Alpha virt. eigenvalues --    2.55218   2.55750   2.56449   2.57355   2.58126
 Alpha virt. eigenvalues --    2.58947   2.59404   2.60430   2.61257   2.61860
 Alpha virt. eigenvalues --    2.63379   2.63994   2.64200   2.65220   2.65573
 Alpha virt. eigenvalues --    2.67718   2.67806   2.69421   2.70109   2.72117
 Alpha virt. eigenvalues --    2.72960   2.75463   2.76861   2.77610   2.78028
 Alpha virt. eigenvalues --    2.79512   2.81724   2.83949   2.84076   2.85022
 Alpha virt. eigenvalues --    2.87764   2.89804   2.90058   2.90345   2.91899
 Alpha virt. eigenvalues --    2.93661   2.94626   2.94666   2.95429   2.97998
 Alpha virt. eigenvalues --    2.99452   3.01069   3.03186   3.03850   3.06746
 Alpha virt. eigenvalues --    3.10330   3.18065   3.27699   3.64760   3.67947
 Alpha virt. eigenvalues --    3.74193   3.74283   3.76537   3.84821   3.89241
 Alpha virt. eigenvalues --    3.91223   3.93042   3.94182   3.95639   3.97053
 Alpha virt. eigenvalues --    3.99350   4.00578   4.03111   4.04140   4.05886
 Alpha virt. eigenvalues --    4.09669   4.11166   4.12195   4.14284   4.18278
 Alpha virt. eigenvalues --    4.19824   4.21500   4.21854   4.24295   4.24740
 Alpha virt. eigenvalues --    4.26306   4.28156   4.29887   4.32998   4.34491
 Alpha virt. eigenvalues --    4.37101   4.38729   4.42048   4.45984   4.47502
 Alpha virt. eigenvalues --    4.49726   4.52314   4.56057   4.57806   4.60442
 Alpha virt. eigenvalues --    4.63233
          Condensed to atoms (all electrons):
 Mulliken charges:
               1
     1  N   -0.745334
     2  H    0.419974
     3  H    0.426626
     4  H    0.410081
     5  C   -0.115674
     6  H    0.213426
     7  C    0.655508
     8  C   -0.409372
     9  H    0.226395
    10  H    0.204212
    11  O   -0.538701
    12  C    0.123841
    13  C   -0.237121
    14  H    0.173303
    15  C   -0.179051
    16  H    0.144778
    17  C   -0.119134
    18  H    0.171596
    19  C   -0.122371
    20  H    0.171597
    21  C   -0.122314
    22  H    0.173661
    23  N   -0.588578
    24  H    0.357081
    25  C   -0.089103
    26  H    0.201119
    27  C    0.650263
    28  C   -0.074302
    29  H    0.209584
    30  H    0.154351
    31  O   -0.541906
    32  O   -0.592326
    33  H    0.398528
    34  N   -0.603137
    35  H    0.351658
    36  C   -0.106521
    37  H    0.204288
    38  C    0.651139
    39  C   -0.060321
    40  H    0.184142
    41  H    0.161358
    42  O   -0.585617
    43  O   -0.636986
    44  H    0.407836
    45  N   -0.559815
    46  H    0.369240
    47  C   -0.046496
    48  H    0.173661
    49  C    0.582802
    50  C   -0.435075
    51  H    0.202454
    52  H    0.272987
    53  O   -0.564459
    54  C    0.589253
    55  O   -0.497392
    56  O   -0.534434
    57  N   -0.609302
    58  H    0.350513
    59  C   -0.098109
    60  H    0.158711
    61  C    0.591690
    62  C   -0.262940
    63  H    0.194823
    64  H    0.110910
    65  O   -0.549832
    66  C   -0.288533
    67  H    0.163763
    68  H    0.162785
    69  C   -0.176331
    70  H    0.181141
    71  H    0.182957
    72  N   -0.573068
    73  H    0.357412
    74  N   -0.750506
    75  H    0.374593
    76  H    0.396953
    77  N   -0.774709
    78  H    0.359369
    79  H    0.404609
    80  C    0.764214
    81  O   -0.618202
    82  H    0.415889
 Sum of Mulliken charges =   1.00000
 Mulliken charges with hydrogens summed into heavy atoms:
               1
     1  N    0.511347
     5  C    0.097751
     7  C    0.655508
     8  C    0.021235
    11  O   -0.538701
    12  C    0.123841
    13  C   -0.063818
    15  C   -0.034273
    17  C    0.052463
    19  C    0.049226
    21  C    0.051347
    23  N   -0.231497
    25  C    0.112017
    27  C    0.650263
    28  C    0.289633
    31  O   -0.541906
    32  O   -0.193798
    34  N   -0.251479
    36  C    0.097767
    38  C    0.651139
    39  C    0.285179
    42  O   -0.585617
    43  O   -0.229151
    45  N   -0.190574
    47  C    0.127165
    49  C    0.582802
    50  C    0.040366
    53  O   -0.564459
    54  C    0.589253
    55  O   -0.497392
    56  O   -0.118545
    57  N   -0.258790
    59  C    0.060602
    61  C    0.591690
    62  C    0.042793
    65  O   -0.549832
    66  C    0.038014
    69  C    0.187767
    72  N   -0.215656
    74  N    0.021040
    77  N   -0.010731
    80  C    0.764214
    81  O   -0.618202
 Electronic spatial extent (au):  <R**2>=          35133.1463
 Charge=              1.0000 electrons
 Dipole moment (field-independent basis, Debye):
    X=            -29.2698    Y=            -17.9296    Z=             -7.6367  Tot=             35.1640
 Quadrupole moment (field-independent basis, Debye-Ang):
   XX=           -143.6310   YY=           -251.9598   ZZ=           -140.7071
   XY=              3.3091   XZ=            104.3246   YZ=             34.4227
 Traceless Quadrupole moment (field-independent basis, Debye-Ang):
   XX=             35.1350   YY=            -73.1939   ZZ=             38.0588
   XY=              3.3091   XZ=            104.3246   YZ=             34.4227
 Octapole moment (field-independent basis, Debye-Ang**2):
  XXX=          -1449.7456  YYY=           -437.5819  ZZZ=            186.6967  XYY=           -359.0365
  XXY=           -751.9044  XXZ=           -177.9624  XZZ=            -22.9595  YZZ=            -63.5514
  YYZ=             49.8247  XYZ=           -149.2310
 Hexadecapole moment (field-independent basis, Debye-Ang**3):
 XXXX=         -20910.3277 YYYY=          -7192.9829 ZZZZ=          -9673.8682 XXXY=          -5348.1555
 XXXZ=          -1377.5000 YYYX=          -4940.6038 YYYZ=          -2233.4395 ZZZX=          -2601.4378
 ZZZY=          -1792.0561 XXYY=          -6222.3257 XXZZ=          -4018.7496 YYZZ=          -2699.4834
 XXYZ=            -31.2833 YYXZ=           -864.1267 ZZXY=           -618.1505
 N-N= 5.496760190910D+03 E-N=-1.601826278424D+04  KE= 2.146436826633D+03
 Unable to Open any file for archive entry.
 1\1\GINC-VIM-000\SP\RB3LYP\6-31G(d)\C25H39N8O10(1+)\KENGMITH\26-May-20
 22\0\\# B3LYP/6-31G* guess=read geom=check nosymm integral(ultrafinegr
 id)\\Candidate Structure: Conf:304 Charge calc in gas phase\\1,1\N,0,-
 5.4739958868,-3.3509401771,-2.7345643242\H,0,-5.852156442,-3.973309404
 7,-3.4548914507\H,0,-4.7549264862,-3.8764754376,-2.1862091373\H,0,-6.2
 486212653,-3.0260904843,-2.1292499397\C,0,-4.7246721455,-2.167895479,-
 3.3025943413\H,0,-5.0909324679,-1.9922245915,-4.3162228719\C,0,-3.2428
 950559,-2.5964111035,-3.2483511558\C,0,-4.9542431357,-0.9222698797,-2.
 3935333168\H,0,-4.3680064922,-1.0483344182,-1.4747694317\H,0,-4.539825
 6888,-0.057162562,-2.9225751733\O,0,-2.9377052967,-3.5080763627,-2.467
 6883195\C,0,-6.4165609664,-0.7179427514,-2.0588747988\C,0,-6.909352239
 7,-1.1510723069,-0.8153279598\H,0,-6.2180736007,-1.5430949866,-0.07043
 56737\C,0,-7.3050115357,-0.1490408433,-2.9842194746\H,0,-6.9359707503,
 0.2087272541,-3.9433018489\C,0,-8.2675378119,-1.0173027002,-0.50661337
 31\H,0,-8.633966181,-1.3401509945,0.4632800844\C,0,-8.6564310785,-0.01
 16115982,-2.6710272707\H,0,-9.3322878766,0.4447292893,-3.3881239352\C,
 0,-9.14055179,-0.4499980719,-1.4342766416\H,0,-10.1930969229,-0.337296
 4473,-1.1928673017\N,0,-2.3738014249,-1.8956898596,-3.9952859159\H,0,-
 2.721445422,-1.0595945966,-4.4561594089\C,0,-0.9279614827,-1.856360141
 6,-3.6549800464\H,0,-0.6395947657,-2.8733617251,-3.3840558126\C,0,-0.8
 58897128,-0.8845076932,-2.4673635552\C,0,-0.0774089413,-1.4001129056,-
 4.8461757443\H,0,0.9472884659,-1.2802179544,-4.4825016735\H,0,-0.41734
 06131,-0.4130173116,-5.1915463859\O,0,-1.0546287483,0.3183834276,-2.63
 42131736\O,0,-0.0506374647,-2.3665718368,-5.8759522059\H,0,-0.84219256
 23,-2.2698856857,-6.4255623379\N,0,-0.7606695965,-1.4669755618,-1.2461
 731078\H,0,-0.4034972064,-2.4127962644,-1.1826305127\C,0,-0.9823551142
 ,-0.7167082121,-0.0082491123\H,0,-1.5799037851,0.152753356,-0.29737392
 41\C,0,0.3672831213,-0.2323582614,0.5539099304\C,0,-1.7945974537,-1.58
 18167516,0.9636672978\H,0,-2.087396822,-0.9845166717,1.8295100781\H,0,
 -1.1867362147,-2.4187824425,1.331232014\O,0,0.8449513017,-0.724823445,
 1.5916398145\O,0,-3.0006555645,-2.0436706304,0.3530807936\H,0,-2.74727
 43619,-2.6706972425,-0.3451438076\N,0,0.9635595851,0.681898086,-0.2172
 875898\H,0,0.4579646405,0.9931109713,-1.0407077871\C,0,2.3456127437,1.
 1114261456,-0.0605645074\H,0,2.9437551256,0.2268715526,0.1850384136\C,
 0,2.5007980086,2.153112044,1.0802060724\C,0,2.8796813858,1.7291509714,
 -1.3647859398\H,0,2.2836312247,2.6109753812,-1.6402229624\H,0,3.901665
 255,2.106420073,-1.2003961686\O,0,1.5229017812,2.7649611626,1.52398934
 96\C,0,2.885740749,0.7821480703,-2.5455540632\O,0,2.3601951568,-0.3182
 296638,-2.591267204\O,0,3.5465009589,1.3162773358,-3.5851371092\N,0,3.
 780919737,2.2920289424,1.4775511167\H,0,4.5021194682,1.8815157365,0.83
 83691619\C,0,4.3866147955,3.5987493893,1.8063786962\H,0,3.6709724639,4
 .3894685722,1.5533806957\C,0,5.6399307455,3.7146419261,0.8254894593\C,
 0,4.8134574796,3.7771264007,3.2658659475\H,0,5.3597435125,4.7233901635
 ,3.2941403198\H,0,5.5528869203,3.0044190322,3.5232000144\O,0,6.3268667
 378,4.7290012482,0.9636064119\C,0,3.64227837,3.782063976,4.2781649636\
 H,0,2.6931890844,3.839297364,3.7314301374\H,0,3.6755528483,4.681045012
 4,4.9065685668\C,0,3.6219947373,2.5917869473,5.252312653\H,0,4.4526196
 383,2.6702788943,5.9595579641\H,0,2.6981622613,2.5735529804,5.83965726
 17\N,0,3.7715892243,1.264431871,4.6269177168\H,0,4.7188311988,0.961598
 8412,4.4439778138\N,0,1.5649798482,1.1091287116,3.8802512878\H,0,0.937
 0097168,0.5386087273,3.3192973476\H,0,1.5053728064,2.0902087585,3.6131
 537303\N,0,3.0292512851,-0.6431597256,3.5206066548\H,0,3.9234197229,-1
 .0911234914,3.6585582046\H,0,2.4318352049,-0.9685151943,2.7621751073\C
 ,0,2.8096313459,0.5993982623,3.985440299\O,0,5.7660523308,2.7239698229
 ,0.0321941154\H,0,3.537387321,0.6605899784,-4.3077234892\\Version=ES64
 L-G16RevC.01\HF=-2166.2226452\RMSD=8.585e-10\Dipole=-11.1860037,-7.403
 4399,-2.154307\Quadrupole=26.1220186,-54.4178364,28.2958178,2.4602459,
 77.5627485,25.592455\PG=C01 [X(C25H39N8O10)]\\@
 The archive entry for this job was punched.


 A CHEMICAL PHYSICIST MAKES PRECISE MEASUREMENTS ON IMPURE COMPOUNDS.
 A THEORETICAL PHYSICAL CHEMIST MAKES IMPRECISE
     MEASUREMENTS ON PURE COMPOUNDS.
 AN EXPERIMENTAL PHYSICAL CHEMIST MAKES IMPRECISE
     MEASUREMENTS ON IMPURE COMPOUNDS.
 Job cpu time:       0 days  0 hours  5 minutes 16.3 seconds.
 Elapsed time:       0 days  0 hours  1 minutes 19.8 seconds.
 File lengths (MBytes):  RWF=    384 Int=      0 D2E=      0 Chk=     56 Scr=     16
 Normal termination of Gaussian 16 at Thu May 26 21:36:06 2022.
