 Entering Gaussian System, Link 0=/opt/software/Gaussian/g16-AVX2-C.01/g16/g16
 Input=charge-conf-896.com
 Output=charge-conf-896.log
 Initial command:
 /opt/software/Gaussian/g16-AVX2-C.01/g16/l1.exe "/mnt/gs18/scratch/users/kengmith/Gau-58260.inp" -scrdir="/mnt/gs18/scratch/users/kengmith/"
 Entering Link 1 = /opt/software/Gaussian/g16-AVX2-C.01/g16/l1.exe PID=     58270.
  
 Copyright (c) 1988-2019, Gaussian, Inc.  All Rights Reserved.
  
 This is part of the Gaussian(R) 16 program.  It is based on
 the Gaussian(R) 09 system (copyright 2009, Gaussian, Inc.),
 the Gaussian(R) 03 system (copyright 2003, Gaussian, Inc.),
 the Gaussian(R) 98 system (copyright 1998, Gaussian, Inc.),
 the Gaussian(R) 94 system (copyright 1995, Gaussian, Inc.),
 the Gaussian 92(TM) system (copyright 1992, Gaussian, Inc.),
 the Gaussian 90(TM) system (copyright 1990, Gaussian, Inc.),
 the Gaussian 88(TM) system (copyright 1988, Gaussian, Inc.),
 the Gaussian 86(TM) system (copyright 1986, Carnegie Mellon
 University), and the Gaussian 82(TM) system (copyright 1983,
 Carnegie Mellon University). Gaussian is a federally registered
 trademark of Gaussian, Inc.
  
 This software contains proprietary and confidential information,
 including trade secrets, belonging to Gaussian, Inc.
  
 This software is provided under written license and may be
 used, copied, transmitted, or stored only in accord with that
 written license.
  
 The following legend is applicable only to US Government
 contracts under FAR:
  
                    RESTRICTED RIGHTS LEGEND
  
 Use, reproduction and disclosure by the US Government is
 subject to restrictions as set forth in subparagraphs (a)
 and (c) of the Commercial Computer Software - Restricted
 Rights clause in FAR 52.227-19.
  
 Gaussian, Inc.
 340 Quinnipiac St., Bldg. 40, Wallingford CT 06492
  
  
 ---------------------------------------------------------------
 Warning -- This program may not be used in any manner that
 competes with the business of Gaussian, Inc. or will provide
 assistance to any competitor of Gaussian, Inc.  The licensee
 of this program is prohibited from giving any competitor of
 Gaussian, Inc. access to this program.  By using this program,
 the user acknowledges that Gaussian, Inc. is engaged in the
 business of creating and licensing software in the field of
 computational chemistry and represents and warrants to the
 licensee that it is not a competitor of Gaussian, Inc. and that
 it will not use this program in any manner prohibited above.
 ---------------------------------------------------------------
  

 Cite this work as:
 Gaussian 16, Revision C.01,
 M. J. Frisch, G. W. Trucks, H. B. Schlegel, G. E. Scuseria, 
 M. A. Robb, J. R. Cheeseman, G. Scalmani, V. Barone, 
 G. A. Petersson, H. Nakatsuji, X. Li, M. Caricato, A. V. Marenich, 
 J. Bloino, B. G. Janesko, R. Gomperts, B. Mennucci, H. P. Hratchian, 
 J. V. Ortiz, A. F. Izmaylov, J. L. Sonnenberg, D. Williams-Young, 
 F. Ding, F. Lipparini, F. Egidi, J. Goings, B. Peng, A. Petrone, 
 T. Henderson, D. Ranasinghe, V. G. Zakrzewski, J. Gao, N. Rega, 
 G. Zheng, W. Liang, M. Hada, M. Ehara, K. Toyota, R. Fukuda, 
 J. Hasegawa, M. Ishida, T. Nakajima, Y. Honda, O. Kitao, H. Nakai, 
 T. Vreven, K. Throssell, J. A. Montgomery, Jr., J. E. Peralta, 
 F. Ogliaro, M. J. Bearpark, J. J. Heyd, E. N. Brothers, K. N. Kudin, 
 V. N. Staroverov, T. A. Keith, R. Kobayashi, J. Normand, 
 K. Raghavachari, A. P. Rendell, J. C. Burant, S. S. Iyengar, 
 J. Tomasi, M. Cossi, J. M. Millam, M. Klene, C. Adamo, R. Cammi, 
 J. W. Ochterski, R. L. Martin, K. Morokuma, O. Farkas, 
 J. B. Foresman, and D. J. Fox, Gaussian, Inc., Wallingford CT, 2019.
 
 ******************************************
 Gaussian 16:  ES64L-G16RevC.01  3-Jul-2019
                26-May-2022 
 ******************************************
 %mem=8gb
 %nproc=4
 Will use up to    4 processors via shared memory.
 %chk=conf-896.chk
 -------------------------------------------------------------------
 # B3LYP/6-31G* guess=read geom=check nosymm integral(ultrafinegrid)
 -------------------------------------------------------------------
 1/29=2,38=1,172=1/1;
 2/12=2,15=1,40=1/2;
 3/5=1,6=6,7=1,11=2,14=-4,25=1,30=1,74=-5,75=-5,116=-2/1,2,3;
 4/5=1/1;
 5/5=2,38=6/2;
 6/7=2,8=2,9=2,10=2,28=1/1;
 99/5=1,9=1/99;
 ------------------------------------------------------
 Candidate Structure: Conf:896 Charge calc in gas phase
 ------------------------------------------------------
 Structure from the checkpoint file:  "conf-896.chk"
 Charge =  1 Multiplicity = 1
 Redundant internal coordinates found in file.  (old form).
 N,0,3.3234194556,-1.6920922241,-2.7898941855
 H,0,3.6282357993,-0.7886349578,-3.1755502223
 H,0,2.7709077391,-1.4488859379,-1.9247154198
 H,0,4.1315362414,-2.2701439993,-2.5340235497
 C,0,2.4331098585,-2.4328770114,-3.7592973927
 H,0,3.0363457442,-2.6029748364,-4.6574090117
 C,0,1.3298086385,-1.4113140425,-4.1294386763
 C,0,2.0218443898,-3.7818822996,-3.1421765297
 H,0,1.3920625787,-3.6014651768,-2.2633594548
 H,0,1.42082635,-4.318289873,-3.8868337105
 O,0,1.6762098121,-0.2536484182,-4.3528276641
 C,0,3.2226463751,-4.6257209245,-2.7519333363
 C,0,3.9353393649,-5.3476586761,-3.7205470734
 H,0,3.6012234345,-5.3422496307,-4.7562312436
 C,0,3.6580327756,-4.6637511429,-1.4185411879
 H,0,3.0980133505,-4.1294134918,-0.6530626152
 C,0,5.059542549,-6.091830261,-3.3637536504
 H,0,5.5964167569,-6.6543398234,-4.1218599124
 C,0,4.7858070129,-5.4080640571,-1.0622773277
 H,0,5.1064886665,-5.4371718314,-0.0250405413
 C,0,5.4880814532,-6.1213877704,-2.0341665468
 H,0,6.3610922578,-6.7046754522,-1.7571981504
 N,0,0.0476049025,-1.8404947216,-4.1842303645
 H,0,-0.1526404365,-2.8036394381,-3.9427851047
 C,0,-1.0795526177,-0.8915850845,-4.2282120409
 H,0,-0.7590288218,-0.0400073714,-4.8301991154
 C,0,-1.4297429338,-0.3029834716,-2.8367797636
 C,0,-2.3077101473,-1.5221148826,-4.9052793283
 H,0,-3.1338403488,-0.8147813308,-4.8060200036
 H,0,-2.5965878275,-2.447761135,-4.3771019912
 O,0,-2.0471068331,0.7429312965,-2.7604337874
 O,0,-2.1224310814,-1.733774847,-6.2877297683
 H,0,-1.4638612256,-2.4336403215,-6.4136516234
 N,0,-1.0451735959,-1.0525992364,-1.7511101057
 H,0,-0.4175972747,-1.8237190465,-1.9262003913
 C,0,-0.7939893694,-0.4392816377,-0.458642527
 H,0,-1.2133296845,0.5711731111,-0.4886352338
 C,0,0.7387707551,-0.3609660146,-0.285668099
 C,0,-1.4465611252,-1.2280346517,0.6797799395
 H,0,-2.5275200254,-1.2696706041,0.4894956772
 H,0,-1.2828881755,-0.702513428,1.6334403756
 O,0,1.4728273688,-1.1284310175,-0.9466299132
 O,0,-0.8572100178,-2.5215253865,0.6869733217
 H,0,-1.3252214857,-3.0652068726,1.3386652246
 N,0,1.2189004227,0.5447998363,0.5658391433
 H,0,0.6087707871,1.1611649568,1.0986777209
 C,0,2.6291513166,0.8716537714,0.6862457671
 H,0,3.209049847,-0.0380785977,0.5179336487
 C,0,2.8326613159,1.4226587772,2.1158928102
 C,0,3.0640844583,1.986121943,-0.3270433443
 H,0,2.7221659404,2.9485060738,0.0650681284
 H,0,4.1544953252,2.0015013056,-0.3994717376
 O,0,1.894729876,2.0050269361,2.666496157
 C,0,2.418716325,1.8331198678,-1.6877665601
 O,0,1.2707077447,2.1275684467,-1.9259590798
 O,0,3.2383521384,1.2992159737,-2.6389873216
 N,0,4.0601955038,1.2570365612,2.6186735613
 H,0,4.823405987,0.8061279499,2.1059517588
 C,0,4.5717047335,1.8931407128,3.8302001162
 H,0,4.2749815103,2.9484573338,3.8279239871
 C,0,6.1309889496,1.7975560044,3.6981131064
 C,0,3.9798537908,1.2126569448,5.1038965115
 H,0,4.5387283568,0.2917775766,5.318242139
 H,0,2.9691786364,0.9027414537,4.825840141
 O,0,6.7979902441,2.5126453662,4.5199748536
 C,0,3.8535954061,2.0894575023,6.3794630918
 H,0,2.8634328797,1.9329399772,6.8217975465
 H,0,3.8937781673,3.1533179897,6.1129911265
 C,0,4.873237801,1.8232222042,7.4974042894
 H,0,4.6215614935,2.4429452642,8.3688614244
 H,0,4.8305549452,0.7718665283,7.8127767498
 N,0,6.2174404691,2.1395970929,7.0172630121
 H,0,6.2815321829,2.5199147853,6.0375914498
 N,0,7.4517592224,0.9625330171,8.61211084
 H,0,8.3107900165,0.5084186942,8.8845148673
 H,0,6.82436828,1.2331612967,9.354760529
 N,0,8.3756567369,1.5377347019,6.5404434549
 H,0,8.1760715364,1.8594515322,5.5777729155
 H,0,9.3237776113,1.3868390798,6.8499375173
 C,0,7.3482434559,1.5586855044,7.4001581877
 O,0,6.5815932931,1.0446444133,2.8210700364
 H,0,2.6753285101,1.2091006329,-3.4408663504
 Recover connectivity data from disk.
                           ----------------------------
                           !    Current Parameters    !
                           ! (Angstroms and Degrees)  !
 --------------------------                            --------------------------
 ! Name  Definition              Value                                          !
 --------------------------------------------------------------------------------
 ! R1    R(1,2)                  1.0285                                         !
 ! R2    R(1,3)                  1.055                                          !
 ! R3    R(1,4)                  1.026                                          !
 ! R4    R(1,5)                  1.5103                                         !
 ! R5    R(5,6)                  1.0952                                         !
 ! R6    R(5,7)                  1.5485                                         !
 ! R7    R(5,8)                  1.5394                                         !
 ! R8    R(7,11)                 1.2289                                         !
 ! R9    R(7,23)                 1.3532                                         !
 ! R10   R(8,9)                  1.0961                                         !
 ! R11   R(8,10)                 1.097                                          !
 ! R12   R(8,12)                 1.5186                                         !
 ! R13   R(12,13)                1.4026                                         !
 ! R14   R(12,15)                1.4032                                         !
 ! R15   R(13,14)                1.0883                                         !
 ! R16   R(13,17)                1.3946                                         !
 ! R17   R(15,16)                1.0886                                         !
 ! R18   R(15,19)                1.3974                                         !
 ! R19   R(17,18)                1.086                                          !
 ! R20   R(17,21)                1.3973                                         !
 ! R21   R(19,20)                1.0861                                         !
 ! R22   R(19,21)                1.3952                                         !
 ! R23   R(21,22)                1.0859                                         !
 ! R24   R(23,24)                1.0129                                         !
 ! R25   R(23,25)                1.4741                                         !
 ! R26   R(25,26)                1.091                                          !
 ! R27   R(25,27)                1.5509                                         !
 ! R28   R(25,28)                1.5376                                         !
 ! R29   R(27,31)                1.2169                                         !
 ! R30   R(27,34)                1.3742                                         !
 ! R31   R(28,29)                1.0921                                         !
 ! R32   R(28,30)                1.1042                                         !
 ! R33   R(28,32)                1.4108                                         !
 ! R34   R(32,33)                0.9692                                         !
 ! R35   R(34,35)                1.0095                                         !
 ! R36   R(34,36)                1.4525                                         !
 ! R37   R(36,37)                1.0944                                         !
 ! R38   R(36,38)                1.5445                                         !
 ! R39   R(36,39)                1.531                                          !
 ! R40   R(38,42)                1.2509                                         !
 ! R41   R(38,45)                1.3327                                         !
 ! R42   R(39,40)                1.0984                                         !
 ! R43   R(39,41)                1.1011                                         !
 ! R44   R(39,43)                1.4214                                         !
 ! R45   R(43,44)                0.9692                                         !
 ! R46   R(45,46)                1.0179                                         !
 ! R47   R(45,47)                1.4526                                         !
 ! R48   R(47,48)                1.0919                                         !
 ! R49   R(47,49)                1.5456                                         !
 ! R50   R(47,50)                1.5678                                         !
 ! R51   R(49,53)                1.2337                                         !
 ! R52   R(49,57)                1.3368                                         !
 ! R53   R(50,51)                1.094                                          !
 ! R54   R(50,52)                1.0929                                         !
 ! R55   R(50,54)                1.5138                                         !
 ! R56   R(54,55)                1.2089                                         !
 ! R57   R(54,56)                1.3644                                         !
 ! R58   R(56,82)                0.9839                                         !
 ! R59   R(57,58)                1.0241                                         !
 ! R60   R(57,59)                1.4608                                         !
 ! R61   R(59,60)                1.0962                                         !
 ! R62   R(59,61)                1.5678                                         !
 ! R63   R(59,62)                1.5607                                         !
 ! R64   R(61,65)                1.2774                                         !
 ! R65   R(61,81)                1.2406                                         !
 ! R66   R(62,63)                1.0983                                         !
 ! R67   R(62,64)                1.0931                                         !
 ! R68   R(62,66)                1.553                                          !
 ! R69   R(66,67)                1.0957                                         !
 ! R70   R(66,68)                1.0975                                         !
 ! R71   R(66,69)                1.5363                                         !
 ! R72   R(69,70)                1.0986                                         !
 ! R73   R(69,71)                1.0985                                         !
 ! R74   R(69,72)                1.462                                          !
 ! R75   R(72,73)                1.0529                                         !
 ! R76   R(72,80)                1.3277                                         !
 ! R77   R(74,75)                1.0091                                         !
 ! R78   R(74,76)                1.0092                                         !
 ! R79   R(74,80)                1.3546                                         !
 ! R80   R(77,78)                1.0344                                         !
 ! R81   R(77,79)                1.0087                                         !
 ! R82   R(77,80)                1.3398                                         !
 ! A1    A(2,1,3)              105.0828                                         !
 ! A2    A(2,1,4)              110.792                                          !
 ! A3    A(2,1,5)              111.3991                                         !
 ! A4    A(3,1,4)              109.7471                                         !
 ! A5    A(3,1,5)              109.3127                                         !
 ! A6    A(4,1,5)              110.3666                                         !
 ! A7    A(1,5,6)              106.1311                                         !
 ! A8    A(1,5,7)              104.4684                                         !
 ! A9    A(1,5,8)              109.268                                          !
 ! A10   A(6,5,7)              107.391                                          !
 ! A11   A(6,5,8)              109.8642                                         !
 ! A12   A(7,5,8)              118.9198                                         !
 ! A13   A(5,7,11)             117.6519                                         !
 ! A14   A(5,7,23)             118.3949                                         !
 ! A15   A(11,7,23)            123.9529                                         !
 ! A16   A(5,8,9)              109.3091                                         !
 ! A17   A(5,8,10)             107.6219                                         !
 ! A18   A(5,8,12)             112.2529                                         !
 ! A19   A(9,8,10)             108.055                                          !
 ! A20   A(9,8,12)             109.8608                                         !
 ! A21   A(10,8,12)            109.6292                                         !
 ! A22   A(8,12,13)            120.6847                                         !
 ! A23   A(8,12,15)            120.3041                                         !
 ! A24   A(13,12,15)           118.9872                                         !
 ! A25   A(12,13,14)           119.911                                          !
 ! A26   A(12,13,17)           120.5023                                         !
 ! A27   A(14,13,17)           119.5789                                         !
 ! A28   A(12,15,16)           119.6872                                         !
 ! A29   A(12,15,19)           120.4713                                         !
 ! A30   A(16,15,19)           119.8237                                         !
 ! A31   A(13,17,18)           119.756                                          !
 ! A32   A(13,17,21)           120.1304                                         !
 ! A33   A(18,17,21)           120.112                                          !
 ! A34   A(15,19,20)           119.7389                                         !
 ! A35   A(15,19,21)           120.0627                                         !
 ! A36   A(20,19,21)           120.1952                                         !
 ! A37   A(17,21,19)           119.8457                                         !
 ! A38   A(17,21,22)           120.0438                                         !
 ! A39   A(19,21,22)           120.1088                                         !
 ! A40   A(7,23,24)            118.6346                                         !
 ! A41   A(7,23,25)            121.4377                                         !
 ! A42   A(24,23,25)           117.9073                                         !
 ! A43   A(23,25,26)           107.1144                                         !
 ! A44   A(23,25,27)           112.9678                                         !
 ! A45   A(23,25,28)           111.0953                                         !
 ! A46   A(26,25,27)           105.3756                                         !
 ! A47   A(26,25,28)           108.1656                                         !
 ! A48   A(27,25,28)           111.7364                                         !
 ! A49   A(25,27,31)           119.8043                                         !
 ! A50   A(25,27,34)           116.014                                          !
 ! A51   A(31,27,34)           124.1412                                         !
 ! A52   A(25,28,29)           107.3733                                         !
 ! A53   A(25,28,30)           110.0043                                         !
 ! A54   A(25,28,32)           112.8369                                         !
 ! A55   A(29,28,30)           107.5522                                         !
 ! A56   A(29,28,32)           106.5938                                         !
 ! A57   A(30,28,32)           112.1678                                         !
 ! A58   A(28,32,33)           108.9587                                         !
 ! A59   A(27,34,35)           116.9756                                         !
 ! A60   A(27,34,36)           121.4026                                         !
 ! A61   A(35,34,36)           111.6763                                         !
 ! A62   A(34,36,37)           107.4101                                         !
 ! A63   A(34,36,38)           107.0191                                         !
 ! A64   A(34,36,39)           111.7408                                         !
 ! A65   A(37,36,38)           109.6642                                         !
 ! A66   A(37,36,39)           109.4339                                         !
 ! A67   A(38,36,39)           111.4599                                         !
 ! A68   A(36,38,42)           119.478                                          !
 ! A69   A(36,38,45)           117.6176                                         !
 ! A70   A(42,38,45)           122.9015                                         !
 ! A71   A(36,39,40)           108.0707                                         !
 ! A72   A(36,39,41)           109.5585                                         !
 ! A73   A(36,39,43)           107.2085                                         !
 ! A74   A(40,39,41)           108.3261                                         !
 ! A75   A(40,39,43)           111.9887                                         !
 ! A76   A(41,39,43)           111.6103                                         !
 ! A77   A(39,43,44)           108.2799                                         !
 ! A78   A(38,45,46)           122.0111                                         !
 ! A79   A(38,45,47)           123.756                                          !
 ! A80   A(46,45,47)           113.7209                                         !
 ! A81   A(45,47,48)           108.3822                                         !
 ! A82   A(45,47,49)           106.5417                                         !
 ! A83   A(45,47,50)           112.0676                                         !
 ! A84   A(48,47,49)           111.6956                                         !
 ! A85   A(48,47,50)           110.2001                                         !
 ! A86   A(49,47,50)           107.9316                                         !
 ! A87   A(47,49,53)           118.7505                                         !
 ! A88   A(47,49,57)           115.127                                          !
 ! A89   A(53,49,57)           126.0674                                         !
 ! A90   A(47,50,51)           107.877                                          !
 ! A91   A(47,50,52)           109.2454                                         !
 ! A92   A(47,50,54)           113.0076                                         !
 ! A93   A(51,50,52)           108.8562                                         !
 ! A94   A(51,50,54)           106.132                                          !
 ! A95   A(52,50,54)           111.5434                                         !
 ! A96   A(50,54,55)           123.8741                                         !
 ! A97   A(50,54,56)           114.2123                                         !
 ! A98   A(55,54,56)           121.8986                                         !
 ! A99   A(54,56,82)           105.0855                                         !
 ! A100  A(49,57,58)           123.4085                                         !
 ! A101  A(49,57,59)           125.4149                                         !
 ! A102  A(58,57,59)           110.2428                                         !
 ! A103  A(57,59,60)           108.8253                                         !
 ! A104  A(57,59,61)           104.5857                                         !
 ! A105  A(57,59,62)           110.7441                                         !
 ! A106  A(60,59,61)           109.1306                                         !
 ! A107  A(60,59,62)           108.59                                           !
 ! A108  A(61,59,62)           114.7937                                         !
 ! A109  A(59,61,65)           115.5307                                         !
 ! A110  A(59,61,81)           117.2454                                         !
 ! A111  A(65,61,81)           127.2238                                         !
 ! A112  A(59,62,63)           109.3833                                         !
 ! A113  A(59,62,64)           105.4656                                         !
 ! A114  A(59,62,66)           117.0645                                         !
 ! A115  A(63,62,64)           106.404                                          !
 ! A116  A(63,62,66)           110.7597                                         !
 ! A117  A(64,62,66)           107.088                                          !
 ! A118  A(62,66,67)           108.9292                                         !
 ! A119  A(62,66,68)           110.1752                                         !
 ! A120  A(62,66,69)           116.4796                                         !
 ! A121  A(67,66,68)           105.6393                                         !
 ! A122  A(67,66,69)           106.3343                                         !
 ! A123  A(68,66,69)           108.6852                                         !
 ! A124  A(66,69,70)           109.1129                                         !
 ! A125  A(66,69,71)           110.4253                                         !
 ! A126  A(66,69,72)           109.4951                                         !
 ! A127  A(70,69,71)           107.6545                                         !
 ! A128  A(70,69,72)           110.431                                          !
 ! A129  A(71,69,72)           109.7019                                         !
 ! A130  A(69,72,73)           116.0858                                         !
 ! A131  A(69,72,80)           126.4183                                         !
 ! A132  A(73,72,80)           111.9962                                         !
 ! A133  A(75,74,76)           116.8241                                         !
 ! A134  A(75,74,80)           120.3052                                         !
 ! A135  A(76,74,80)           119.5305                                         !
 ! A136  A(78,77,79)           120.8913                                         !
 ! A137  A(78,77,80)           116.3804                                         !
 ! A138  A(79,77,80)           121.7512                                         !
 ! A139  A(72,80,74)           121.0417                                         !
 ! A140  A(72,80,77)           118.3529                                         !
 ! A141  A(74,80,77)           120.5713                                         !
 ! D1    D(2,1,5,6)             60.8496                                         !
 ! D2    D(2,1,5,7)            -52.4762                                         !
 ! D3    D(2,1,5,8)            179.2618                                         !
 ! D4    D(3,1,5,6)            176.538                                          !
 ! D5    D(3,1,5,7)             63.2122                                         !
 ! D6    D(3,1,5,8)            -65.0498                                         !
 ! D7    D(4,1,5,6)            -62.6658                                         !
 ! D8    D(4,1,5,7)           -175.9916                                         !
 ! D9    D(4,1,5,8)             55.7464                                         !
 ! D10   D(1,5,7,11)            42.978                                          !
 ! D11   D(1,5,7,23)          -136.8324                                         !
 ! D12   D(6,5,7,11)           -69.4485                                         !
 ! D13   D(6,5,7,23)           110.7411                                         !
 ! D14   D(8,5,7,11)           165.1122                                         !
 ! D15   D(8,5,7,23)           -14.6982                                         !
 ! D16   D(1,5,8,9)             65.7604                                         !
 ! D17   D(1,5,8,10)          -177.1191                                         !
 ! D18   D(1,5,8,12)           -56.4017                                         !
 ! D19   D(6,5,8,9)           -178.1844                                         !
 ! D20   D(6,5,8,10)           -61.0639                                         !
 ! D21   D(6,5,8,12)            59.6535                                         !
 ! D22   D(7,5,8,9)            -53.9429                                         !
 ! D23   D(7,5,8,10)            63.1776                                         !
 ! D24   D(7,5,8,12)          -176.1051                                         !
 ! D25   D(5,7,23,24)            2.6133                                         !
 ! D26   D(5,7,23,25)          166.1062                                         !
 ! D27   D(11,7,23,24)        -177.1843                                         !
 ! D28   D(11,7,23,25)         -13.6914                                         !
 ! D29   D(5,8,12,13)          -78.7856                                         !
 ! D30   D(5,8,12,15)           99.4148                                         !
 ! D31   D(9,8,12,13)          159.3664                                         !
 ! D32   D(9,8,12,15)          -22.4333                                         !
 ! D33   D(10,8,12,13)          40.7663                                         !
 ! D34   D(10,8,12,15)        -141.0334                                         !
 ! D35   D(8,12,13,14)          -2.8011                                         !
 ! D36   D(8,12,13,17)         178.2209                                         !
 ! D37   D(15,12,13,14)        178.9751                                         !
 ! D38   D(15,12,13,17)         -0.0029                                         !
 ! D39   D(8,12,15,16)           3.4043                                         !
 ! D40   D(8,12,15,19)        -178.1304                                         !
 ! D41   D(13,12,15,16)       -178.365                                          !
 ! D42   D(13,12,15,19)          0.1003                                         !
 ! D43   D(12,13,17,18)        179.3841                                         !
 ! D44   D(12,13,17,21)         -0.1589                                         !
 ! D45   D(14,13,17,18)          0.4028                                         !
 ! D46   D(14,13,17,21)       -179.1402                                         !
 ! D47   D(12,15,19,20)       -179.3895                                         !
 ! D48   D(12,15,19,21)         -0.0362                                         !
 ! D49   D(16,15,19,20)         -0.9263                                         !
 ! D50   D(16,15,19,21)        178.427                                          !
 ! D51   D(13,17,21,19)          0.2232                                         !
 ! D52   D(13,17,21,22)        179.7393                                         !
 ! D53   D(18,17,21,19)       -179.3182                                         !
 ! D54   D(18,17,21,22)          0.1979                                         !
 ! D55   D(15,19,21,17)         -0.1259                                         !
 ! D56   D(15,19,21,22)       -179.6417                                         !
 ! D57   D(20,19,21,17)        179.2244                                         !
 ! D58   D(20,19,21,22)         -0.2914                                         !
 ! D59   D(7,23,25,26)          36.3136                                         !
 ! D60   D(7,23,25,27)         -79.2692                                         !
 ! D61   D(7,23,25,28)         154.2458                                         !
 ! D62   D(24,23,25,26)       -160.078                                          !
 ! D63   D(24,23,25,27)         84.3392                                         !
 ! D64   D(24,23,25,28)        -42.1458                                         !
 ! D65   D(23,25,27,31)        158.9013                                         !
 ! D66   D(23,25,27,34)        -23.3194                                         !
 ! D67   D(26,25,27,31)         42.2842                                         !
 ! D68   D(26,25,27,34)       -139.9364                                         !
 ! D69   D(28,25,27,31)        -74.9559                                         !
 ! D70   D(28,25,27,34)        102.8235                                         !
 ! D71   D(23,25,28,29)        173.7932                                         !
 ! D72   D(23,25,28,30)         57.0378                                         !
 ! D73   D(23,25,28,32)        -69.0491                                         !
 ! D74   D(26,25,28,29)        -68.9137                                         !
 ! D75   D(26,25,28,30)        174.331                                          !
 ! D76   D(26,25,28,32)         48.2441                                         !
 ! D77   D(27,25,28,29)         46.6319                                         !
 ! D78   D(27,25,28,30)        -70.1234                                         !
 ! D79   D(27,25,28,32)        163.7897                                         !
 ! D80   D(25,27,34,35)         11.4983                                         !
 ! D81   D(25,27,34,36)        154.2764                                         !
 ! D82   D(31,27,34,35)       -170.83                                           !
 ! D83   D(31,27,34,36)        -28.0518                                         !
 ! D84   D(25,28,32,33)         68.7785                                         !
 ! D85   D(29,28,32,33)       -173.6042                                         !
 ! D86   D(30,28,32,33)        -56.1389                                         !
 ! D87   D(27,34,36,37)         14.5211                                         !
 ! D88   D(27,34,36,38)       -103.176                                          !
 ! D89   D(27,34,36,39)        134.5502                                         !
 ! D90   D(35,34,36,37)        159.0628                                         !
 ! D91   D(35,34,36,38)         41.3657                                         !
 ! D92   D(35,34,36,39)        -80.9081                                         !
 ! D93   D(34,36,38,42)        -22.0019                                         !
 ! D94   D(34,36,38,45)        157.3949                                         !
 ! D95   D(37,36,38,42)       -138.2125                                         !
 ! D96   D(37,36,38,45)         41.1843                                         !
 ! D97   D(39,36,38,42)        100.4474                                         !
 ! D98   D(39,36,38,45)        -80.1558                                         !
 ! D99   D(34,36,39,40)        -58.9662                                         !
 ! D100  D(34,36,39,41)       -176.8                                            !
 ! D101  D(34,36,39,43)         61.9219                                         !
 ! D102  D(37,36,39,40)         59.868                                          !
 ! D103  D(37,36,39,41)        -57.9658                                         !
 ! D104  D(37,36,39,43)       -179.2439                                         !
 ! D105  D(38,36,39,40)       -178.6579                                         !
 ! D106  D(38,36,39,41)         63.5082                                         !
 ! D107  D(38,36,39,43)        -57.7698                                         !
 ! D108  D(36,38,45,46)          0.7774                                         !
 ! D109  D(36,38,45,47)       -170.4951                                         !
 ! D110  D(42,38,45,46)       -179.848                                          !
 ! D111  D(42,38,45,47)          8.8795                                         !
 ! D112  D(36,39,43,44)       -173.975                                          !
 ! D113  D(40,39,43,44)        -55.5985                                         !
 ! D114  D(41,39,43,44)         66.0486                                         !
 ! D115  D(38,45,47,48)        -34.7006                                         !
 ! D116  D(38,45,47,49)       -155.0366                                         !
 ! D117  D(38,45,47,50)         87.1258                                         !
 ! D118  D(46,45,47,48)        153.3782                                         !
 ! D119  D(46,45,47,49)         33.0423                                         !
 ! D120  D(46,45,47,50)        -84.7954                                         !
 ! D121  D(45,47,49,53)        -29.454                                          !
 ! D122  D(45,47,49,57)        153.0822                                         !
 ! D123  D(48,47,49,53)       -147.6322                                         !
 ! D124  D(48,47,49,57)         34.904                                          !
 ! D125  D(50,47,49,53)         91.0794                                         !
 ! D126  D(50,47,49,57)        -86.3844                                         !
 ! D127  D(45,47,50,51)         77.4863                                         !
 ! D128  D(45,47,50,52)       -164.3298                                         !
 ! D129  D(45,47,50,54)        -39.5234                                         !
 ! D130  D(48,47,50,51)       -161.7337                                         !
 ! D131  D(48,47,50,52)        -43.5499                                         !
 ! D132  D(48,47,50,54)         81.2565                                         !
 ! D133  D(49,47,50,51)        -39.5202                                         !
 ! D134  D(49,47,50,52)         78.6637                                         !
 ! D135  D(49,47,50,54)       -156.5299                                         !
 ! D136  D(47,49,57,58)          0.3957                                         !
 ! D137  D(47,49,57,59)        168.2437                                         !
 ! D138  D(53,49,57,58)       -176.8533                                         !
 ! D139  D(53,49,57,59)         -9.0053                                         !
 ! D140  D(47,50,54,55)         76.3146                                         !
 ! D141  D(47,50,54,56)       -102.296                                          !
 ! D142  D(51,50,54,55)        -41.7194                                         !
 ! D143  D(51,50,54,56)        139.67                                           !
 ! D144  D(52,50,54,55)       -160.1374                                         !
 ! D145  D(52,50,54,56)         21.252                                          !
 ! D146  D(50,54,56,82)        176.6024                                         !
 ! D147  D(55,54,56,82)         -2.0388                                         !
 ! D148  D(49,57,59,60)        -43.9246                                         !
 ! D149  D(49,57,59,61)       -160.4432                                         !
 ! D150  D(49,57,59,62)         75.3688                                         !
 ! D151  D(58,57,59,60)        125.2806                                         !
 ! D152  D(58,57,59,61)          8.7621                                         !
 ! D153  D(58,57,59,62)       -115.426                                          !
 ! D154  D(57,59,61,65)        167.2225                                         !
 ! D155  D(57,59,61,81)        -12.9074                                         !
 ! D156  D(60,59,61,65)         50.9154                                         !
 ! D157  D(60,59,61,81)       -129.2146                                         !
 ! D158  D(62,59,61,65)        -71.2201                                         !
 ! D159  D(62,59,61,81)        108.6499                                         !
 ! D160  D(57,59,62,63)         80.6961                                         !
 ! D161  D(57,59,62,64)        -33.3811                                         !
 ! D162  D(57,59,62,66)       -152.3109                                         !
 ! D163  D(60,59,62,63)       -159.8688                                         !
 ! D164  D(60,59,62,64)         86.0539                                         !
 ! D165  D(60,59,62,66)        -32.8759                                         !
 ! D166  D(61,59,62,63)        -37.441                                          !
 ! D167  D(61,59,62,64)       -151.5182                                         !
 ! D168  D(61,59,62,66)         89.552                                          !
 ! D169  D(59,62,66,67)        134.1627                                         !
 ! D170  D(59,62,66,68)         18.7184                                         !
 ! D171  D(59,62,66,69)       -105.6386                                         !
 ! D172  D(63,62,66,67)        -99.5202                                         !
 ! D173  D(63,62,66,68)        145.0355                                         !
 ! D174  D(63,62,66,69)         20.6785                                         !
 ! D175  D(64,62,66,67)         16.1056                                         !
 ! D176  D(64,62,66,68)        -99.3387                                         !
 ! D177  D(64,62,66,69)        136.3044                                         !
 ! D178  D(62,66,69,70)       -175.1227                                         !
 ! D179  D(62,66,69,71)        -56.9876                                         !
 ! D180  D(62,66,69,72)         63.907                                          !
 ! D181  D(67,66,69,70)        -53.5451                                         !
 ! D182  D(67,66,69,71)         64.59                                           !
 ! D183  D(67,66,69,72)       -174.5154                                         !
 ! D184  D(68,66,69,70)         59.7623                                         !
 ! D185  D(68,66,69,71)        177.8974                                         !
 ! D186  D(68,66,69,72)        -61.208                                          !
 ! D187  D(66,69,72,73)          2.1927                                         !
 ! D188  D(66,69,72,80)       -149.3811                                         !
 ! D189  D(70,69,72,73)       -117.9754                                         !
 ! D190  D(70,69,72,80)         90.4508                                         !
 ! D191  D(71,69,72,73)        123.525                                          !
 ! D192  D(71,69,72,80)        -28.0487                                         !
 ! D193  D(69,72,80,74)        -24.9863                                         !
 ! D194  D(69,72,80,77)        152.9026                                         !
 ! D195  D(73,72,80,74)       -177.5281                                         !
 ! D196  D(73,72,80,77)          0.3608                                         !
 ! D197  D(75,74,80,72)        178.788                                          !
 ! D198  D(75,74,80,77)          0.9458                                         !
 ! D199  D(76,74,80,72)        -22.494                                          !
 ! D200  D(76,74,80,77)        159.6637                                         !
 ! D201  D(78,77,80,72)         -8.4707                                         !
 ! D202  D(78,77,80,74)        169.4285                                         !
 ! D203  D(79,77,80,72)        160.3093                                         !
 ! D204  D(79,77,80,74)        -21.7915                                         !
 --------------------------------------------------------------------------------
 Symmetry turned off by external request.
 Stoichiometry    C25H39N8O10(1+)
 Framework group  C1[X(C25H39N8O10)]
 Deg. of freedom   240
 Full point group                 C1      NOp   1
                          Input orientation:                          
 ---------------------------------------------------------------------
 Center     Atomic      Atomic             Coordinates (Angstroms)
 Number     Number       Type             X           Y           Z
 ---------------------------------------------------------------------
      1          7           0        3.323419   -1.692092   -2.789894
      2          1           0        3.628236   -0.788635   -3.175550
      3          1           0        2.770908   -1.448886   -1.924715
      4          1           0        4.131536   -2.270144   -2.534024
      5          6           0        2.433110   -2.432877   -3.759297
      6          1           0        3.036346   -2.602975   -4.657409
      7          6           0        1.329809   -1.411314   -4.129439
      8          6           0        2.021844   -3.781882   -3.142177
      9          1           0        1.392063   -3.601465   -2.263359
     10          1           0        1.420826   -4.318290   -3.886834
     11          8           0        1.676210   -0.253648   -4.352828
     12          6           0        3.222646   -4.625721   -2.751933
     13          6           0        3.935339   -5.347659   -3.720547
     14          1           0        3.601223   -5.342250   -4.756231
     15          6           0        3.658033   -4.663751   -1.418541
     16          1           0        3.098013   -4.129413   -0.653063
     17          6           0        5.059543   -6.091830   -3.363754
     18          1           0        5.596417   -6.654340   -4.121860
     19          6           0        4.785807   -5.408064   -1.062277
     20          1           0        5.106489   -5.437172   -0.025041
     21          6           0        5.488081   -6.121388   -2.034167
     22          1           0        6.361092   -6.704675   -1.757198
     23          7           0        0.047605   -1.840495   -4.184230
     24          1           0       -0.152640   -2.803639   -3.942785
     25          6           0       -1.079553   -0.891585   -4.228212
     26          1           0       -0.759029   -0.040007   -4.830199
     27          6           0       -1.429743   -0.302983   -2.836780
     28          6           0       -2.307710   -1.522115   -4.905279
     29          1           0       -3.133840   -0.814781   -4.806020
     30          1           0       -2.596588   -2.447761   -4.377102
     31          8           0       -2.047107    0.742931   -2.760434
     32          8           0       -2.122431   -1.733775   -6.287730
     33          1           0       -1.463861   -2.433640   -6.413652
     34          7           0       -1.045174   -1.052599   -1.751110
     35          1           0       -0.417597   -1.823719   -1.926200
     36          6           0       -0.793989   -0.439282   -0.458643
     37          1           0       -1.213330    0.571173   -0.488635
     38          6           0        0.738771   -0.360966   -0.285668
     39          6           0       -1.446561   -1.228035    0.679780
     40          1           0       -2.527520   -1.269671    0.489496
     41          1           0       -1.282888   -0.702513    1.633440
     42          8           0        1.472827   -1.128431   -0.946630
     43          8           0       -0.857210   -2.521525    0.686973
     44          1           0       -1.325221   -3.065207    1.338665
     45          7           0        1.218900    0.544800    0.565839
     46          1           0        0.608771    1.161165    1.098678
     47          6           0        2.629151    0.871654    0.686246
     48          1           0        3.209050   -0.038079    0.517934
     49          6           0        2.832661    1.422659    2.115893
     50          6           0        3.064084    1.986122   -0.327043
     51          1           0        2.722166    2.948506    0.065068
     52          1           0        4.154495    2.001501   -0.399472
     53          8           0        1.894730    2.005027    2.666496
     54          6           0        2.418716    1.833120   -1.687767
     55          8           0        1.270708    2.127568   -1.925959
     56          8           0        3.238352    1.299216   -2.638987
     57          7           0        4.060196    1.257037    2.618674
     58          1           0        4.823406    0.806128    2.105952
     59          6           0        4.571705    1.893141    3.830200
     60          1           0        4.274982    2.948457    3.827924
     61          6           0        6.130989    1.797556    3.698113
     62          6           0        3.979854    1.212657    5.103897
     63          1           0        4.538728    0.291778    5.318242
     64          1           0        2.969179    0.902741    4.825840
     65          8           0        6.797990    2.512645    4.519975
     66          6           0        3.853595    2.089458    6.379463
     67          1           0        2.863433    1.932940    6.821798
     68          1           0        3.893778    3.153318    6.112991
     69          6           0        4.873238    1.823222    7.497404
     70          1           0        4.621561    2.442945    8.368861
     71          1           0        4.830555    0.771867    7.812777
     72          7           0        6.217440    2.139597    7.017263
     73          1           0        6.281532    2.519915    6.037591
     74          7           0        7.451759    0.962533    8.612111
     75          1           0        8.310790    0.508419    8.884515
     76          1           0        6.824368    1.233161    9.354761
     77          7           0        8.375657    1.537735    6.540443
     78          1           0        8.176072    1.859452    5.577773
     79          1           0        9.323778    1.386839    6.849938
     80          6           0        7.348243    1.558686    7.400158
     81          8           0        6.581593    1.044644    2.821070
     82          1           0        2.675329    1.209101   -3.440866
 ---------------------------------------------------------------------
 Rotational constants (GHZ):           0.1085599           0.0339320           0.0294312
 Standard basis: 6-31G(d) (6D, 7F)
   723 basis functions,  1360 primitive gaussians,   723 cartesian basis functions
   162 alpha electrons      162 beta electrons
       nuclear repulsion energy      5449.7827819851 Hartrees.
 NAtoms=   82 NActive=   82 NUniq=   82 SFac= 1.00D+00 NAtFMM=   60 NAOKFM=T Big=T
 Integral buffers will be    131072 words long.
 Raffenetti 2 integral format.
 Two-electron integral symmetry is turned off.
 One-electron integrals computed using PRISM.
 NBasis=   723 RedAO= T EigKep=  4.71D-04  NBF=   723
 NBsUse=   723 1.00D-06 EigRej= -1.00D+00 NBFU=   723
 Initial guess from the checkpoint file:  "conf-896.chk"
 B after Tr=     0.000000    0.000000    0.000000
         Rot=    1.000000    0.000000    0.000000    0.000000 Ang=   0.00 deg.
 Requested convergence on RMS density matrix=1.00D-08 within 128 cycles.
 Requested convergence on MAX density matrix=1.00D-06.
 Requested convergence on             energy=1.00D-06.
 No special actions if energy rises.
 SCF Done:  E(RB3LYP) =  -2166.27856170     A.U. after    1 cycles
            NFock=  1  Conv=0.61D-08     -V/T= 2.0092

 **********************************************************************

            Population analysis using the SCF Density.

 **********************************************************************

 Alpha  occ. eigenvalues --  -19.28439 -19.25357 -19.24266 -19.24186 -19.23298
 Alpha  occ. eigenvalues --  -19.22516 -19.20376 -19.19399 -19.15910 -19.15167
 Alpha  occ. eigenvalues --  -14.56433 -14.49719 -14.47509 -14.47010 -14.45051
 Alpha  occ. eigenvalues --  -14.44814 -14.44093 -14.42643 -10.42968 -10.42194
 Alpha  occ. eigenvalues --  -10.40937 -10.40589 -10.39281 -10.37830 -10.36706
 Alpha  occ. eigenvalues --  -10.33977 -10.33468 -10.33267 -10.33210 -10.33173
 Alpha  occ. eigenvalues --  -10.33157 -10.32881 -10.31311 -10.31263 -10.29889
 Alpha  occ. eigenvalues --  -10.29789 -10.29642 -10.29360 -10.29284 -10.29073
 Alpha  occ. eigenvalues --  -10.28785 -10.26811 -10.25919  -1.19133  -1.17615
 Alpha  occ. eigenvalues --   -1.15482  -1.12540  -1.11529  -1.11438  -1.11249
 Alpha  occ. eigenvalues --   -1.10931  -1.10877  -1.10081  -1.08777  -1.05604
 Alpha  occ. eigenvalues --   -1.03541  -1.01475  -1.01155  -0.99922  -0.98909
 Alpha  occ. eigenvalues --   -0.98770  -0.96695  -0.92082  -0.89139  -0.87427
 Alpha  occ. eigenvalues --   -0.86704  -0.85278  -0.84938  -0.83981  -0.81671
 Alpha  occ. eigenvalues --   -0.78928  -0.78677  -0.75273  -0.74740  -0.73625
 Alpha  occ. eigenvalues --   -0.72757  -0.72277  -0.71606  -0.71360  -0.70668
 Alpha  occ. eigenvalues --   -0.69577  -0.68953  -0.68603  -0.68434  -0.67509
 Alpha  occ. eigenvalues --   -0.67338  -0.65853  -0.64827  -0.64617  -0.63969
 Alpha  occ. eigenvalues --   -0.62341  -0.61701  -0.61157  -0.60821  -0.60096
 Alpha  occ. eigenvalues --   -0.59768  -0.59448  -0.59063  -0.58718  -0.57731
 Alpha  occ. eigenvalues --   -0.57205  -0.56986  -0.56861  -0.56473  -0.56193
 Alpha  occ. eigenvalues --   -0.55527  -0.55511  -0.55200  -0.54665  -0.54360
 Alpha  occ. eigenvalues --   -0.53864  -0.53444  -0.52786  -0.52517  -0.52185
 Alpha  occ. eigenvalues --   -0.51941  -0.51770  -0.51212  -0.51050  -0.50704
 Alpha  occ. eigenvalues --   -0.50401  -0.50115  -0.49638  -0.49161  -0.48843
 Alpha  occ. eigenvalues --   -0.48477  -0.48087  -0.47642  -0.47243  -0.46867
 Alpha  occ. eigenvalues --   -0.46550  -0.46283  -0.46056  -0.45828  -0.45057
 Alpha  occ. eigenvalues --   -0.44953  -0.44573  -0.43687  -0.43081  -0.42341
 Alpha  occ. eigenvalues --   -0.42150  -0.41610  -0.40955  -0.40747  -0.40194
 Alpha  occ. eigenvalues --   -0.39116  -0.38604  -0.38031  -0.37594  -0.36588
 Alpha  occ. eigenvalues --   -0.36319  -0.35918  -0.35643  -0.35303  -0.34886
 Alpha  occ. eigenvalues --   -0.34799  -0.33503  -0.33297  -0.32998  -0.30956
 Alpha  occ. eigenvalues --   -0.30431  -0.29544
 Alpha virt. eigenvalues --   -0.12511  -0.11287  -0.10936  -0.09520  -0.08825
 Alpha virt. eigenvalues --   -0.07096  -0.06909  -0.05650  -0.04941  -0.04485
 Alpha virt. eigenvalues --   -0.03456  -0.02218  -0.01761  -0.01285  -0.00970
 Alpha virt. eigenvalues --   -0.00843  -0.00080   0.00343   0.00668   0.00832
 Alpha virt. eigenvalues --    0.01625   0.02650   0.02733   0.03025   0.03565
 Alpha virt. eigenvalues --    0.04088   0.04269   0.04415   0.04719   0.05242
 Alpha virt. eigenvalues --    0.05372   0.05625   0.05647   0.06117   0.06271
 Alpha virt. eigenvalues --    0.06959   0.07214   0.07261   0.07520   0.07761
 Alpha virt. eigenvalues --    0.08477   0.08981   0.09054   0.09183   0.09232
 Alpha virt. eigenvalues --    0.09909   0.09977   0.10309   0.10744   0.11117
 Alpha virt. eigenvalues --    0.11428   0.11988   0.12280   0.12840   0.12922
 Alpha virt. eigenvalues --    0.13352   0.13417   0.13624   0.14102   0.14412
 Alpha virt. eigenvalues --    0.15051   0.15726   0.16070   0.16291   0.16534
 Alpha virt. eigenvalues --    0.17206   0.18310   0.18510   0.20266   0.20499
 Alpha virt. eigenvalues --    0.21243   0.22229   0.22350   0.22523   0.22989
 Alpha virt. eigenvalues --    0.23528   0.23893   0.24526   0.26471   0.26668
 Alpha virt. eigenvalues --    0.27707   0.27953   0.28125   0.29260   0.30180
 Alpha virt. eigenvalues --    0.31330   0.32679   0.33388   0.33681   0.36253
 Alpha virt. eigenvalues --    0.36678   0.37838   0.38441   0.39393   0.40613
 Alpha virt. eigenvalues --    0.41284   0.41977   0.42488   0.43011   0.43438
 Alpha virt. eigenvalues --    0.43819   0.43889   0.44041   0.44343   0.44979
 Alpha virt. eigenvalues --    0.45273   0.45440   0.45978   0.46352   0.46650
 Alpha virt. eigenvalues --    0.47084   0.47324   0.47499   0.47923   0.48152
 Alpha virt. eigenvalues --    0.48798   0.49188   0.49416   0.49679   0.50072
 Alpha virt. eigenvalues --    0.50285   0.50923   0.51270   0.51348   0.51782
 Alpha virt. eigenvalues --    0.51930   0.52147   0.52539   0.52951   0.53479
 Alpha virt. eigenvalues --    0.53985   0.54340   0.54635   0.54909   0.55301
 Alpha virt. eigenvalues --    0.55529   0.56226   0.56457   0.56927   0.57529
 Alpha virt. eigenvalues --    0.57845   0.58076   0.58294   0.59265   0.60099
 Alpha virt. eigenvalues --    0.60193   0.60404   0.61114   0.61212   0.61871
 Alpha virt. eigenvalues --    0.62135   0.62733   0.63410   0.64544   0.64734
 Alpha virt. eigenvalues --    0.65122   0.65824   0.66292   0.66780   0.67423
 Alpha virt. eigenvalues --    0.67759   0.67908   0.68740   0.69744   0.70283
 Alpha virt. eigenvalues --    0.70770   0.71162   0.71668   0.71944   0.72154
 Alpha virt. eigenvalues --    0.72477   0.72801   0.73234   0.73294   0.73573
 Alpha virt. eigenvalues --    0.74322   0.74476   0.75135   0.75419   0.75593
 Alpha virt. eigenvalues --    0.76027   0.76100   0.76580   0.76892   0.76936
 Alpha virt. eigenvalues --    0.77072   0.77745   0.78159   0.78695   0.78800
 Alpha virt. eigenvalues --    0.79028   0.79224   0.79628   0.79797   0.80271
 Alpha virt. eigenvalues --    0.80358   0.80638   0.81140   0.81276   0.81785
 Alpha virt. eigenvalues --    0.81862   0.82278   0.83056   0.83243   0.83435
 Alpha virt. eigenvalues --    0.83793   0.84117   0.84638   0.84994   0.85060
 Alpha virt. eigenvalues --    0.85941   0.86250   0.86634   0.87909   0.88091
 Alpha virt. eigenvalues --    0.88276   0.88938   0.89023   0.89540   0.89835
 Alpha virt. eigenvalues --    0.90562   0.91193   0.91495   0.92012   0.92861
 Alpha virt. eigenvalues --    0.92987   0.93165   0.93357   0.94797   0.95044
 Alpha virt. eigenvalues --    0.95679   0.96141   0.97096   0.98240   0.98513
 Alpha virt. eigenvalues --    0.99602   0.99776   0.99981   1.00733   1.01155
 Alpha virt. eigenvalues --    1.01687   1.01748   1.02613   1.03819   1.04528
 Alpha virt. eigenvalues --    1.04905   1.05571   1.05759   1.06099   1.06293
 Alpha virt. eigenvalues --    1.07678   1.08241   1.08888   1.09598   1.10065
 Alpha virt. eigenvalues --    1.10534   1.11037   1.11699   1.13185   1.14171
 Alpha virt. eigenvalues --    1.14803   1.15226   1.15581   1.16728   1.17551
 Alpha virt. eigenvalues --    1.18820   1.19234   1.19818   1.20019   1.21032
 Alpha virt. eigenvalues --    1.22466   1.23002   1.23961   1.24928   1.25424
 Alpha virt. eigenvalues --    1.27335   1.27745   1.28216   1.28821   1.29333
 Alpha virt. eigenvalues --    1.30361   1.30585   1.31974   1.32383   1.32578
 Alpha virt. eigenvalues --    1.33805   1.35483   1.36056   1.36497   1.37556
 Alpha virt. eigenvalues --    1.38095   1.38350   1.38493   1.38793   1.40185
 Alpha virt. eigenvalues --    1.40283   1.40666   1.41038   1.41251   1.42060
 Alpha virt. eigenvalues --    1.42366   1.43559   1.44683   1.45098   1.45831
 Alpha virt. eigenvalues --    1.46173   1.47058   1.47756   1.48389   1.49587
 Alpha virt. eigenvalues --    1.51100   1.51570   1.52223   1.52918   1.53978
 Alpha virt. eigenvalues --    1.54957   1.55727   1.56666   1.57939   1.58302
 Alpha virt. eigenvalues --    1.59507   1.59721   1.60476   1.60811   1.61309
 Alpha virt. eigenvalues --    1.61917   1.62735   1.63316   1.63874   1.64398
 Alpha virt. eigenvalues --    1.64581   1.65048   1.65857   1.66328   1.66860
 Alpha virt. eigenvalues --    1.67839   1.68386   1.68727   1.69395   1.69774
 Alpha virt. eigenvalues --    1.70077   1.70445   1.71335   1.71477   1.71892
 Alpha virt. eigenvalues --    1.72219   1.72898   1.73760   1.73982   1.74691
 Alpha virt. eigenvalues --    1.75534   1.75808   1.76748   1.77075   1.77387
 Alpha virt. eigenvalues --    1.77567   1.77824   1.78401   1.79113   1.79567
 Alpha virt. eigenvalues --    1.80168   1.80722   1.81615   1.82417   1.82845
 Alpha virt. eigenvalues --    1.83422   1.83656   1.83909   1.84871   1.85800
 Alpha virt. eigenvalues --    1.86200   1.86592   1.87346   1.87964   1.88209
 Alpha virt. eigenvalues --    1.88649   1.89021   1.89743   1.89791   1.90643
 Alpha virt. eigenvalues --    1.90967   1.91687   1.92079   1.92169   1.93693
 Alpha virt. eigenvalues --    1.94269   1.94544   1.94945   1.95139   1.95309
 Alpha virt. eigenvalues --    1.96011   1.96593   1.96952   1.98045   1.98538
 Alpha virt. eigenvalues --    1.99104   1.99366   2.00015   2.00472   2.01377
 Alpha virt. eigenvalues --    2.02202   2.03060   2.03572   2.03847   2.04227
 Alpha virt. eigenvalues --    2.04551   2.05046   2.05537   2.06301   2.07378
 Alpha virt. eigenvalues --    2.08456   2.09266   2.09933   2.10859   2.11638
 Alpha virt. eigenvalues --    2.12415   2.12878   2.13424   2.16601   2.16754
 Alpha virt. eigenvalues --    2.17222   2.17664   2.18929   2.19989   2.20400
 Alpha virt. eigenvalues --    2.20727   2.21040   2.21355   2.22387   2.23367
 Alpha virt. eigenvalues --    2.23999   2.24572   2.25246   2.26079   2.26142
 Alpha virt. eigenvalues --    2.27533   2.27897   2.28957   2.29474   2.30127
 Alpha virt. eigenvalues --    2.30652   2.30996   2.32687   2.33646   2.34373
 Alpha virt. eigenvalues --    2.34600   2.34742   2.36280   2.37616   2.38740
 Alpha virt. eigenvalues --    2.38972   2.39922   2.41882   2.42330   2.42850
 Alpha virt. eigenvalues --    2.43693   2.44270   2.45517   2.46232   2.46674
 Alpha virt. eigenvalues --    2.47576   2.48099   2.48263   2.49850   2.50362
 Alpha virt. eigenvalues --    2.51157   2.52237   2.54067   2.54614   2.55245
 Alpha virt. eigenvalues --    2.55376   2.56088   2.58483   2.59203   2.59429
 Alpha virt. eigenvalues --    2.60098   2.60516   2.61257   2.62333   2.62790
 Alpha virt. eigenvalues --    2.63406   2.63885   2.64060   2.64312   2.64592
 Alpha virt. eigenvalues --    2.66186   2.66290   2.69348   2.71039   2.71290
 Alpha virt. eigenvalues --    2.73072   2.74412   2.75997   2.76666   2.78322
 Alpha virt. eigenvalues --    2.79207   2.80842   2.83061   2.84033   2.87309
 Alpha virt. eigenvalues --    2.88617   2.89781   2.90784   2.91020   2.91341
 Alpha virt. eigenvalues --    2.93708   2.93966   2.94109   2.96551   2.98317
 Alpha virt. eigenvalues --    3.00054   3.02171   3.02341   3.05846   3.07292
 Alpha virt. eigenvalues --    3.10538   3.15621   3.30117   3.67138   3.70119
 Alpha virt. eigenvalues --    3.71709   3.76582   3.79650   3.83558   3.86207
 Alpha virt. eigenvalues --    3.92412   3.93548   3.95986   3.98186   3.98942
 Alpha virt. eigenvalues --    4.01489   4.02344   4.02843   4.04743   4.07045
 Alpha virt. eigenvalues --    4.08580   4.10717   4.11901   4.13160   4.13869
 Alpha virt. eigenvalues --    4.17473   4.18552   4.20721   4.22786   4.23208
 Alpha virt. eigenvalues --    4.23767   4.26037   4.31794   4.31877   4.35272
 Alpha virt. eigenvalues --    4.35481   4.37775   4.41583   4.42676   4.47583
 Alpha virt. eigenvalues --    4.54488   4.56559   4.59565   4.59758   4.60581
 Alpha virt. eigenvalues --    4.62865
          Condensed to atoms (all electrons):
 Mulliken charges:
               1
     1  N   -0.773888
     2  H    0.422303
     3  H    0.452445
     4  H    0.401647
     5  C   -0.104305
     6  H    0.223605
     7  C    0.668918
     8  C   -0.408079
     9  H    0.203165
    10  H    0.182266
    11  O   -0.532488
    12  C    0.124319
    13  C   -0.180161
    14  H    0.141945
    15  C   -0.216495
    16  H    0.155658
    17  C   -0.124878
    18  H    0.163905
    19  C   -0.122768
    20  H    0.160616
    21  C   -0.123056
    22  H    0.164081
    23  N   -0.649350
    24  H    0.347712
    25  C   -0.075513
    26  H    0.234560
    27  C    0.609509
    28  C   -0.056692
    29  H    0.206961
    30  H    0.128687
    31  O   -0.478761
    32  O   -0.587501
    33  H    0.391959
    34  N   -0.587062
    35  H    0.335008
    36  C   -0.110133
    37  H    0.221617
    38  C    0.685235
    39  C   -0.028965
    40  H    0.166038
    41  H    0.146078
    42  O   -0.623065
    43  O   -0.629162
    44  H    0.412160
    45  N   -0.579658
    46  H    0.371417
    47  C   -0.065577
    48  H    0.166276
    49  C    0.627853
    50  C   -0.342553
    51  H    0.213215
    52  H    0.192029
    53  O   -0.547179
    54  C    0.575949
    55  O   -0.440083
    56  O   -0.621500
    57  N   -0.620763
    58  H    0.354408
    59  C   -0.053145
    60  H    0.170978
    61  C    0.598986
    62  C   -0.277882
    63  H    0.143287
    64  H    0.174985
    65  O   -0.630829
    66  C   -0.305886
    67  H    0.163489
    68  H    0.171417
    69  C   -0.144313
    70  H    0.162867
    71  H    0.162119
    72  N   -0.613791
    73  H    0.416326
    74  N   -0.756478
    75  H    0.364152
    76  H    0.371901
    77  N   -0.779011
    78  H    0.416717
    79  H    0.350920
    80  C    0.771909
    81  O   -0.549977
    82  H    0.449348
 Sum of Mulliken charges =   1.00000
 Mulliken charges with hydrogens summed into heavy atoms:
               1
     1  N    0.502507
     5  C    0.119300
     7  C    0.668918
     8  C   -0.022647
    11  O   -0.532488
    12  C    0.124319
    13  C   -0.038217
    15  C   -0.060836
    17  C    0.039027
    19  C    0.037848
    21  C    0.041025
    23  N   -0.301637
    25  C    0.159047
    27  C    0.609509
    28  C    0.278956
    31  O   -0.478761
    32  O   -0.195543
    34  N   -0.252054
    36  C    0.111484
    38  C    0.685235
    39  C    0.283151
    42  O   -0.623065
    43  O   -0.217002
    45  N   -0.208241
    47  C    0.100699
    49  C    0.627853
    50  C    0.062691
    53  O   -0.547179
    54  C    0.575949
    55  O   -0.440083
    56  O   -0.172151
    57  N   -0.266355
    59  C    0.117833
    61  C    0.598986
    62  C    0.040390
    65  O   -0.630829
    66  C    0.029019
    69  C    0.180674
    72  N   -0.197465
    74  N   -0.020426
    77  N   -0.011373
    80  C    0.771909
    81  O   -0.549977
 Electronic spatial extent (au):  <R**2>=          44205.2348
 Charge=              1.0000 electrons
 Dipole moment (field-independent basis, Debye):
    X=             19.5817    Y=            -12.9716    Z=              8.2680  Tot=             24.9011
 Quadrupole moment (field-independent basis, Debye-Ang):
   XX=           -121.1857   YY=           -205.8065   ZZ=            -56.9672
   XY=            -21.5515   XZ=             82.4883   YZ=             56.5413
 Traceless Quadrupole moment (field-independent basis, Debye-Ang):
   XX=              6.8008   YY=            -77.8201   ZZ=             71.0193
   XY=            -21.5515   XZ=             82.4883   YZ=             56.5413
 Octapole moment (field-independent basis, Debye-Ang**2):
  XXX=          -1030.0266  YYY=            171.5858  ZZZ=           1204.0378  XYY=           -509.4143
  XXY=            -18.7918  XXZ=            841.0182  XZZ=            651.6075  YZZ=            100.9578
  YYZ=           -188.3720  XYZ=            204.9637
 Hexadecapole moment (field-independent basis, Debye-Ang**3):
 XXXX=         -14698.1691 YYYY=          -9001.7103 ZZZZ=         -10805.6185 XXXY=           -400.5428
 XXXZ=           1969.0605 YYYX=           -891.4325 YYYZ=          -3790.3216 ZZZX=           3914.1631
 ZZZY=          -2017.9196 XXYY=          -4565.7153 XXZZ=           1794.8671 YYZZ=          -4788.1962
 XXYZ=           -216.8600 YYXZ=          -2514.8167 ZZXY=            773.5675
 N-N= 5.449782781985D+03 E-N=-1.592539202837D+04  KE= 2.146461052045D+03
 Unable to Open any file for archive entry.
 1\1\GINC-AMR-066\SP\RB3LYP\6-31G(d)\C25H39N8O10(1+)\KENGMITH\26-May-20
 22\0\\# B3LYP/6-31G* guess=read geom=check nosymm integral(ultrafinegr
 id)\\Candidate Structure: Conf:896 Charge calc in gas phase\\1,1\N,0,3
 .3234194556,-1.6920922241,-2.7898941855\H,0,3.6282357993,-0.7886349578
 ,-3.1755502223\H,0,2.7709077391,-1.4488859379,-1.9247154198\H,0,4.1315
 362414,-2.2701439993,-2.5340235497\C,0,2.4331098585,-2.4328770114,-3.7
 592973927\H,0,3.0363457442,-2.6029748364,-4.6574090117\C,0,1.329808638
 5,-1.4113140425,-4.1294386763\C,0,2.0218443898,-3.7818822996,-3.142176
 5297\H,0,1.3920625787,-3.6014651768,-2.2633594548\H,0,1.42082635,-4.31
 8289873,-3.8868337105\O,0,1.6762098121,-0.2536484182,-4.3528276641\C,0
 ,3.2226463751,-4.6257209245,-2.7519333363\C,0,3.9353393649,-5.34765867
 61,-3.7205470734\H,0,3.6012234345,-5.3422496307,-4.7562312436\C,0,3.65
 80327756,-4.6637511429,-1.4185411879\H,0,3.0980133505,-4.1294134918,-0
 .6530626152\C,0,5.059542549,-6.091830261,-3.3637536504\H,0,5.596416756
 9,-6.6543398234,-4.1218599124\C,0,4.7858070129,-5.4080640571,-1.062277
 3277\H,0,5.1064886665,-5.4371718314,-0.0250405413\C,0,5.4880814532,-6.
 1213877704,-2.0341665468\H,0,6.3610922578,-6.7046754522,-1.7571981504\
 N,0,0.0476049025,-1.8404947216,-4.1842303645\H,0,-0.1526404365,-2.8036
 394381,-3.9427851047\C,0,-1.0795526177,-0.8915850845,-4.2282120409\H,0
 ,-0.7590288218,-0.0400073714,-4.8301991154\C,0,-1.4297429338,-0.302983
 4716,-2.8367797636\C,0,-2.3077101473,-1.5221148826,-4.9052793283\H,0,-
 3.1338403488,-0.8147813308,-4.8060200036\H,0,-2.5965878275,-2.44776113
 5,-4.3771019912\O,0,-2.0471068331,0.7429312965,-2.7604337874\O,0,-2.12
 24310814,-1.733774847,-6.2877297683\H,0,-1.4638612256,-2.4336403215,-6
 .4136516234\N,0,-1.0451735959,-1.0525992364,-1.7511101057\H,0,-0.41759
 72747,-1.8237190465,-1.9262003913\C,0,-0.7939893694,-0.4392816377,-0.4
 58642527\H,0,-1.2133296845,0.5711731111,-0.4886352338\C,0,0.7387707551
 ,-0.3609660146,-0.285668099\C,0,-1.4465611252,-1.2280346517,0.67977993
 95\H,0,-2.5275200254,-1.2696706041,0.4894956772\H,0,-1.2828881755,-0.7
 02513428,1.6334403756\O,0,1.4728273688,-1.1284310175,-0.9466299132\O,0
 ,-0.8572100178,-2.5215253865,0.6869733217\H,0,-1.3252214857,-3.0652068
 726,1.3386652246\N,0,1.2189004227,0.5447998363,0.5658391433\H,0,0.6087
 707871,1.1611649568,1.0986777209\C,0,2.6291513166,0.8716537714,0.68624
 57671\H,0,3.209049847,-0.0380785977,0.5179336487\C,0,2.8326613159,1.42
 26587772,2.1158928102\C,0,3.0640844583,1.986121943,-0.3270433443\H,0,2
 .7221659404,2.9485060738,0.0650681284\H,0,4.1544953252,2.0015013056,-0
 .3994717376\O,0,1.894729876,2.0050269361,2.666496157\C,0,2.418716325,1
 .8331198678,-1.6877665601\O,0,1.2707077447,2.1275684467,-1.9259590798\
 O,0,3.2383521384,1.2992159737,-2.6389873216\N,0,4.0601955038,1.2570365
 612,2.6186735613\H,0,4.823405987,0.8061279499,2.1059517588\C,0,4.57170
 47335,1.8931407128,3.8302001162\H,0,4.2749815103,2.9484573338,3.827923
 9871\C,0,6.1309889496,1.7975560044,3.6981131064\C,0,3.9798537908,1.212
 6569448,5.1038965115\H,0,4.5387283568,0.2917775766,5.318242139\H,0,2.9
 691786364,0.9027414537,4.825840141\O,0,6.7979902441,2.5126453662,4.519
 9748536\C,0,3.8535954061,2.0894575023,6.3794630918\H,0,2.8634328797,1.
 9329399772,6.8217975465\H,0,3.8937781673,3.1533179897,6.1129911265\C,0
 ,4.873237801,1.8232222042,7.4974042894\H,0,4.6215614935,2.4429452642,8
 .3688614244\H,0,4.8305549452,0.7718665283,7.8127767498\N,0,6.217440469
 1,2.1395970929,7.0172630121\H,0,6.2815321829,2.5199147853,6.0375914498
 \N,0,7.4517592224,0.9625330171,8.61211084\H,0,8.3107900165,0.508418694
 2,8.8845148673\H,0,6.82436828,1.2331612967,9.354760529\N,0,8.375656736
 9,1.5377347019,6.5404434549\H,0,8.1760715364,1.8594515322,5.5777729155
 \H,0,9.3237776113,1.3868390798,6.8499375173\C,0,7.3482434559,1.5586855
 044,7.4001581877\O,0,6.5815932931,1.0446444133,2.8210700364\H,0,2.6753
 285101,1.2091006329,-3.4408663504\\Version=ES64L-G16RevC.01\HF=-2166.2
 785617\RMSD=6.109e-09\Dipole=2.6740309,-4.2127483,2.8982184\Quadrupole
 =5.0562128,-57.8573163,52.8011035,-16.0229791,61.3280426,42.0370932\PG
 =C01 [X(C25H39N8O10)]\\@
 The archive entry for this job was punched.


 ORIGINALITY CONSISTS NOT IN SAYING WHAT NO ONE HAS EVER SAID BEFORE, 
 BUT IN SAYING WHAT YOU THINK YOUR SELF.

                                    -- JAMES F. STEPHEN
 Job cpu time:       0 days  0 hours  1 minutes 38.6 seconds.
 Elapsed time:       0 days  0 hours  0 minutes 25.2 seconds.
 File lengths (MBytes):  RWF=    384 Int=      0 D2E=      0 Chk=     56 Scr=     16
 Normal termination of Gaussian 16 at Thu May 26 21:35:14 2022.
