 Entering Gaussian System, Link 0=/opt/software/Gaussian/g16-AVX2-C.01/g16/g16
 Input=charge-conf-727.com
 Output=charge-conf-727.log
 Initial command:
 /opt/software/Gaussian/g16-AVX2-C.01/g16/l1.exe "/mnt/gs18/scratch/users/kengmith/Gau-101024.inp" -scrdir="/mnt/gs18/scratch/users/kengmith/"
 Entering Link 1 = /opt/software/Gaussian/g16-AVX2-C.01/g16/l1.exe PID=    101034.
  
 Copyright (c) 1988-2019, Gaussian, Inc.  All Rights Reserved.
  
 This is part of the Gaussian(R) 16 program.  It is based on
 the Gaussian(R) 09 system (copyright 2009, Gaussian, Inc.),
 the Gaussian(R) 03 system (copyright 2003, Gaussian, Inc.),
 the Gaussian(R) 98 system (copyright 1998, Gaussian, Inc.),
 the Gaussian(R) 94 system (copyright 1995, Gaussian, Inc.),
 the Gaussian 92(TM) system (copyright 1992, Gaussian, Inc.),
 the Gaussian 90(TM) system (copyright 1990, Gaussian, Inc.),
 the Gaussian 88(TM) system (copyright 1988, Gaussian, Inc.),
 the Gaussian 86(TM) system (copyright 1986, Carnegie Mellon
 University), and the Gaussian 82(TM) system (copyright 1983,
 Carnegie Mellon University). Gaussian is a federally registered
 trademark of Gaussian, Inc.
  
 This software contains proprietary and confidential information,
 including trade secrets, belonging to Gaussian, Inc.
  
 This software is provided under written license and may be
 used, copied, transmitted, or stored only in accord with that
 written license.
  
 The following legend is applicable only to US Government
 contracts under FAR:
  
                    RESTRICTED RIGHTS LEGEND
  
 Use, reproduction and disclosure by the US Government is
 subject to restrictions as set forth in subparagraphs (a)
 and (c) of the Commercial Computer Software - Restricted
 Rights clause in FAR 52.227-19.
  
 Gaussian, Inc.
 340 Quinnipiac St., Bldg. 40, Wallingford CT 06492
  
  
 ---------------------------------------------------------------
 Warning -- This program may not be used in any manner that
 competes with the business of Gaussian, Inc. or will provide
 assistance to any competitor of Gaussian, Inc.  The licensee
 of this program is prohibited from giving any competitor of
 Gaussian, Inc. access to this program.  By using this program,
 the user acknowledges that Gaussian, Inc. is engaged in the
 business of creating and licensing software in the field of
 computational chemistry and represents and warrants to the
 licensee that it is not a competitor of Gaussian, Inc. and that
 it will not use this program in any manner prohibited above.
 ---------------------------------------------------------------
  

 Cite this work as:
 Gaussian 16, Revision C.01,
 M. J. Frisch, G. W. Trucks, H. B. Schlegel, G. E. Scuseria, 
 M. A. Robb, J. R. Cheeseman, G. Scalmani, V. Barone, 
 G. A. Petersson, H. Nakatsuji, X. Li, M. Caricato, A. V. Marenich, 
 J. Bloino, B. G. Janesko, R. Gomperts, B. Mennucci, H. P. Hratchian, 
 J. V. Ortiz, A. F. Izmaylov, J. L. Sonnenberg, D. Williams-Young, 
 F. Ding, F. Lipparini, F. Egidi, J. Goings, B. Peng, A. Petrone, 
 T. Henderson, D. Ranasinghe, V. G. Zakrzewski, J. Gao, N. Rega, 
 G. Zheng, W. Liang, M. Hada, M. Ehara, K. Toyota, R. Fukuda, 
 J. Hasegawa, M. Ishida, T. Nakajima, Y. Honda, O. Kitao, H. Nakai, 
 T. Vreven, K. Throssell, J. A. Montgomery, Jr., J. E. Peralta, 
 F. Ogliaro, M. J. Bearpark, J. J. Heyd, E. N. Brothers, K. N. Kudin, 
 V. N. Staroverov, T. A. Keith, R. Kobayashi, J. Normand, 
 K. Raghavachari, A. P. Rendell, J. C. Burant, S. S. Iyengar, 
 J. Tomasi, M. Cossi, J. M. Millam, M. Klene, C. Adamo, R. Cammi, 
 J. W. Ochterski, R. L. Martin, K. Morokuma, O. Farkas, 
 J. B. Foresman, and D. J. Fox, Gaussian, Inc., Wallingford CT, 2019.
 
 ******************************************
 Gaussian 16:  ES64L-G16RevC.01  3-Jul-2019
                17-Jun-2022 
 ******************************************
 %mem=8gb
 %nproc=4
 Will use up to    4 processors via shared memory.
 %chk=conf-727.chk
 ----------------------------------------------------------------------
 # B3LYP/6-31G* empiricaldispersion=gd3 guess=read geom=check nosymm in
 tegral(ultrafinegrid)
 ----------------------------------------------------------------------
 1/29=2,38=1,172=1/1;
 2/12=2,15=1,40=1/2;
 3/5=1,6=6,7=1,11=2,14=-4,25=1,30=1,74=-5,75=-5,116=-2,124=31/1,2,3;
 4/5=1/1;
 5/5=2,38=6/2;
 6/7=2,8=2,9=2,10=2,28=1/1;
 99/5=1,9=1/99;
 ------------------------------------------------------
 Candidate Structure: Conf:727 Charge calc in gas phase
 ------------------------------------------------------
 Structure from the checkpoint file:  "conf-727.chk"
 Charge =  1 Multiplicity = 1
 Redundant internal coordinates found in file.  (old form).
 N,0,-5.0970980232,-1.3380081491,4.7569720293
 H,0,-5.9952871128,-1.7451894591,4.4996796831
 H,0,-4.4102867014,-2.0604063442,4.5382198962
 C,0,-4.8281779529,-0.19652755,3.8944846833
 H,0,-5.6895518099,0.4826295956,3.9443076885
 C,0,-4.6082060711,-0.5920371545,2.419707839
 C,0,-3.5953027993,0.5966543936,4.424996117
 H,0,-3.8682200767,0.967331523,5.4179879028
 H,0,-3.4176906683,1.4653421036,3.7803687311
 O,0,-4.329868157,-1.7394361312,2.0909272408
 C,0,-2.3344526032,-0.2346465696,4.5152541399
 C,0,-2.0597859897,-0.9996064865,5.6557549492
 H,0,-2.7601864091,-0.9794856917,6.4857615855
 C,0,-1.433152801,-0.2864747238,3.4411355259
 H,0,-1.6546538851,0.3022722411,2.5560409246
 C,0,-0.9116136228,-1.7924189006,5.7258787764
 H,0,-0.715261767,-2.3776037159,6.6201610271
 C,0,-0.2880433788,-1.0830743869,3.506700831
 H,0,0.3932831508,-1.1341736879,2.6594051522
 C,0,-0.0207371918,-1.8364823268,4.6530666824
 H,0,0.8696834557,-2.4569237546,4.7055473543
 N,0,-4.7425361783,0.4317770429,1.5120121496
 H,0,-4.7469326288,1.3728331478,1.8874275419
 C,0,-4.1828805276,0.3202911924,0.1767911769
 H,0,-3.9778275213,-0.7422361744,0.0215437372
 C,0,-2.8441007689,1.0712480834,0.1448509805
 C,0,-5.1496547072,0.8298610632,-0.9102717266
 H,0,-5.2792268681,1.9148905885,-0.7909243292
 H,0,-4.6807304452,0.6812418408,-1.8937991219
 O,0,-2.5038662261,1.8507460519,1.0386249631
 C,0,-6.527690646,0.1423334715,-0.8957549003
 H,0,-6.9986390482,0.3741276931,0.0688485423
 C,0,-7.4073991955,0.7202902067,-2.0131806323
 H,0,-6.9837835523,0.4958237625,-3.0009285122
 H,0,-8.4149604983,0.2911909855,-1.9794049838
 H,0,-7.5027751465,1.8096969091,-1.929222091
 C,0,-6.4162104487,-1.3850543751,-1.0123792062
 H,0,-5.8712592938,-1.6687907383,-1.9234300566
 H,0,-5.9017989102,-1.8277342658,-0.1527587186
 H,0,-7.41197646,-1.8385759666,-1.0709859583
 N,0,-2.0257255568,0.8089991357,-0.9060388779
 H,0,-2.2946359354,0.2137726174,-1.6808264293
 C,0,-0.7192005913,1.4214833566,-0.9623573184
 H,0,-0.8228803014,2.4840397056,-0.7161405349
 C,0,-0.1726713471,1.2864688328,-2.3890140642
 C,0,0.258877163,0.7714149766,0.0734378439
 H,0,-0.3362129047,0.2608975698,0.8290216894
 H,0,0.8809927987,0.0160092867,-0.4211665519
 O,0,-0.7493762226,0.6465425365,-3.2600002569
 C,0,1.1880057554,1.7969362925,0.7050721976
 N,0,1.2168666361,1.8319613911,2.0506976173
 H,0,1.7903947208,2.5338221304,2.4999884567
 H,0,0.5713355594,1.3023683231,2.6243484451
 O,0,1.8899472356,2.5499831158,0.0102423614
 N,0,1.0160474428,1.9317356983,-2.5644236994
 H,0,1.4657976506,2.299593854,-1.7136977638
 C,0,1.8160813265,1.7289384605,-3.7501723388
 H,0,1.1728797923,1.1990118274,-4.4659815234
 C,0,2.9790099133,0.7710011611,-3.4633236475
 C,0,2.285251249,3.0538406187,-4.3664884265
 H,0,1.3918873295,3.5797656782,-4.7137189386
 H,0,2.8746307585,2.8273465508,-5.2629955835
 O,0,4.1388021675,0.9185072987,-3.8366468809
 C,0,3.0814433415,3.961875711,-3.3890772001
 H,0,2.4621078488,4.8011348288,-3.0611590152
 H,0,3.3557847397,3.4209764733,-2.4747637533
 C,0,4.3642920078,4.5305531084,-4.0044898392
 H,0,4.1345951677,5.086882086,-4.9233515865
 H,0,4.8565662934,5.2109816553,-3.2991633163
 N,0,5.2694723761,3.4140624421,-4.312967346
 H,0,4.8624952352,2.4719492747,-4.227969007
 N,0,7.1367816905,4.678583141,-4.8895144651
 H,0,8.1422355307,4.7716660063,-4.9001703262
 H,0,6.5942766229,5.5284403159,-4.9307876501
 N,0,7.3019593204,2.3753509236,-4.6516380189
 H,0,8.1540595856,2.3419994265,-5.193526832
 H,0,6.865541467,1.4877621162,-4.4366203965
 C,0,6.5522316029,3.4978255359,-4.6220113043
 O,0,2.5948308366,-0.2970748614,-2.7650143163
 H,0,3.3685228487,-0.8809680958,-2.6445443969
 Recover connectivity data from disk.
                           ----------------------------
                           !    Current Parameters    !
                           ! (Angstroms and Degrees)  !
 --------------------------                            --------------------------
 ! Name  Definition              Value                                          !
 --------------------------------------------------------------------------------
 ! R1    R(1,2)                  1.0192                                         !
 ! R2    R(1,3)                  1.0205                                         !
 ! R3    R(1,4)                  1.4557                                         !
 ! R4    R(4,5)                  1.098                                          !
 ! R5    R(4,6)                  1.5427                                         !
 ! R6    R(4,7)                  1.559                                          !
 ! R7    R(6,10)                 1.2256                                         !
 ! R8    R(6,22)                 1.3748                                         !
 ! R9    R(7,8)                  1.0945                                         !
 ! R10   R(7,9)                  1.0962                                         !
 ! R11   R(7,11)                 1.5129                                         !
 ! R12   R(11,12)                1.4005                                         !
 ! R13   R(11,14)                1.4031                                         !
 ! R14   R(12,13)                1.0862                                         !
 ! R15   R(12,16)                1.3971                                         !
 ! R16   R(14,15)                1.0859                                         !
 ! R17   R(14,18)                1.3965                                         !
 ! R18   R(16,17)                1.0866                                         !
 ! R19   R(16,20)                1.3952                                         !
 ! R20   R(18,19)                1.0885                                         !
 ! R21   R(18,20)                1.3976                                         !
 ! R22   R(20,21)                1.0865                                         !
 ! R23   R(22,23)                1.0132                                         !
 ! R24   R(22,24)                1.4521                                         !
 ! R25   R(24,25)                1.0932                                         !
 ! R26   R(24,26)                1.5353                                         !
 ! R27   R(24,27)                1.5414                                         !
 ! R28   R(26,30)                1.2338                                         !
 ! R29   R(26,41)                1.3575                                         !
 ! R30   R(27,28)                1.0992                                         !
 ! R31   R(27,29)                1.0997                                         !
 ! R32   R(27,31)                1.5401                                         !
 ! R33   R(31,32)                1.0982                                         !
 ! R34   R(31,33)                1.5351                                         !
 ! R35   R(31,37)                1.5359                                         !
 ! R36   R(33,34)                1.0979                                         !
 ! R37   R(33,35)                1.0956                                         !
 ! R38   R(33,36)                1.0968                                         !
 ! R39   R(37,38)                1.0989                                         !
 ! R40   R(37,39)                1.0952                                         !
 ! R41   R(37,40)                1.0957                                         !
 ! R42   R(41,42)                1.0134                                         !
 ! R43   R(41,43)                1.4441                                         !
 ! R44   R(43,44)                1.0956                                         !
 ! R45   R(43,45)                1.5337                                         !
 ! R46   R(43,46)                1.5659                                         !
 ! R47   R(45,49)                1.225                                          !
 ! R48   R(45,55)                1.3639                                         !
 ! R49   R(46,47)                1.0889                                         !
 ! R50   R(46,48)                1.0965                                         !
 ! R51   R(46,50)                1.5212                                         !
 ! R52   R(50,51)                1.3464                                         !
 ! R53   R(50,54)                1.242                                          !
 ! R54   R(51,52)                1.0116                                         !
 ! R55   R(51,53)                1.013                                          !
 ! R56   R(55,56)                1.0302                                         !
 ! R57   R(55,57)                1.4447                                         !
 ! R58   R(57,58)                1.0986                                         !
 ! R59   R(57,59)                1.5337                                         !
 ! R60   R(57,60)                1.5347                                         !
 ! R61   R(59,63)                1.2273                                         !
 ! R62   R(59,79)                1.3327                                         !
 ! R63   R(60,61)                1.0933                                         !
 ! R64   R(60,62)                1.0965                                         !
 ! R65   R(60,64)                1.5536                                         !
 ! R66   R(64,65)                1.0934                                         !
 ! R67   R(64,66)                1.0972                                         !
 ! R68   R(64,67)                1.5323                                         !
 ! R69   R(67,68)                1.0984                                         !
 ! R70   R(67,69)                1.0967                                         !
 ! R71   R(67,70)                1.4701                                         !
 ! R72   R(70,71)                1.0298                                         !
 ! R73   R(70,78)                1.3221                                         !
 ! R74   R(72,73)                1.0098                                         !
 ! R75   R(72,74)                1.0091                                         !
 ! R76   R(72,78)                1.3444                                         !
 ! R77   R(75,76)                1.0104                                         !
 ! R78   R(75,77)                1.0122                                         !
 ! R79   R(75,78)                1.3502                                         !
 ! R80   R(79,80)                0.9768                                         !
 ! A1    A(2,1,3)              104.844                                          !
 ! A2    A(2,1,4)              109.0565                                         !
 ! A3    A(3,1,4)              107.6825                                         !
 ! A4    A(1,4,5)              108.2519                                         !
 ! A5    A(1,4,6)              113.0609                                         !
 ! A6    A(1,4,7)              110.0849                                         !
 ! A7    A(5,4,6)              108.2892                                         !
 ! A8    A(5,4,7)              106.8718                                         !
 ! A9    A(6,4,7)              110.059                                          !
 ! A10   A(4,6,10)             121.9288                                         !
 ! A11   A(4,6,22)             115.2341                                         !
 ! A12   A(10,6,22)            122.8367                                         !
 ! A13   A(4,7,8)              106.4897                                         !
 ! A14   A(4,7,9)              109.3411                                         !
 ! A15   A(4,7,11)             113.565                                          !
 ! A16   A(8,7,9)              107.7901                                         !
 ! A17   A(8,7,11)             109.863                                          !
 ! A18   A(9,7,11)             109.6012                                         !
 ! A19   A(7,11,12)            120.8074                                         !
 ! A20   A(7,11,14)            120.6607                                         !
 ! A21   A(12,11,14)           118.5063                                         !
 ! A22   A(11,12,13)           119.058                                          !
 ! A23   A(11,12,16)           120.799                                          !
 ! A24   A(13,12,16)           120.1384                                         !
 ! A25   A(11,14,15)           118.2244                                         !
 ! A26   A(11,14,18)           120.7876                                         !
 ! A27   A(15,14,18)           120.986                                          !
 ! A28   A(12,16,17)           119.6982                                         !
 ! A29   A(12,16,20)           120.2723                                         !
 ! A30   A(17,16,20)           120.0294                                         !
 ! A31   A(14,18,19)           120.233                                          !
 ! A32   A(14,18,20)           120.1892                                         !
 ! A33   A(19,18,20)           119.5699                                         !
 ! A34   A(16,20,18)           119.4438                                         !
 ! A35   A(16,20,21)           120.277                                          !
 ! A36   A(18,20,21)           120.2777                                         !
 ! A37   A(6,22,23)            116.581                                          !
 ! A38   A(6,22,24)            120.8151                                         !
 ! A39   A(23,22,24)           114.4376                                         !
 ! A40   A(22,24,25)           106.1111                                         !
 ! A41   A(22,24,26)           108.5212                                         !
 ! A42   A(22,24,27)           112.4186                                         !
 ! A43   A(25,24,26)           107.9914                                         !
 ! A44   A(25,24,27)           109.8035                                         !
 ! A45   A(26,24,27)           111.7484                                         !
 ! A46   A(24,26,30)           122.3039                                         !
 ! A47   A(24,26,41)           116.5692                                         !
 ! A48   A(30,26,41)           121.1042                                         !
 ! A49   A(24,27,28)           108.885                                          !
 ! A50   A(24,27,29)           108.5792                                         !
 ! A51   A(24,27,31)           114.0146                                         !
 ! A52   A(28,27,29)           106.3061                                         !
 ! A53   A(28,27,31)           109.5212                                         !
 ! A54   A(29,27,31)           109.2472                                         !
 ! A55   A(27,31,32)           107.324                                          !
 ! A56   A(27,31,33)           109.7443                                         !
 ! A57   A(27,31,37)           112.2277                                         !
 ! A58   A(32,31,33)           108.3099                                         !
 ! A59   A(32,31,37)           107.9225                                         !
 ! A60   A(33,31,37)           111.1451                                         !
 ! A61   A(31,33,34)           110.9027                                         !
 ! A62   A(31,33,35)           110.9221                                         !
 ! A63   A(31,33,36)           111.5966                                         !
 ! A64   A(34,33,35)           107.6061                                         !
 ! A65   A(34,33,36)           107.7872                                         !
 ! A66   A(35,33,36)           107.8589                                         !
 ! A67   A(31,37,38)           110.8383                                         !
 ! A68   A(31,37,39)           112.1137                                         !
 ! A69   A(31,37,40)           110.4691                                         !
 ! A70   A(38,37,39)           108.2665                                         !
 ! A71   A(38,37,40)           107.425                                          !
 ! A72   A(39,37,40)           107.5486                                         !
 ! A73   A(26,41,42)           123.0498                                         !
 ! A74   A(26,41,43)           119.5828                                         !
 ! A75   A(42,41,43)           117.3485                                         !
 ! A76   A(41,43,44)           108.4789                                         !
 ! A77   A(41,43,45)           108.7443                                         !
 ! A78   A(41,43,46)           111.2994                                         !
 ! A79   A(44,43,45)           109.1557                                         !
 ! A80   A(44,43,46)           108.244                                          !
 ! A81   A(45,43,46)           110.8653                                         !
 ! A82   A(43,45,49)           122.6558                                         !
 ! A83   A(43,45,55)           112.8651                                         !
 ! A84   A(49,45,55)           124.472                                          !
 ! A85   A(43,46,47)           108.1963                                         !
 ! A86   A(43,46,48)           109.9993                                         !
 ! A87   A(43,46,50)           112.1045                                         !
 ! A88   A(47,46,48)           107.4624                                         !
 ! A89   A(47,46,50)           111.2084                                         !
 ! A90   A(48,46,50)           107.7706                                         !
 ! A91   A(46,50,51)           116.4634                                         !
 ! A92   A(46,50,54)           121.444                                          !
 ! A93   A(51,50,54)           122.0889                                         !
 ! A94   A(50,51,52)           118.2989                                         !
 ! A95   A(50,51,53)           122.5942                                         !
 ! A96   A(52,51,53)           118.1944                                         !
 ! A97   A(45,55,56)           116.3097                                         !
 ! A98   A(45,55,57)           121.4525                                         !
 ! A99   A(56,55,57)           119.0866                                         !
 ! A100  A(55,57,58)           106.1569                                         !
 ! A101  A(55,57,59)           110.7357                                         !
 ! A102  A(55,57,60)           112.1919                                         !
 ! A103  A(58,57,59)           105.338                                          !
 ! A104  A(58,57,60)           109.4964                                         !
 ! A105  A(59,57,60)           112.4889                                         !
 ! A106  A(57,59,63)           125.773                                          !
 ! A107  A(57,59,79)           112.3331                                         !
 ! A108  A(63,59,79)           121.8797                                         !
 ! A109  A(57,60,61)           107.0394                                         !
 ! A110  A(57,60,62)           108.3201                                         !
 ! A111  A(57,60,64)           114.1158                                         !
 ! A112  A(61,60,62)           106.1947                                         !
 ! A113  A(61,60,64)           109.7194                                         !
 ! A114  A(62,60,64)           111.0771                                         !
 ! A115  A(60,64,65)           110.3049                                         !
 ! A116  A(60,64,66)           111.3624                                         !
 ! A117  A(60,64,67)           113.1595                                         !
 ! A118  A(65,64,66)           105.6715                                         !
 ! A119  A(65,64,67)           108.0484                                         !
 ! A120  A(66,64,67)           107.9581                                         !
 ! A121  A(64,67,68)           110.4183                                         !
 ! A122  A(64,67,69)           110.3501                                         !
 ! A123  A(64,67,70)           108.5374                                         !
 ! A124  A(68,67,69)           108.5189                                         !
 ! A125  A(68,67,70)           109.7481                                         !
 ! A126  A(69,67,70)           109.2549                                         !
 ! A127  A(67,70,71)           115.7323                                         !
 ! A128  A(67,70,78)           126.7517                                         !
 ! A129  A(71,70,78)           117.4324                                         !
 ! A130  A(73,72,74)           117.2087                                         !
 ! A131  A(73,72,78)           121.0631                                         !
 ! A132  A(74,72,78)           120.9347                                         !
 ! A133  A(76,75,77)           116.6549                                         !
 ! A134  A(76,75,78)           120.4989                                         !
 ! A135  A(77,75,78)           119.0091                                         !
 ! A136  A(70,78,72)           121.6015                                         !
 ! A137  A(70,78,75)           119.4206                                         !
 ! A138  A(72,78,75)           118.9705                                         !
 ! A139  A(59,79,80)           108.384                                          !
 ! D1    D(2,1,4,5)             53.4134                                         !
 ! D2    D(2,1,4,6)            -66.556                                          !
 ! D3    D(2,1,4,7)            169.8996                                         !
 ! D4    D(3,1,4,5)            166.655                                          !
 ! D5    D(3,1,4,6)             46.6856                                         !
 ! D6    D(3,1,4,7)            -76.8589                                         !
 ! D7    D(1,4,6,10)           -18.5389                                         !
 ! D8    D(1,4,6,22)           161.6679                                         !
 ! D9    D(5,4,6,10)          -138.4869                                         !
 ! D10   D(5,4,6,22)            41.7199                                         !
 ! D11   D(7,4,6,10)           105.0198                                         !
 ! D12   D(7,4,6,22)           -74.7734                                         !
 ! D13   D(1,4,7,8)            -62.5234                                         !
 ! D14   D(1,4,7,9)           -178.7293                                         !
 ! D15   D(1,4,7,11)            58.5207                                         !
 ! D16   D(5,4,7,8)             54.8231                                         !
 ! D17   D(5,4,7,9)            -61.3828                                         !
 ! D18   D(5,4,7,11)           175.8672                                         !
 ! D19   D(6,4,7,8)            172.2002                                         !
 ! D20   D(6,4,7,9)             55.9944                                         !
 ! D21   D(6,4,7,11)           -66.7557                                         !
 ! D22   D(4,6,22,23)           14.3458                                         !
 ! D23   D(4,6,22,24)          161.1794                                         !
 ! D24   D(10,6,22,23)        -165.4453                                         !
 ! D25   D(10,6,22,24)         -18.6117                                         !
 ! D26   D(4,7,11,12)          -86.3266                                         !
 ! D27   D(4,7,11,14)           91.8032                                         !
 ! D28   D(8,7,11,12)           32.8056                                         !
 ! D29   D(8,7,11,14)         -149.0646                                         !
 ! D30   D(9,7,11,12)          151.0667                                         !
 ! D31   D(9,7,11,14)          -30.8035                                         !
 ! D32   D(7,11,12,13)          -0.7882                                         !
 ! D33   D(7,11,12,16)         178.4393                                         !
 ! D34   D(14,11,12,13)       -178.9575                                         !
 ! D35   D(14,11,12,16)          0.27                                           !
 ! D36   D(7,11,14,15)           1.3479                                         !
 ! D37   D(7,11,14,18)        -178.1438                                         !
 ! D38   D(12,11,14,15)        179.52                                           !
 ! D39   D(12,11,14,18)          0.0282                                         !
 ! D40   D(11,12,16,17)        179.9024                                         !
 ! D41   D(11,12,16,20)         -0.2193                                         !
 ! D42   D(13,12,16,17)         -0.8784                                         !
 ! D43   D(13,12,16,20)        178.9999                                         !
 ! D44   D(11,14,18,19)        178.6015                                         !
 ! D45   D(11,14,18,20)         -0.379                                          !
 ! D46   D(15,14,18,19)         -0.8762                                         !
 ! D47   D(15,14,18,20)       -179.8567                                         !
 ! D48   D(12,16,20,18)         -0.1332                                         !
 ! D49   D(12,16,20,21)       -179.6916                                         !
 ! D50   D(17,16,20,18)        179.7447                                         !
 ! D51   D(17,16,20,21)          0.1863                                         !
 ! D52   D(14,18,20,16)          0.4292                                         !
 ! D53   D(14,18,20,21)        179.9876                                         !
 ! D54   D(19,18,20,16)       -178.5581                                         !
 ! D55   D(19,18,20,21)          1.0003                                         !
 ! D56   D(6,22,24,25)          16.6487                                         !
 ! D57   D(6,22,24,26)         -99.1892                                         !
 ! D58   D(6,22,24,27)         136.691                                          !
 ! D59   D(23,22,24,25)        164.1424                                         !
 ! D60   D(23,22,24,26)         48.3045                                         !
 ! D61   D(23,22,24,27)        -75.8153                                         !
 ! D62   D(22,24,26,30)        -13.8599                                         !
 ! D63   D(22,24,26,41)        164.4267                                         !
 ! D64   D(25,24,26,30)       -128.4737                                         !
 ! D65   D(25,24,26,41)         49.8129                                         !
 ! D66   D(27,24,26,30)        110.6582                                         !
 ! D67   D(27,24,26,41)        -71.0552                                         !
 ! D68   D(22,24,27,28)         66.8052                                         !
 ! D69   D(22,24,27,29)       -177.8513                                         !
 ! D70   D(22,24,27,31)        -55.8133                                         !
 ! D71   D(25,24,27,28)       -175.3154                                         !
 ! D72   D(25,24,27,29)        -59.9719                                         !
 ! D73   D(25,24,27,31)         62.0662                                         !
 ! D74   D(26,24,27,28)        -55.5072                                         !
 ! D75   D(26,24,27,29)         59.8362                                         !
 ! D76   D(26,24,27,31)       -178.1257                                         !
 ! D77   D(24,26,41,42)          5.1008                                         !
 ! D78   D(24,26,41,43)       -176.5241                                         !
 ! D79   D(30,26,41,42)       -176.5906                                         !
 ! D80   D(30,26,41,43)          1.7845                                         !
 ! D81   D(24,27,31,32)         62.556                                          !
 ! D82   D(24,27,31,33)       -179.9538                                         !
 ! D83   D(24,27,31,37)        -55.849                                          !
 ! D84   D(28,27,31,32)        -59.714                                          !
 ! D85   D(28,27,31,33)         57.7763                                         !
 ! D86   D(28,27,31,37)       -178.1189                                         !
 ! D87   D(29,27,31,32)       -175.7744                                         !
 ! D88   D(29,27,31,33)        -58.2842                                         !
 ! D89   D(29,27,31,37)         65.8206                                         !
 ! D90   D(27,31,33,34)         64.1793                                         !
 ! D91   D(27,31,33,35)       -176.3062                                         !
 ! D92   D(27,31,33,36)        -56.0114                                         !
 ! D93   D(32,31,33,34)       -178.9475                                         !
 ! D94   D(32,31,33,35)        -59.4329                                         !
 ! D95   D(32,31,33,36)         60.8619                                         !
 ! D96   D(37,31,33,34)        -60.5538                                         !
 ! D97   D(37,31,33,35)         58.9608                                         !
 ! D98   D(37,31,33,36)        179.2556                                         !
 ! D99   D(27,31,37,38)        -57.0263                                         !
 ! D100  D(27,31,37,39)         64.0828                                         !
 ! D101  D(27,31,37,40)       -175.9791                                         !
 ! D102  D(32,31,37,38)       -175.0771                                         !
 ! D103  D(32,31,37,39)        -53.968                                          !
 ! D104  D(32,31,37,40)         65.9701                                         !
 ! D105  D(33,31,37,38)         66.2959                                         !
 ! D106  D(33,31,37,39)       -172.595                                          !
 ! D107  D(33,31,37,40)        -52.6569                                         !
 ! D108  D(26,41,43,44)        -45.8182                                         !
 ! D109  D(26,41,43,45)       -164.4223                                         !
 ! D110  D(26,41,43,46)         73.1663                                         !
 ! D111  D(42,41,43,44)        132.6485                                         !
 ! D112  D(42,41,43,45)         14.0444                                         !
 ! D113  D(42,41,43,46)       -108.3671                                         !
 ! D114  D(41,43,45,49)         -5.8265                                         !
 ! D115  D(41,43,45,55)        175.1072                                         !
 ! D116  D(44,43,45,49)       -124.0039                                         !
 ! D117  D(44,43,45,55)         56.9298                                         !
 ! D118  D(46,43,45,49)        116.8473                                         !
 ! D119  D(46,43,45,55)        -62.219                                          !
 ! D120  D(41,43,46,47)        -19.6014                                         !
 ! D121  D(41,43,46,48)         97.514                                          !
 ! D122  D(41,43,46,50)       -142.5932                                         !
 ! D123  D(44,43,46,47)         99.5234                                         !
 ! D124  D(44,43,46,48)       -143.3613                                         !
 ! D125  D(44,43,46,50)        -23.4684                                         !
 ! D126  D(45,43,46,47)       -140.7806                                         !
 ! D127  D(45,43,46,48)        -23.6653                                         !
 ! D128  D(45,43,46,50)         96.2276                                         !
 ! D129  D(43,45,55,56)          8.811                                          !
 ! D130  D(43,45,55,57)        168.5527                                         !
 ! D131  D(49,45,55,56)       -170.2355                                         !
 ! D132  D(49,45,55,57)        -10.4938                                         !
 ! D133  D(43,46,50,51)        126.7264                                         !
 ! D134  D(43,46,50,54)        -53.9609                                         !
 ! D135  D(47,46,50,51)          5.4521                                         !
 ! D136  D(47,46,50,54)       -175.2352                                         !
 ! D137  D(48,46,50,51)       -112.0884                                         !
 ! D138  D(48,46,50,54)         67.2243                                         !
 ! D139  D(46,50,51,52)       -177.0296                                         !
 ! D140  D(46,50,51,53)         -8.1694                                         !
 ! D141  D(54,50,51,52)          3.6625                                         !
 ! D142  D(54,50,51,53)        172.5228                                         !
 ! D143  D(45,55,57,58)         12.5204                                         !
 ! D144  D(45,55,57,59)       -101.317                                          !
 ! D145  D(45,55,57,60)        132.0881                                         !
 ! D146  D(56,55,57,58)        171.7161                                         !
 ! D147  D(56,55,57,59)         57.8787                                         !
 ! D148  D(56,55,57,60)        -68.7162                                         !
 ! D149  D(55,57,59,63)       -136.3603                                         !
 ! D150  D(55,57,59,79)         44.9958                                         !
 ! D151  D(58,57,59,63)        109.2859                                         !
 ! D152  D(58,57,59,79)        -69.358                                          !
 ! D153  D(60,57,59,63)         -9.9303                                         !
 ! D154  D(60,57,59,79)        171.4258                                         !
 ! D155  D(55,57,60,61)        -65.2922                                         !
 ! D156  D(55,57,60,62)       -179.4192                                         !
 ! D157  D(55,57,60,64)         56.2985                                         !
 ! D158  D(58,57,60,61)         52.3039                                         !
 ! D159  D(58,57,60,62)        -61.823                                          !
 ! D160  D(58,57,60,64)        173.8947                                         !
 ! D161  D(59,57,60,61)        169.0648                                         !
 ! D162  D(59,57,60,62)         54.9378                                         !
 ! D163  D(59,57,60,64)        -69.3445                                         !
 ! D164  D(57,59,79,80)        177.9059                                         !
 ! D165  D(63,59,79,80)         -0.7983                                         !
 ! D166  D(57,60,64,65)       -105.3961                                         !
 ! D167  D(57,60,64,66)         11.604                                          !
 ! D168  D(57,60,64,67)        133.4339                                         !
 ! D169  D(61,60,64,65)         14.7034                                         !
 ! D170  D(61,60,64,66)        131.7034                                         !
 ! D171  D(61,60,64,67)       -106.4666                                         !
 ! D172  D(62,60,64,65)        131.811                                          !
 ! D173  D(62,60,64,66)       -111.1889                                         !
 ! D174  D(62,60,64,67)         10.641                                          !
 ! D175  D(60,64,67,68)         56.5759                                         !
 ! D176  D(60,64,67,69)        176.5459                                         !
 ! D177  D(60,64,67,70)        -63.7617                                         !
 ! D178  D(65,64,67,68)        -65.8598                                         !
 ! D179  D(65,64,67,69)         54.1101                                         !
 ! D180  D(65,64,67,70)        173.8026                                         !
 ! D181  D(66,64,67,68)       -179.7047                                         !
 ! D182  D(66,64,67,69)        -59.7347                                         !
 ! D183  D(66,64,67,70)         59.9577                                         !
 ! D184  D(64,67,70,71)          9.8093                                         !
 ! D185  D(64,67,70,78)       -166.7585                                         !
 ! D186  D(68,67,70,71)       -110.9436                                         !
 ! D187  D(68,67,70,78)         72.4887                                         !
 ! D188  D(69,67,70,71)        130.1838                                         !
 ! D189  D(69,67,70,78)        -46.3839                                         !
 ! D190  D(67,70,78,72)        -10.4531                                         !
 ! D191  D(67,70,78,75)        168.5503                                         !
 ! D192  D(71,70,78,72)        173.0306                                         !
 ! D193  D(71,70,78,75)         -7.9661                                         !
 ! D194  D(73,72,78,70)        164.7759                                         !
 ! D195  D(73,72,78,75)        -14.2318                                         !
 ! D196  D(74,72,78,70)         -4.7367                                         !
 ! D197  D(74,72,78,75)        176.2555                                         !
 ! D198  D(76,75,78,70)        157.2693                                         !
 ! D199  D(76,75,78,72)        -23.7009                                         !
 ! D200  D(77,75,78,70)          0.0539                                         !
 ! D201  D(77,75,78,72)        179.0837                                         !
 --------------------------------------------------------------------------------
 Symmetry turned off by external request.
 Stoichiometry    C25H41N8O6(1+)
 Framework group  C1[X(C25H41N8O6)]
 Deg. of freedom   234
 Full point group                 C1      NOp   1
                          Input orientation:                          
 ---------------------------------------------------------------------
 Center     Atomic      Atomic             Coordinates (Angstroms)
 Number     Number       Type             X           Y           Z
 ---------------------------------------------------------------------
      1          7           0       -5.097098   -1.338008    4.756972
      2          1           0       -5.995287   -1.745189    4.499680
      3          1           0       -4.410287   -2.060406    4.538220
      4          6           0       -4.828178   -0.196528    3.894485
      5          1           0       -5.689552    0.482630    3.944308
      6          6           0       -4.608206   -0.592037    2.419708
      7          6           0       -3.595303    0.596654    4.424996
      8          1           0       -3.868220    0.967332    5.417988
      9          1           0       -3.417691    1.465342    3.780369
     10          8           0       -4.329868   -1.739436    2.090927
     11          6           0       -2.334453   -0.234647    4.515254
     12          6           0       -2.059786   -0.999606    5.655755
     13          1           0       -2.760186   -0.979486    6.485762
     14          6           0       -1.433153   -0.286475    3.441136
     15          1           0       -1.654654    0.302272    2.556041
     16          6           0       -0.911614   -1.792419    5.725879
     17          1           0       -0.715262   -2.377604    6.620161
     18          6           0       -0.288043   -1.083074    3.506701
     19          1           0        0.393283   -1.134174    2.659405
     20          6           0       -0.020737   -1.836482    4.653067
     21          1           0        0.869683   -2.456924    4.705547
     22          7           0       -4.742536    0.431777    1.512012
     23          1           0       -4.746933    1.372833    1.887428
     24          6           0       -4.182881    0.320291    0.176791
     25          1           0       -3.977828   -0.742236    0.021544
     26          6           0       -2.844101    1.071248    0.144851
     27          6           0       -5.149655    0.829861   -0.910272
     28          1           0       -5.279227    1.914891   -0.790924
     29          1           0       -4.680730    0.681242   -1.893799
     30          8           0       -2.503866    1.850746    1.038625
     31          6           0       -6.527691    0.142333   -0.895755
     32          1           0       -6.998639    0.374128    0.068849
     33          6           0       -7.407399    0.720290   -2.013181
     34          1           0       -6.983784    0.495824   -3.000929
     35          1           0       -8.414960    0.291191   -1.979405
     36          1           0       -7.502775    1.809697   -1.929222
     37          6           0       -6.416210   -1.385054   -1.012379
     38          1           0       -5.871259   -1.668791   -1.923430
     39          1           0       -5.901799   -1.827734   -0.152759
     40          1           0       -7.411976   -1.838576   -1.070986
     41          7           0       -2.025726    0.808999   -0.906039
     42          1           0       -2.294636    0.213773   -1.680826
     43          6           0       -0.719201    1.421483   -0.962357
     44          1           0       -0.822880    2.484040   -0.716141
     45          6           0       -0.172671    1.286469   -2.389014
     46          6           0        0.258877    0.771415    0.073438
     47          1           0       -0.336213    0.260898    0.829022
     48          1           0        0.880993    0.016009   -0.421167
     49          8           0       -0.749376    0.646543   -3.260000
     50          6           0        1.188006    1.796936    0.705072
     51          7           0        1.216867    1.831961    2.050698
     52          1           0        1.790395    2.533822    2.499988
     53          1           0        0.571336    1.302368    2.624348
     54          8           0        1.889947    2.549983    0.010242
     55          7           0        1.016047    1.931736   -2.564424
     56          1           0        1.465798    2.299594   -1.713698
     57          6           0        1.816081    1.728938   -3.750172
     58          1           0        1.172880    1.199012   -4.465982
     59          6           0        2.979010    0.771001   -3.463324
     60          6           0        2.285251    3.053841   -4.366488
     61          1           0        1.391887    3.579766   -4.713719
     62          1           0        2.874631    2.827347   -5.262996
     63          8           0        4.138802    0.918507   -3.836647
     64          6           0        3.081443    3.961876   -3.389077
     65          1           0        2.462108    4.801135   -3.061159
     66          1           0        3.355785    3.420976   -2.474764
     67          6           0        4.364292    4.530553   -4.004490
     68          1           0        4.134595    5.086882   -4.923352
     69          1           0        4.856566    5.210982   -3.299163
     70          7           0        5.269472    3.414062   -4.312967
     71          1           0        4.862495    2.471949   -4.227969
     72          7           0        7.136782    4.678583   -4.889514
     73          1           0        8.142236    4.771666   -4.900170
     74          1           0        6.594277    5.528440   -4.930788
     75          7           0        7.301959    2.375351   -4.651638
     76          1           0        8.154060    2.341999   -5.193527
     77          1           0        6.865541    1.487762   -4.436620
     78          6           0        6.552232    3.497826   -4.622011
     79          8           0        2.594831   -0.297075   -2.765014
     80          1           0        3.368523   -0.880968   -2.644544
 ---------------------------------------------------------------------
 Rotational constants (GHZ):           0.1470934           0.0384100           0.0328528
 Standard basis: 6-31G(d) (6D, 7F)
   667 basis functions,  1256 primitive gaussians,   667 cartesian basis functions
   147 alpha electrons      147 beta electrons
       nuclear repulsion energy      4594.3367761720 Hartrees.
 NAtoms=   80 NActive=   80 NUniq=   80 SFac= 1.00D+00 NAtFMM=   60 NAOKFM=T Big=T
 Integral buffers will be    131072 words long.
 Raffenetti 2 integral format.
 Two-electron integral symmetry is turned off.
 Nuclear repulsion after empirical dispersion term =     4594.2331323086 Hartrees.
 One-electron integrals computed using PRISM.
 NBasis=   667 RedAO= T EigKep=  4.34D-04  NBF=   667
 NBsUse=   667 1.00D-06 EigRej= -1.00D+00 NBFU=   667
 Initial guess from the checkpoint file:  "conf-727.chk"
 B after Tr=     0.000000    0.000000    0.000000
         Rot=    1.000000    0.000000    0.000000    0.000000 Ang=   0.00 deg.
 Requested convergence on RMS density matrix=1.00D-08 within 128 cycles.
 Requested convergence on MAX density matrix=1.00D-06.
 Requested convergence on             energy=1.00D-06.
 No special actions if energy rises.
 SCF Done:  E(RB3LYP) =  -1866.72614744     A.U. after    2 cycles
            NFock=  2  Conv=0.62D-08     -V/T= 2.0095

 **********************************************************************

            Population analysis using the SCF Density.

 **********************************************************************

 Alpha  occ. eigenvalues --  -19.32520 -19.28116 -19.21239 -19.21220 -19.19098
 Alpha  occ. eigenvalues --  -19.16828 -14.53136 -14.52472 -14.51583 -14.44671
 Alpha  occ. eigenvalues --  -14.44608 -14.43615 -14.41017 -14.35573 -10.48916
 Alpha  occ. eigenvalues --  -10.45469 -10.38610 -10.38050 -10.36828 -10.35860
 Alpha  occ. eigenvalues --  -10.35054 -10.33278 -10.32451 -10.31582 -10.30834
 Alpha  occ. eigenvalues --  -10.29038 -10.28666 -10.27317 -10.24672 -10.24663
 Alpha  occ. eigenvalues --  -10.24647 -10.24179 -10.24081 -10.24010 -10.23999
 Alpha  occ. eigenvalues --  -10.23798 -10.23597 -10.21925 -10.21494  -1.23956
 Alpha  occ. eigenvalues --   -1.17465  -1.14814  -1.13244  -1.12481  -1.11070
 Alpha  occ. eigenvalues --   -1.08489  -1.06586  -1.05787  -1.02596  -1.00253
 Alpha  occ. eigenvalues --   -0.99489  -0.97794  -0.93444  -0.92499  -0.90367
 Alpha  occ. eigenvalues --   -0.88590  -0.86527  -0.85437  -0.82683  -0.81738
 Alpha  occ. eigenvalues --   -0.80674  -0.79701  -0.79557  -0.77224  -0.76108
 Alpha  occ. eigenvalues --   -0.75533  -0.74519  -0.72701  -0.71867  -0.71201
 Alpha  occ. eigenvalues --   -0.70488  -0.68759  -0.68428  -0.66851  -0.66534
 Alpha  occ. eigenvalues --   -0.66084  -0.65691  -0.65677  -0.65026  -0.63868
 Alpha  occ. eigenvalues --   -0.62886  -0.62818  -0.62326  -0.61769  -0.61194
 Alpha  occ. eigenvalues --   -0.59895  -0.59197  -0.58494  -0.57941  -0.57157
 Alpha  occ. eigenvalues --   -0.56557  -0.55649  -0.55215  -0.54926  -0.54370
 Alpha  occ. eigenvalues --   -0.54117  -0.53733  -0.53570  -0.52724  -0.52475
 Alpha  occ. eigenvalues --   -0.51800  -0.51328  -0.51010  -0.50864  -0.50147
 Alpha  occ. eigenvalues --   -0.49965  -0.49203  -0.48861  -0.48046  -0.47602
 Alpha  occ. eigenvalues --   -0.47371  -0.46800  -0.46536  -0.46486  -0.46112
 Alpha  occ. eigenvalues --   -0.45954  -0.45792  -0.45667  -0.45157  -0.44944
 Alpha  occ. eigenvalues --   -0.44011  -0.43598  -0.43432  -0.43082  -0.42568
 Alpha  occ. eigenvalues --   -0.42442  -0.42053  -0.41767  -0.41278  -0.40976
 Alpha  occ. eigenvalues --   -0.40081  -0.38896  -0.38126  -0.37903  -0.37310
 Alpha  occ. eigenvalues --   -0.37168  -0.36220  -0.35962  -0.35036  -0.34786
 Alpha  occ. eigenvalues --   -0.33086  -0.32792  -0.31387  -0.30580  -0.30155
 Alpha  occ. eigenvalues --   -0.29625  -0.28084
 Alpha virt. eigenvalues --   -0.12976  -0.12604  -0.08665  -0.07268  -0.06396
 Alpha virt. eigenvalues --   -0.05832  -0.05467  -0.05218  -0.04794  -0.03962
 Alpha virt. eigenvalues --   -0.03475  -0.02788  -0.01823  -0.00974   0.00406
 Alpha virt. eigenvalues --    0.01083   0.01161   0.01594   0.02514   0.02769
 Alpha virt. eigenvalues --    0.03189   0.03369   0.03811   0.04571   0.05125
 Alpha virt. eigenvalues --    0.05455   0.05864   0.06140   0.06637   0.07598
 Alpha virt. eigenvalues --    0.07890   0.08323   0.08338   0.08632   0.09186
 Alpha virt. eigenvalues --    0.09213   0.09578   0.10295   0.10475   0.10838
 Alpha virt. eigenvalues --    0.10949   0.11298   0.11650   0.11740   0.12246
 Alpha virt. eigenvalues --    0.12518   0.12828   0.12982   0.13492   0.13930
 Alpha virt. eigenvalues --    0.14510   0.14740   0.15060   0.15156   0.15771
 Alpha virt. eigenvalues --    0.15863   0.16262   0.16718   0.17048   0.17273
 Alpha virt. eigenvalues --    0.17778   0.18548   0.18736   0.19469   0.19882
 Alpha virt. eigenvalues --    0.20769   0.21104   0.21625   0.22169   0.22233
 Alpha virt. eigenvalues --    0.23045   0.23365   0.24040   0.24337   0.25582
 Alpha virt. eigenvalues --    0.26520   0.27022   0.27590   0.28540   0.29095
 Alpha virt. eigenvalues --    0.30306   0.30892   0.31874   0.32667   0.33375
 Alpha virt. eigenvalues --    0.35112   0.36176   0.37212   0.37621   0.39320
 Alpha virt. eigenvalues --    0.40911   0.41285   0.41574   0.41980   0.42556
 Alpha virt. eigenvalues --    0.43454   0.44167   0.44700   0.45139   0.45864
 Alpha virt. eigenvalues --    0.46833   0.46907   0.47343   0.47781   0.48122
 Alpha virt. eigenvalues --    0.48181   0.48572   0.49262   0.49306   0.49511
 Alpha virt. eigenvalues --    0.50097   0.50215   0.50488   0.51026   0.51361
 Alpha virt. eigenvalues --    0.51889   0.52767   0.53004   0.53444   0.53596
 Alpha virt. eigenvalues --    0.54158   0.54297   0.54810   0.55071   0.55193
 Alpha virt. eigenvalues --    0.55636   0.55689   0.55936   0.56205   0.56753
 Alpha virt. eigenvalues --    0.57220   0.57480   0.57918   0.58025   0.58502
 Alpha virt. eigenvalues --    0.59036   0.59786   0.59862   0.60286   0.60741
 Alpha virt. eigenvalues --    0.61050   0.61664   0.61906   0.62188   0.62460
 Alpha virt. eigenvalues --    0.63678   0.64148   0.64864   0.65504   0.65903
 Alpha virt. eigenvalues --    0.66028   0.66586   0.67093   0.67546   0.67761
 Alpha virt. eigenvalues --    0.68058   0.68520   0.69130   0.69825   0.70697
 Alpha virt. eigenvalues --    0.70841   0.71288   0.71800   0.71975   0.72306
 Alpha virt. eigenvalues --    0.73051   0.73494   0.73876   0.74638   0.75335
 Alpha virt. eigenvalues --    0.75515   0.76188   0.76385   0.76778   0.77008
 Alpha virt. eigenvalues --    0.77802   0.78149   0.78596   0.78820   0.78959
 Alpha virt. eigenvalues --    0.79446   0.79596   0.80272   0.80413   0.81017
 Alpha virt. eigenvalues --    0.81182   0.81583   0.82009   0.82206   0.82680
 Alpha virt. eigenvalues --    0.82854   0.83197   0.84105   0.84274   0.84759
 Alpha virt. eigenvalues --    0.85156   0.85296   0.85483   0.85690   0.86465
 Alpha virt. eigenvalues --    0.86642   0.87659   0.87822   0.88129   0.88886
 Alpha virt. eigenvalues --    0.89038   0.89625   0.89783   0.90348   0.90643
 Alpha virt. eigenvalues --    0.91089   0.91455   0.91888   0.92353   0.92883
 Alpha virt. eigenvalues --    0.93111   0.93616   0.93749   0.94337   0.95368
 Alpha virt. eigenvalues --    0.95595   0.96138   0.96884   0.97054   0.98932
 Alpha virt. eigenvalues --    0.99276   0.99879   1.00642   1.02034   1.02281
 Alpha virt. eigenvalues --    1.02729   1.03343   1.03855   1.04443   1.04974
 Alpha virt. eigenvalues --    1.06947   1.07643   1.07902   1.08401   1.09252
 Alpha virt. eigenvalues --    1.10174   1.10980   1.11379   1.12748   1.13067
 Alpha virt. eigenvalues --    1.13748   1.14318   1.15694   1.15877   1.16839
 Alpha virt. eigenvalues --    1.17674   1.18988   1.19819   1.20488   1.20841
 Alpha virt. eigenvalues --    1.22035   1.22998   1.24624   1.25502   1.26314
 Alpha virt. eigenvalues --    1.27327   1.27473   1.27835   1.29393   1.30125
 Alpha virt. eigenvalues --    1.30528   1.30921   1.32497   1.33624   1.34470
 Alpha virt. eigenvalues --    1.35313   1.35447   1.36305   1.37317   1.38159
 Alpha virt. eigenvalues --    1.38734   1.39739   1.40397   1.41013   1.41564
 Alpha virt. eigenvalues --    1.42834   1.43187   1.43586   1.44248   1.44734
 Alpha virt. eigenvalues --    1.44914   1.45551   1.46624   1.47104   1.47658
 Alpha virt. eigenvalues --    1.49526   1.49877   1.51263   1.51549   1.52598
 Alpha virt. eigenvalues --    1.53058   1.53943   1.54555   1.55818   1.56418
 Alpha virt. eigenvalues --    1.56918   1.58277   1.58354   1.59062   1.59145
 Alpha virt. eigenvalues --    1.61113   1.62561   1.62859   1.63664   1.65293
 Alpha virt. eigenvalues --    1.65347   1.65791   1.66965   1.67141   1.68273
 Alpha virt. eigenvalues --    1.69034   1.70124   1.70429   1.71165   1.71611
 Alpha virt. eigenvalues --    1.72288   1.72630   1.73606   1.74006   1.74603
 Alpha virt. eigenvalues --    1.75087   1.75249   1.75848   1.76804   1.77300
 Alpha virt. eigenvalues --    1.77894   1.78094   1.78327   1.79300   1.79551
 Alpha virt. eigenvalues --    1.80540   1.81317   1.81472   1.82359   1.82945
 Alpha virt. eigenvalues --    1.83228   1.83562   1.85029   1.85508   1.86074
 Alpha virt. eigenvalues --    1.86557   1.87035   1.87922   1.88336   1.88875
 Alpha virt. eigenvalues --    1.89339   1.90322   1.91059   1.91291   1.91576
 Alpha virt. eigenvalues --    1.92044   1.92906   1.93584   1.94620   1.94874
 Alpha virt. eigenvalues --    1.95449   1.95797   1.96200   1.96515   1.96846
 Alpha virt. eigenvalues --    1.98342   1.99627   2.00769   2.01434   2.02466
 Alpha virt. eigenvalues --    2.02836   2.03282   2.03684   2.04269   2.05045
 Alpha virt. eigenvalues --    2.05538   2.06097   2.07284   2.08432   2.08643
 Alpha virt. eigenvalues --    2.09172   2.09441   2.09602   2.09952   2.10150
 Alpha virt. eigenvalues --    2.12377   2.12485   2.13040   2.14367   2.15626
 Alpha virt. eigenvalues --    2.16549   2.17127   2.17796   2.18089   2.18607
 Alpha virt. eigenvalues --    2.19878   2.20431   2.21252   2.22402   2.22863
 Alpha virt. eigenvalues --    2.23498   2.24186   2.24628   2.25851   2.26475
 Alpha virt. eigenvalues --    2.27120   2.27914   2.28508   2.29936   2.30536
 Alpha virt. eigenvalues --    2.31611   2.32159   2.33141   2.33408   2.34564
 Alpha virt. eigenvalues --    2.34635   2.35655   2.37505   2.37890   2.38236
 Alpha virt. eigenvalues --    2.41088   2.41627   2.42233   2.42466   2.43562
 Alpha virt. eigenvalues --    2.44500   2.45229   2.45974   2.46538   2.47641
 Alpha virt. eigenvalues --    2.48587   2.49267   2.49684   2.50641   2.51785
 Alpha virt. eigenvalues --    2.52393   2.53786   2.53893   2.54464   2.56400
 Alpha virt. eigenvalues --    2.56655   2.57563   2.58922   2.59320   2.59835
 Alpha virt. eigenvalues --    2.60396   2.60871   2.61945   2.62978   2.65177
 Alpha virt. eigenvalues --    2.67022   2.67331   2.68622   2.69402   2.70179
 Alpha virt. eigenvalues --    2.71153   2.72010   2.74116   2.74675   2.76382
 Alpha virt. eigenvalues --    2.77617   2.80794   2.82734   2.84934   2.86058
 Alpha virt. eigenvalues --    2.87032   2.88803   2.90078   2.90200   2.91827
 Alpha virt. eigenvalues --    2.94219   2.96019   2.97235   2.97931   2.98785
 Alpha virt. eigenvalues --    2.99265   3.00821   3.06892   3.08238   3.14214
 Alpha virt. eigenvalues --    3.35653   3.63995   3.70288   3.74478   3.76583
 Alpha virt. eigenvalues --    3.77668   3.91653   3.93554   3.98269   3.98551
 Alpha virt. eigenvalues --    4.00029   4.03877   4.04218   4.04897   4.08862
 Alpha virt. eigenvalues --    4.09603   4.09987   4.11542   4.13172   4.16363
 Alpha virt. eigenvalues --    4.18988   4.21274   4.24523   4.25079   4.27427
 Alpha virt. eigenvalues --    4.31107   4.32600   4.33580   4.37132   4.40255
 Alpha virt. eigenvalues --    4.42571   4.43947   4.46715   4.49912   4.51090
 Alpha virt. eigenvalues --    4.55829   4.58620   4.59917   4.63969   4.68960
          Condensed to atoms (all electrons):
 Mulliken charges:
               1
     1  N   -0.698790
     2  H    0.307316
     3  H    0.320415
     4  C   -0.085516
     5  H    0.148591
     6  C    0.593829
     7  C   -0.354202
     8  H    0.167692
     9  H    0.157025
    10  O   -0.520779
    11  C    0.143797
    12  C   -0.179046
    13  H    0.155060
    14  C   -0.208483
    15  H    0.161268
    16  C   -0.126914
    17  H    0.141528
    18  C   -0.156639
    19  H    0.113892
    20  C   -0.130474
    21  H    0.133089
    22  N   -0.577649
    23  H    0.334553
    24  C   -0.095041
    25  H    0.199521
    26  C    0.633613
    27  C   -0.265363
    28  H    0.138864
    29  H    0.133284
    30  O   -0.549052
    31  C   -0.060499
    32  H    0.138997
    33  C   -0.444959
    34  H    0.140200
    35  H    0.152060
    36  H    0.140941
    37  C   -0.471001
    38  H    0.131892
    39  H    0.177601
    40  H    0.150539
    41  N   -0.624783
    42  H    0.358587
    43  C   -0.022991
    44  H    0.204000
    45  C    0.595235
    46  C   -0.404497
    47  H    0.202146
    48  H    0.187932
    49  O   -0.515020
    50  C    0.631772
    51  N   -0.741825
    52  H    0.353813
    53  H    0.375044
    54  O   -0.558948
    55  N   -0.643520
    56  H    0.404253
    57  C   -0.076853
    58  H    0.231542
    59  C    0.623134
    60  C   -0.287851
    61  H    0.189750
    62  H    0.157528
    63  O   -0.525552
    64  C   -0.320242
    65  H    0.193706
    66  H    0.182900
    67  C   -0.162361
    68  H    0.183513
    69  H    0.183929
    70  N   -0.634607
    71  H    0.428834
    72  N   -0.760278
    73  H    0.384493
    74  H    0.390161
    75  N   -0.763943
    76  H    0.378454
    77  H    0.391156
    78  C    0.810964
    79  O   -0.522693
    80  H    0.431958
 Sum of Mulliken charges =   1.00000
 Mulliken charges with hydrogens summed into heavy atoms:
               1
     1  N   -0.071058
     4  C    0.063075
     6  C    0.593829
     7  C   -0.029485
    10  O   -0.520779
    11  C    0.143797
    12  C   -0.023987
    14  C   -0.047214
    16  C    0.014614
    18  C   -0.042747
    20  C    0.002615
    22  N   -0.243096
    24  C    0.104480
    26  C    0.633613
    27  C    0.006786
    30  O   -0.549052
    31  C    0.078498
    33  C   -0.011759
    37  C   -0.010968
    41  N   -0.266197
    43  C    0.181009
    45  C    0.595235
    46  C   -0.014419
    49  O   -0.515020
    50  C    0.631772
    51  N   -0.012968
    54  O   -0.558948
    55  N   -0.239267
    57  C    0.154688
    59  C    0.623134
    60  C    0.059426
    63  O   -0.525552
    64  C    0.056364
    67  C    0.205080
    70  N   -0.205773
    72  N    0.014376
    75  N    0.005667
    78  C    0.810964
    79  O   -0.090735
 Electronic spatial extent (au):  <R**2>=          32907.6357
 Charge=              1.0000 electrons
 Dipole moment (field-independent basis, Debye):
    X=             24.4130    Y=             15.1232    Z=            -17.0012  Tot=             33.3728
 Quadrupole moment (field-independent basis, Debye-Ang):
   XX=            -35.5193   YY=           -163.2753   ZZ=           -136.4651
   XY=             78.2896   XZ=           -118.3503   YZ=            -64.3805
 Traceless Quadrupole moment (field-independent basis, Debye-Ang):
   XX=             76.2339   YY=            -51.5221   ZZ=            -24.7119
   XY=             78.2896   XZ=           -118.3503   YZ=            -64.3805
 Octapole moment (field-independent basis, Debye-Ang**2):
  XXX=           1545.9043  YYY=           -305.3997  ZZZ=           -197.0025  XYY=            567.0269
  XXY=            425.4325  XXZ=           -793.4800  XZZ=            735.3839  YZZ=            103.4234
  YYZ=           -254.0458  XYZ=           -441.3127
 Hexadecapole moment (field-independent basis, Debye-Ang**3):
 XXXX=         -11094.8931 YYYY=          -3910.1814 ZZZZ=         -13184.0249 XXXY=           1722.7296
 XXXZ=          -1663.9379 YYYX=           -730.1275 YYYZ=           1406.2009 ZZZX=           2312.1192
 ZZZY=           1399.4232 XXYY=          -1778.2040 XXZZ=          -2050.9601 YYZZ=          -1865.9970
 XXYZ=          -1981.2397 YYXZ=           -326.6605 ZZXY=           1125.4774
 N-N= 4.594233132309D+03 E-N=-1.351093368344D+04  KE= 1.849246432463D+03
 Unable to Open any file for archive entry.
 1\1\GINC-AMR-002\SP\RB3LYP\6-31G(d)\C25H41N8O6(1+)\KENGMITH\17-Jun-202
 2\0\\# B3LYP/6-31G* empiricaldispersion=gd3 guess=read geom=check nosy
 mm integral(ultrafinegrid)\\Candidate Structure: Conf:727 Charge calc 
 in gas phase\\1,1\N,0,-5.0970980232,-1.3380081491,4.7569720293\H,0,-5.
 9952871128,-1.7451894591,4.4996796831\H,0,-4.4102867014,-2.0604063442,
 4.5382198962\C,0,-4.8281779529,-0.19652755,3.8944846833\H,0,-5.6895518
 099,0.4826295956,3.9443076885\C,0,-4.6082060711,-0.5920371545,2.419707
 839\C,0,-3.5953027993,0.5966543936,4.424996117\H,0,-3.8682200767,0.967
 331523,5.4179879028\H,0,-3.4176906683,1.4653421036,3.7803687311\O,0,-4
 .329868157,-1.7394361312,2.0909272408\C,0,-2.3344526032,-0.2346465696,
 4.5152541399\C,0,-2.0597859897,-0.9996064865,5.6557549492\H,0,-2.76018
 64091,-0.9794856917,6.4857615855\C,0,-1.433152801,-0.2864747238,3.4411
 355259\H,0,-1.6546538851,0.3022722411,2.5560409246\C,0,-0.9116136228,-
 1.7924189006,5.7258787764\H,0,-0.715261767,-2.3776037159,6.6201610271\
 C,0,-0.2880433788,-1.0830743869,3.506700831\H,0,0.3932831508,-1.134173
 6879,2.6594051522\C,0,-0.0207371918,-1.8364823268,4.6530666824\H,0,0.8
 696834557,-2.4569237546,4.7055473543\N,0,-4.7425361783,0.4317770429,1.
 5120121496\H,0,-4.7469326288,1.3728331478,1.8874275419\C,0,-4.18288052
 76,0.3202911924,0.1767911769\H,0,-3.9778275213,-0.7422361744,0.0215437
 372\C,0,-2.8441007689,1.0712480834,0.1448509805\C,0,-5.1496547072,0.82
 98610632,-0.9102717266\H,0,-5.2792268681,1.9148905885,-0.7909243292\H,
 0,-4.6807304452,0.6812418408,-1.8937991219\O,0,-2.5038662261,1.8507460
 519,1.0386249631\C,0,-6.527690646,0.1423334715,-0.8957549003\H,0,-6.99
 86390482,0.3741276931,0.0688485423\C,0,-7.4073991955,0.7202902067,-2.0
 131806323\H,0,-6.9837835523,0.4958237625,-3.0009285122\H,0,-8.41496049
 83,0.2911909855,-1.9794049838\H,0,-7.5027751465,1.8096969091,-1.929222
 091\C,0,-6.4162104487,-1.3850543751,-1.0123792062\H,0,-5.8712592938,-1
 .6687907383,-1.9234300566\H,0,-5.9017989102,-1.8277342658,-0.152758718
 6\H,0,-7.41197646,-1.8385759666,-1.0709859583\N,0,-2.0257255568,0.8089
 991357,-0.9060388779\H,0,-2.2946359354,0.2137726174,-1.6808264293\C,0,
 -0.7192005913,1.4214833566,-0.9623573184\H,0,-0.8228803014,2.484039705
 6,-0.7161405349\C,0,-0.1726713471,1.2864688328,-2.3890140642\C,0,0.258
 877163,0.7714149766,0.0734378439\H,0,-0.3362129047,0.2608975698,0.8290
 216894\H,0,0.8809927987,0.0160092867,-0.4211665519\O,0,-0.7493762226,0
 .6465425365,-3.2600002569\C,0,1.1880057554,1.7969362925,0.7050721976\N
 ,0,1.2168666361,1.8319613911,2.0506976173\H,0,1.7903947208,2.533822130
 4,2.4999884567\H,0,0.5713355594,1.3023683231,2.6243484451\O,0,1.889947
 2356,2.5499831158,0.0102423614\N,0,1.0160474428,1.9317356983,-2.564423
 6994\H,0,1.4657976506,2.299593854,-1.7136977638\C,0,1.8160813265,1.728
 9384605,-3.7501723388\H,0,1.1728797923,1.1990118274,-4.4659815234\C,0,
 2.9790099133,0.7710011611,-3.4633236475\C,0,2.285251249,3.0538406187,-
 4.3664884265\H,0,1.3918873295,3.5797656782,-4.7137189386\H,0,2.8746307
 585,2.8273465508,-5.2629955835\O,0,4.1388021675,0.9185072987,-3.836646
 8809\C,0,3.0814433415,3.961875711,-3.3890772001\H,0,2.4621078488,4.801
 1348288,-3.0611590152\H,0,3.3557847397,3.4209764733,-2.4747637533\C,0,
 4.3642920078,4.5305531084,-4.0044898392\H,0,4.1345951677,5.086882086,-
 4.9233515865\H,0,4.8565662934,5.2109816553,-3.2991633163\N,0,5.2694723
 761,3.4140624421,-4.312967346\H,0,4.8624952352,2.4719492747,-4.2279690
 07\N,0,7.1367816905,4.678583141,-4.8895144651\H,0,8.1422355307,4.77166
 60063,-4.9001703262\H,0,6.5942766229,5.5284403159,-4.9307876501\N,0,7.
 3019593204,2.3753509236,-4.6516380189\H,0,8.1540595856,2.3419994265,-5
 .193526832\H,0,6.865541467,1.4877621162,-4.4366203965\C,0,6.5522316029
 ,3.4978255359,-4.6220113043\O,0,2.5948308366,-0.2970748614,-2.76501431
 63\H,0,3.3685228487,-0.8809680958,-2.6445443969\\Version=ES64L-G16RevC
 .01\HF=-1866.7261474\RMSD=6.184e-09\Dipole=10.5177554,4.1355943,-6.111
 4489\Quadrupole=56.6780577,-38.3053862,-18.3726715,58.2064034,-87.9905
 556,-47.865309\PG=C01 [X(C25H41N8O6)]\\@
 The archive entry for this job was punched.


 DESK:  A WASTEBASKET WITH DRAWERS.
 Job cpu time:       0 days  0 hours  2 minutes 26.5 seconds.
 Elapsed time:       0 days  0 hours  0 minutes 37.7 seconds.
 File lengths (MBytes):  RWF=    344 Int=      0 D2E=      0 Chk=     48 Scr=     16
 Normal termination of Gaussian 16 at Fri Jun 17 19:10:50 2022.
