 Entering Gaussian System, Link 0=/opt/software/Gaussian/g16-AVX2-C.01/g16/g16
 Input=charge-conf-883.com
 Output=charge-conf-883.log
 Initial command:
 /opt/software/Gaussian/g16-AVX2-C.01/g16/l1.exe "/mnt/gs18/scratch/users/kengmith/Gau-14519.inp" -scrdir="/mnt/gs18/scratch/users/kengmith/"
 Entering Link 1 = /opt/software/Gaussian/g16-AVX2-C.01/g16/l1.exe PID=     14529.
  
 Copyright (c) 1988-2019, Gaussian, Inc.  All Rights Reserved.
  
 This is part of the Gaussian(R) 16 program.  It is based on
 the Gaussian(R) 09 system (copyright 2009, Gaussian, Inc.),
 the Gaussian(R) 03 system (copyright 2003, Gaussian, Inc.),
 the Gaussian(R) 98 system (copyright 1998, Gaussian, Inc.),
 the Gaussian(R) 94 system (copyright 1995, Gaussian, Inc.),
 the Gaussian 92(TM) system (copyright 1992, Gaussian, Inc.),
 the Gaussian 90(TM) system (copyright 1990, Gaussian, Inc.),
 the Gaussian 88(TM) system (copyright 1988, Gaussian, Inc.),
 the Gaussian 86(TM) system (copyright 1986, Carnegie Mellon
 University), and the Gaussian 82(TM) system (copyright 1983,
 Carnegie Mellon University). Gaussian is a federally registered
 trademark of Gaussian, Inc.
  
 This software contains proprietary and confidential information,
 including trade secrets, belonging to Gaussian, Inc.
  
 This software is provided under written license and may be
 used, copied, transmitted, or stored only in accord with that
 written license.
  
 The following legend is applicable only to US Government
 contracts under FAR:
  
                    RESTRICTED RIGHTS LEGEND
  
 Use, reproduction and disclosure by the US Government is
 subject to restrictions as set forth in subparagraphs (a)
 and (c) of the Commercial Computer Software - Restricted
 Rights clause in FAR 52.227-19.
  
 Gaussian, Inc.
 340 Quinnipiac St., Bldg. 40, Wallingford CT 06492
  
  
 ---------------------------------------------------------------
 Warning -- This program may not be used in any manner that
 competes with the business of Gaussian, Inc. or will provide
 assistance to any competitor of Gaussian, Inc.  The licensee
 of this program is prohibited from giving any competitor of
 Gaussian, Inc. access to this program.  By using this program,
 the user acknowledges that Gaussian, Inc. is engaged in the
 business of creating and licensing software in the field of
 computational chemistry and represents and warrants to the
 licensee that it is not a competitor of Gaussian, Inc. and that
 it will not use this program in any manner prohibited above.
 ---------------------------------------------------------------
  

 Cite this work as:
 Gaussian 16, Revision C.01,
 M. J. Frisch, G. W. Trucks, H. B. Schlegel, G. E. Scuseria, 
 M. A. Robb, J. R. Cheeseman, G. Scalmani, V. Barone, 
 G. A. Petersson, H. Nakatsuji, X. Li, M. Caricato, A. V. Marenich, 
 J. Bloino, B. G. Janesko, R. Gomperts, B. Mennucci, H. P. Hratchian, 
 J. V. Ortiz, A. F. Izmaylov, J. L. Sonnenberg, D. Williams-Young, 
 F. Ding, F. Lipparini, F. Egidi, J. Goings, B. Peng, A. Petrone, 
 T. Henderson, D. Ranasinghe, V. G. Zakrzewski, J. Gao, N. Rega, 
 G. Zheng, W. Liang, M. Hada, M. Ehara, K. Toyota, R. Fukuda, 
 J. Hasegawa, M. Ishida, T. Nakajima, Y. Honda, O. Kitao, H. Nakai, 
 T. Vreven, K. Throssell, J. A. Montgomery, Jr., J. E. Peralta, 
 F. Ogliaro, M. J. Bearpark, J. J. Heyd, E. N. Brothers, K. N. Kudin, 
 V. N. Staroverov, T. A. Keith, R. Kobayashi, J. Normand, 
 K. Raghavachari, A. P. Rendell, J. C. Burant, S. S. Iyengar, 
 J. Tomasi, M. Cossi, J. M. Millam, M. Klene, C. Adamo, R. Cammi, 
 J. W. Ochterski, R. L. Martin, K. Morokuma, O. Farkas, 
 J. B. Foresman, and D. J. Fox, Gaussian, Inc., Wallingford CT, 2019.
 
 ******************************************
 Gaussian 16:  ES64L-G16RevC.01  3-Jul-2019
                17-Jun-2022 
 ******************************************
 %mem=8gb
 %nproc=4
 Will use up to    4 processors via shared memory.
 %chk=conf-883.chk
 ----------------------------------------------------------------------
 # B3LYP/6-31G* empiricaldispersion=gd3 guess=read geom=check nosymm in
 tegral(ultrafinegrid)
 ----------------------------------------------------------------------
 1/29=2,38=1,172=1/1;
 2/12=2,15=1,40=1/2;
 3/5=1,6=6,7=1,11=2,14=-4,25=1,30=1,74=-5,75=-5,116=-2,124=31/1,2,3;
 4/5=1/1;
 5/5=2,38=6/2;
 6/7=2,8=2,9=2,10=2,28=1/1;
 99/5=1,9=1/99;
 ------------------------------------------------------
 Candidate Structure: Conf:883 Charge calc in gas phase
 ------------------------------------------------------
 Structure from the checkpoint file:  "conf-883.chk"
 Charge =  1 Multiplicity = 1
 Redundant internal coordinates found in file.  (old form).
 N,0,-4.4076064869,1.6796941595,3.2139069973
 H,0,-3.9970833093,0.7751985755,3.4401310344
 H,0,-4.6901295604,2.1225878974,4.085538495
 C,0,-3.4188274567,2.4915722269,2.5235293606
 H,0,-3.9275520974,3.3702033613,2.1058165618
 C,0,-2.8409602387,1.652825008,1.3848588647
 C,0,-2.2324337093,2.9857598381,3.410566209
 H,0,-1.7895092309,2.1044616972,3.8879467716
 H,0,-2.6604624951,3.6069571293,4.2082388422
 O,0,-2.4707166379,0.4906386706,1.5712851545
 C,0,-1.1709932541,3.7577387614,2.656698825
 C,0,0.1410837785,3.2745736858,2.5646865445
 H,0,0.4021013001,2.3463245432,3.0671602295
 C,0,-1.4792218162,4.9648010283,2.0097035405
 H,0,-2.4826731992,5.3778492999,2.0914608963
 C,0,1.1237176389,3.9745135865,1.8622214149
 H,0,2.1389203182,3.5871745761,1.8362053503
 C,0,-0.5056087651,5.6608403657,1.2894504711
 H,0,-0.762765638,6.6069795108,0.8181118515
 C,0,0.8003344826,5.1682667112,1.2144370044
 H,0,1.5666245869,5.7210505665,0.6773734939
 N,0,-2.7156486091,2.2803963195,0.184497509
 H,0,-2.8685809966,3.2795888409,0.1478990893
 C,0,-2.0220793736,1.6569664584,-0.9416664958
 H,0,-2.3444589049,0.612701995,-0.9635134469
 C,0,-0.5133575339,1.6859346851,-0.6716170056
 C,0,-2.3955052741,2.3423547281,-2.2584907049
 H,0,-3.4775134867,2.2157820772,-2.3912595444
 H,0,-2.2090743687,3.4218084272,-2.1687227847
 O,0,0.2344409912,2.5749270407,-1.1293111778
 C,0,-1.6563407247,1.8150058034,-3.5076569471
 H,0,-0.6117905546,2.1408710977,-3.4334280092
 C,0,-1.6590511456,0.2814074455,-3.5978727704
 H,0,-2.6787892255,-0.1187953856,-3.5305031997
 H,0,-1.2390298333,-0.0457581949,-4.5553192299
 H,0,-1.0493940658,-0.1758554443,-2.8102801467
 C,0,-2.2611949134,2.4528480676,-4.7655800266
 H,0,-3.3007970907,2.1332691645,-4.907942017
 H,0,-2.2550065931,3.5485507584,-4.7030623404
 H,0,-1.7005086112,2.1614188516,-5.660983055
 N,0,-0.0420585206,0.7121657331,0.1110840717
 H,0,-0.7132381079,0.0865086941,0.5490123109
 C,0,1.3718309038,0.6655859108,0.4169756912
 H,0,1.6802352426,1.6730594212,0.6979665108
 C,0,2.1468017458,0.2792706995,-0.8655432302
 C,0,1.662257703,-0.2677048588,1.5960006104
 H,0,0.8615224797,-0.1618006841,2.3408487667
 H,0,1.6706335193,-1.31872,1.2832299257
 O,0,1.623402616,-0.3532135311,-1.7779334748
 C,0,2.9843259835,0.1076587548,2.2782839327
 N,0,3.4170496905,-0.7637818768,3.2164692751
 H,0,4.2694923412,-0.5515105277,3.7171404618
 H,0,2.9275656814,-1.6188178263,3.4367988692
 O,0,3.5909304631,1.1466513402,2.0131049396
 N,0,3.4186926443,0.7466509432,-0.8879926305
 H,0,3.7777043546,1.1649274691,-0.0326192324
 C,0,4.3330186333,0.490999723,-1.9925355344
 H,0,4.0000966547,-0.4370223456,-2.4770425848
 C,0,5.7526755673,0.2191615859,-1.491869698
 C,0,4.3160873985,1.6383596042,-3.0226709538
 H,0,5.2427930596,1.6084434382,-3.6019613508
 H,0,4.3222914881,2.5811147766,-2.4602248062
 O,0,6.7500465372,0.4039786535,-2.1487626088
 C,0,3.0942352257,1.5783119395,-3.967250743
 H,0,3.3669912571,1.0503697706,-4.8872674082
 H,0,2.2790210749,0.9987745159,-3.5210802247
 C,0,2.5627296349,2.9587020077,-4.3560543624
 H,0,3.4007317253,3.6115892319,-4.634549309
 H,0,1.8825140083,2.88607706,-5.2140576599
 N,0,1.8401704394,3.5476741511,-3.2166716233
 H,0,1.5344489088,2.921752421,-2.4669732725
 N,0,1.6415636522,5.688808765,-4.1132021766
 H,0,1.0854661176,6.5222293187,-4.2332069068
 H,0,2.3206342791,5.4836693331,-4.8297229849
 N,0,0.3894463847,5.0723116976,-2.2568730845
 H,0,0.2207648259,6.0361194629,-2.0095270583
 H,0,0.1199426594,4.3374792154,-1.5937612038
 C,0,1.2957678514,4.7624419301,-3.1971003462
 O,0,5.7672126703,-0.2889654909,-0.2391638631
 H,0,6.7042701907,-0.4513493919,-0.0174332024
 Recover connectivity data from disk.
                           ----------------------------
                           !    Current Parameters    !
                           ! (Angstroms and Degrees)  !
 --------------------------                            --------------------------
 ! Name  Definition              Value                                          !
 --------------------------------------------------------------------------------
 ! R1    R(1,2)                  1.0187                                         !
 ! R2    R(1,3)                  1.0177                                         !
 ! R3    R(1,4)                  1.4538                                         !
 ! R4    R(4,5)                  1.0979                                         !
 ! R5    R(4,6)                  1.5277                                         !
 ! R6    R(4,7)                  1.5616                                         !
 ! R7    R(6,10)                 1.2339                                         !
 ! R8    R(6,22)                 1.3603                                         !
 ! R9    R(7,8)                  1.0958                                         !
 ! R10   R(7,9)                  1.0979                                         !
 ! R11   R(7,11)                 1.5136                                         !
 ! R12   R(11,12)                1.4012                                         !
 ! R13   R(11,14)                1.4038                                         !
 ! R14   R(12,13)                1.0873                                         !
 ! R15   R(12,16)                1.396                                          !
 ! R16   R(14,15)                1.0882                                         !
 ! R17   R(14,18)                1.3968                                         !
 ! R18   R(16,17)                1.0869                                         !
 ! R19   R(16,20)                1.3962                                         !
 ! R20   R(18,19)                1.0879                                         !
 ! R21   R(18,20)                1.3978                                         !
 ! R22   R(20,21)                1.0868                                         !
 ! R23   R(22,23)                1.0115                                         !
 ! R24   R(22,24)                1.4622                                         !
 ! R25   R(24,25)                1.0931                                         !
 ! R26   R(24,26)                1.533                                          !
 ! R27   R(24,27)                1.5308                                         !
 ! R28   R(26,30)                1.2486                                         !
 ! R29   R(26,41)                1.3353                                         !
 ! R30   R(27,28)                1.0974                                         !
 ! R31   R(27,29)                1.0991                                         !
 ! R32   R(27,31)                1.5443                                         !
 ! R33   R(31,32)                1.0967                                         !
 ! R34   R(31,33)                1.5363                                         !
 ! R35   R(31,37)                1.5346                                         !
 ! R36   R(33,34)                1.0975                                         !
 ! R37   R(33,35)                1.0955                                         !
 ! R38   R(33,36)                1.0959                                         !
 ! R39   R(37,38)                1.0969                                         !
 ! R40   R(37,39)                1.0975                                         !
 ! R41   R(37,40)                1.0959                                         !
 ! R42   R(41,42)                1.0167                                         !
 ! R43   R(41,43)                1.4474                                         !
 ! R44   R(43,44)                1.0904                                         !
 ! R45   R(43,45)                1.5475                                         !
 ! R46   R(43,46)                1.5315                                         !
 ! R47   R(45,49)                1.2274                                         !
 ! R48   R(45,55)                1.3552                                         !
 ! R49   R(46,47)                1.0987                                         !
 ! R50   R(46,48)                1.0966                                         !
 ! R51   R(46,50)                1.5344                                         !
 ! R52   R(50,51)                1.3516                                         !
 ! R53   R(50,54)                1.232                                          !
 ! R54   R(51,52)                1.0111                                         !
 ! R55   R(51,53)                1.0096                                         !
 ! R56   R(55,56)                1.0176                                         !
 ! R57   R(55,57)                1.4565                                         !
 ! R58   R(57,58)                1.0985                                         !
 ! R59   R(57,59)                1.5297                                         !
 ! R60   R(57,60)                1.542                                          !
 ! R61   R(59,63)                1.2085                                         !
 ! R62   R(59,79)                1.3519                                         !
 ! R63   R(60,61)                1.0933                                         !
 ! R64   R(60,62)                1.0978                                         !
 ! R65   R(60,64)                1.5456                                         !
 ! R66   R(64,65)                1.0952                                         !
 ! R67   R(64,66)                1.0952                                         !
 ! R68   R(64,67)                1.5294                                         !
 ! R69   R(67,68)                1.0982                                         !
 ! R70   R(67,69)                1.0973                                         !
 ! R71   R(67,70)                1.4721                                         !
 ! R72   R(70,71)                1.0234                                         !
 ! R73   R(70,78)                1.3313                                         !
 ! R74   R(72,73)                1.0091                                         !
 ! R75   R(72,74)                1.0083                                         !
 ! R76   R(72,78)                1.348                                          !
 ! R77   R(75,76)                1.0092                                         !
 ! R78   R(75,77)                1.0258                                         !
 ! R79   R(75,78)                1.3422                                         !
 ! R80   R(79,80)                0.9765                                         !
 ! A1    A(2,1,3)              107.9428                                         !
 ! A2    A(2,1,4)              109.0997                                         !
 ! A3    A(3,1,4)              110.6406                                         !
 ! A4    A(1,4,5)              108.208                                          !
 ! A5    A(1,4,6)              107.7347                                         !
 ! A6    A(1,4,7)              115.0691                                         !
 ! A7    A(5,4,6)              109.3339                                         !
 ! A8    A(5,4,7)              108.3548                                         !
 ! A9    A(6,4,7)              108.0438                                         !
 ! A10   A(4,6,10)             121.1975                                         !
 ! A11   A(4,6,22)             116.0564                                         !
 ! A12   A(10,6,22)            122.6983                                         !
 ! A13   A(4,7,8)              107.4595                                         !
 ! A14   A(4,7,9)              107.1916                                         !
 ! A15   A(4,7,11)             114.2847                                         !
 ! A16   A(8,7,9)              107.2247                                         !
 ! A17   A(8,7,11)             110.1038                                         !
 ! A18   A(9,7,11)             110.2851                                         !
 ! A19   A(7,11,12)            120.897                                          !
 ! A20   A(7,11,14)            120.9399                                         !
 ! A21   A(12,11,14)           118.153                                          !
 ! A22   A(11,12,13)           119.2622                                         !
 ! A23   A(11,12,16)           121.2816                                         !
 ! A24   A(13,12,16)           119.4451                                         !
 ! A25   A(11,14,15)           119.618                                          !
 ! A26   A(11,14,18)           120.8689                                         !
 ! A27   A(15,14,18)           119.4935                                         !
 ! A28   A(12,16,17)           119.3938                                         !
 ! A29   A(12,16,20)           119.9419                                         !
 ! A30   A(17,16,20)           120.6604                                         !
 ! A31   A(14,18,19)           119.4733                                         !
 ! A32   A(14,18,20)           120.2183                                         !
 ! A33   A(19,18,20)           120.2712                                         !
 ! A34   A(16,20,18)           119.5262                                         !
 ! A35   A(16,20,21)           120.0562                                         !
 ! A36   A(18,20,21)           120.3999                                         !
 ! A37   A(6,22,23)            118.2773                                         !
 ! A38   A(6,22,24)            121.7782                                         !
 ! A39   A(23,22,24)           117.7127                                         !
 ! A40   A(22,24,25)           106.4286                                         !
 ! A41   A(22,24,26)           108.8506                                         !
 ! A42   A(22,24,27)           110.8509                                         !
 ! A43   A(25,24,26)           108.1693                                         !
 ! A44   A(25,24,27)           109.7915                                         !
 ! A45   A(26,24,27)           112.5301                                         !
 ! A46   A(24,26,30)           122.5691                                         !
 ! A47   A(24,26,41)           115.9034                                         !
 ! A48   A(30,26,41)           121.5142                                         !
 ! A49   A(24,27,28)           107.0345                                         !
 ! A50   A(24,27,29)           109.1535                                         !
 ! A51   A(24,27,31)           115.2253                                         !
 ! A52   A(28,27,29)           106.8811                                         !
 ! A53   A(28,27,31)           109.552                                          !
 ! A54   A(29,27,31)           108.6781                                         !
 ! A55   A(27,31,32)           107.4373                                         !
 ! A56   A(27,31,33)           112.802                                          !
 ! A57   A(27,31,37)           109.4181                                         !
 ! A58   A(32,31,33)           107.594                                          !
 ! A59   A(32,31,37)           107.9011                                         !
 ! A60   A(33,31,37)           111.4744                                         !
 ! A61   A(31,33,34)           111.2258                                         !
 ! A62   A(31,33,35)           110.4122                                         !
 ! A63   A(31,33,36)           111.9212                                         !
 ! A64   A(34,33,35)           107.5162                                         !
 ! A65   A(34,33,36)           108.6997                                         !
 ! A66   A(35,33,36)           106.8694                                         !
 ! A67   A(31,37,38)           111.0292                                         !
 ! A68   A(31,37,39)           111.4715                                         !
 ! A69   A(31,37,40)           110.9495                                         !
 ! A70   A(38,37,39)           107.6745                                         !
 ! A71   A(38,37,40)           107.5402                                         !
 ! A72   A(39,37,40)           108.0075                                         !
 ! A73   A(26,41,42)           117.9203                                         !
 ! A74   A(26,41,43)           119.4822                                         !
 ! A75   A(42,41,43)           122.2793                                         !
 ! A76   A(41,43,44)           107.5184                                         !
 ! A77   A(41,43,45)           108.7896                                         !
 ! A78   A(41,43,46)           111.5658                                         !
 ! A79   A(44,43,45)           107.6123                                         !
 ! A80   A(44,43,46)           108.1205                                         !
 ! A81   A(45,43,46)           113.0129                                         !
 ! A82   A(43,45,49)           122.085                                          !
 ! A83   A(43,45,55)           113.4304                                         !
 ! A84   A(49,45,55)           124.4453                                         !
 ! A85   A(43,46,47)           108.9629                                         !
 ! A86   A(43,46,48)           111.4654                                         !
 ! A87   A(43,46,50)           110.8943                                         !
 ! A88   A(47,46,48)           106.9361                                         !
 ! A89   A(47,46,50)           107.6331                                         !
 ! A90   A(48,46,50)           110.776                                          !
 ! A91   A(46,50,51)           115.2636                                         !
 ! A92   A(46,50,54)           122.3341                                         !
 ! A93   A(51,50,54)           122.3786                                         !
 ! A94   A(50,51,52)           118.5716                                         !
 ! A95   A(50,51,53)           122.8414                                         !
 ! A96   A(52,51,53)           118.5867                                         !
 ! A97   A(45,55,56)           117.3187                                         !
 ! A98   A(45,55,57)           122.7642                                         !
 ! A99   A(56,55,57)           119.218                                          !
 ! A100  A(55,57,58)           107.0078                                         !
 ! A101  A(55,57,59)           111.4435                                         !
 ! A102  A(55,57,60)           111.6611                                         !
 ! A103  A(58,57,59)           105.9909                                         !
 ! A104  A(58,57,60)           109.3049                                         !
 ! A105  A(59,57,60)           111.1651                                         !
 ! A106  A(57,59,63)           124.1149                                         !
 ! A107  A(57,59,79)           112.3367                                         !
 ! A108  A(63,59,79)           123.5241                                         !
 ! A109  A(57,60,61)           108.9232                                         !
 ! A110  A(57,60,62)           107.2562                                         !
 ! A111  A(57,60,64)           112.8329                                         !
 ! A112  A(61,60,62)           106.8687                                         !
 ! A113  A(61,60,64)           110.1948                                         !
 ! A114  A(62,60,64)           110.5455                                         !
 ! A115  A(60,64,65)           109.5865                                         !
 ! A116  A(60,64,66)           111.1018                                         !
 ! A117  A(60,64,67)           113.2681                                         !
 ! A118  A(65,64,66)           105.8134                                         !
 ! A119  A(65,64,67)           107.9425                                         !
 ! A120  A(66,64,67)           108.8129                                         !
 ! A121  A(64,67,68)           109.6246                                         !
 ! A122  A(64,67,69)           110.7602                                         !
 ! A123  A(64,67,70)           109.5672                                         !
 ! A124  A(68,67,69)           108.3048                                         !
 ! A125  A(68,67,70)           109.448                                          !
 ! A126  A(69,67,70)           109.1105                                         !
 ! A127  A(67,70,71)           117.9641                                         !
 ! A128  A(67,70,78)           125.2497                                         !
 ! A129  A(71,70,78)           115.1602                                         !
 ! A130  A(73,72,74)           117.0448                                         !
 ! A131  A(73,72,78)           120.4681                                         !
 ! A132  A(74,72,78)           121.059                                          !
 ! A133  A(76,75,77)           118.7998                                         !
 ! A134  A(76,75,78)           120.3329                                         !
 ! A135  A(77,75,78)           117.7005                                         !
 ! A136  A(70,78,72)           120.8093                                         !
 ! A137  A(70,78,75)           119.8071                                         !
 ! A138  A(72,78,75)           119.3836                                         !
 ! A139  A(59,79,80)           106.4522                                         !
 ! D1    D(2,1,4,5)            168.4798                                         !
 ! D2    D(2,1,4,6)             50.3734                                         !
 ! D3    D(2,1,4,7)            -70.1985                                         !
 ! D4    D(3,1,4,5)            -72.9124                                         !
 ! D5    D(3,1,4,6)            168.9812                                         !
 ! D6    D(3,1,4,7)             48.4094                                         !
 ! D7    D(1,4,6,10)           -47.402                                          !
 ! D8    D(1,4,6,22)           135.0476                                         !
 ! D9    D(5,4,6,10)          -164.7808                                         !
 ! D10   D(5,4,6,22)            17.6688                                         !
 ! D11   D(7,4,6,10)            77.4909                                         !
 ! D12   D(7,4,6,22)          -100.0596                                         !
 ! D13   D(1,4,7,8)             53.971                                          !
 ! D14   D(1,4,7,9)            -61.0057                                         !
 ! D15   D(1,4,7,11)           176.4651                                         !
 ! D16   D(5,4,7,8)            175.2129                                         !
 ! D17   D(5,4,7,9)             60.2363                                         !
 ! D18   D(5,4,7,11)           -62.293                                          !
 ! D19   D(6,4,7,8)            -66.4314                                         !
 ! D20   D(6,4,7,9)            178.592                                          !
 ! D21   D(6,4,7,11)            56.0627                                         !
 ! D22   D(4,6,22,23)            9.3482                                         !
 ! D23   D(4,6,22,24)          171.9829                                         !
 ! D24   D(10,6,22,23)        -168.1618                                         !
 ! D25   D(10,6,22,24)          -5.5271                                         !
 ! D26   D(4,7,11,12)         -116.8923                                         !
 ! D27   D(4,7,11,14)           61.9242                                         !
 ! D28   D(8,7,11,12)            4.1494                                         !
 ! D29   D(8,7,11,14)         -177.0341                                         !
 ! D30   D(9,7,11,12)          122.2792                                         !
 ! D31   D(9,7,11,14)          -58.9043                                         !
 ! D32   D(7,11,12,13)          -1.7513                                         !
 ! D33   D(7,11,12,16)         179.4697                                         !
 ! D34   D(14,11,12,13)        179.4                                            !
 ! D35   D(14,11,12,16)          0.621                                          !
 ! D36   D(7,11,14,15)           3.0564                                         !
 ! D37   D(7,11,14,18)        -178.5633                                         !
 ! D38   D(12,11,14,15)       -178.0954                                         !
 ! D39   D(12,11,14,18)          0.2849                                         !
 ! D40   D(11,12,16,17)        178.1279                                         !
 ! D41   D(11,12,16,20)         -1.1533                                         !
 ! D42   D(13,12,16,17)         -0.6489                                         !
 ! D43   D(13,12,16,20)       -179.9301                                         !
 ! D44   D(11,14,18,19)       -178.4458                                         !
 ! D45   D(11,14,18,20)         -0.6589                                         !
 ! D46   D(15,14,18,19)         -0.0636                                         !
 ! D47   D(15,14,18,20)        177.7234                                         !
 ! D48   D(12,16,20,18)          0.7646                                         !
 ! D49   D(12,16,20,21)        179.2415                                         !
 ! D50   D(17,16,20,18)       -178.5074                                         !
 ! D51   D(17,16,20,21)         -0.0305                                         !
 ! D52   D(14,18,20,16)          0.1277                                         !
 ! D53   D(14,18,20,21)       -178.3439                                         !
 ! D54   D(19,18,20,16)        177.8968                                         !
 ! D55   D(19,18,20,21)         -0.5748                                         !
 ! D56   D(6,22,24,25)          42.7034                                         !
 ! D57   D(6,22,24,26)         -73.6683                                         !
 ! D58   D(6,22,24,27)         162.0476                                         !
 ! D59   D(23,22,24,25)       -154.5683                                         !
 ! D60   D(23,22,24,26)         89.06                                           !
 ! D61   D(23,22,24,27)        -35.2241                                         !
 ! D62   D(22,24,26,30)        -96.4008                                         !
 ! D63   D(22,24,26,41)         82.2867                                         !
 ! D64   D(25,24,26,30)        148.3484                                         !
 ! D65   D(25,24,26,41)        -32.964                                          !
 ! D66   D(27,24,26,30)         26.8849                                         !
 ! D67   D(27,24,26,41)       -154.4275                                         !
 ! D68   D(22,24,27,28)        -61.2634                                         !
 ! D69   D(22,24,27,29)         54.0726                                         !
 ! D70   D(22,24,27,31)        176.6462                                         !
 ! D71   D(25,24,27,28)         56.0399                                         !
 ! D72   D(25,24,27,29)        171.3759                                         !
 ! D73   D(25,24,27,31)        -66.0505                                         !
 ! D74   D(26,24,27,28)        176.5747                                         !
 ! D75   D(26,24,27,29)        -68.0892                                         !
 ! D76   D(26,24,27,31)         54.4844                                         !
 ! D77   D(24,26,41,42)         -6.3126                                         !
 ! D78   D(24,26,41,43)       -179.9843                                         !
 ! D79   D(30,26,41,42)        172.39                                           !
 ! D80   D(30,26,41,43)         -1.2817                                         !
 ! D81   D(24,27,31,32)        -70.7011                                         !
 ! D82   D(24,27,31,33)         47.7062                                         !
 ! D83   D(24,27,31,37)        172.4054                                         !
 ! D84   D(28,27,31,32)        168.5717                                         !
 ! D85   D(28,27,31,33)        -73.0211                                         !
 ! D86   D(28,27,31,37)         51.6781                                         !
 ! D87   D(29,27,31,32)         52.1262                                         !
 ! D88   D(29,27,31,33)        170.5335                                         !
 ! D89   D(29,27,31,37)        -64.7673                                         !
 ! D90   D(27,31,33,34)         53.5812                                         !
 ! D91   D(27,31,33,35)        172.8593                                         !
 ! D92   D(27,31,33,36)        -68.2248                                         !
 ! D93   D(32,31,33,34)        171.8969                                         !
 ! D94   D(32,31,33,35)        -68.825                                          !
 ! D95   D(32,31,33,36)         50.0908                                         !
 ! D96   D(37,31,33,34)        -69.987                                          !
 ! D97   D(37,31,33,35)         49.2911                                         !
 ! D98   D(37,31,33,36)        168.2069                                         !
 ! D99   D(27,31,37,38)        -65.2556                                         !
 ! D100  D(27,31,37,39)         54.7939                                         !
 ! D101  D(27,31,37,40)        175.2116                                         !
 ! D102  D(32,31,37,38)        178.144                                          !
 ! D103  D(32,31,37,39)        -61.8065                                         !
 ! D104  D(32,31,37,40)         58.6112                                         !
 ! D105  D(33,31,37,38)         60.2125                                         !
 ! D106  D(33,31,37,39)       -179.7379                                         !
 ! D107  D(33,31,37,40)        -59.3203                                         !
 ! D108  D(26,41,43,44)         46.5363                                         !
 ! D109  D(26,41,43,45)        -69.7299                                         !
 ! D110  D(26,41,43,46)        164.925                                          !
 ! D111  D(42,41,43,44)       -126.8486                                         !
 ! D112  D(42,41,43,45)        116.8852                                         !
 ! D113  D(42,41,43,46)         -8.4599                                         !
 ! D114  D(41,43,45,49)        -24.7902                                         !
 ! D115  D(41,43,45,55)        153.0236                                         !
 ! D116  D(44,43,45,49)       -140.9962                                         !
 ! D117  D(44,43,45,55)         36.8176                                         !
 ! D118  D(46,43,45,49)         99.7051                                         !
 ! D119  D(46,43,45,55)        -82.4811                                         !
 ! D120  D(41,43,46,47)        -38.197                                          !
 ! D121  D(41,43,46,48)         79.5836                                         !
 ! D122  D(41,43,46,50)       -156.4926                                         !
 ! D123  D(44,43,46,47)         79.8308                                         !
 ! D124  D(44,43,46,48)       -162.3886                                         !
 ! D125  D(44,43,46,50)        -38.4648                                         !
 ! D126  D(45,43,46,47)       -161.1642                                         !
 ! D127  D(45,43,46,48)        -43.3836                                         !
 ! D128  D(45,43,46,50)         80.5402                                         !
 ! D129  D(43,45,55,56)          9.0415                                         !
 ! D130  D(43,45,55,57)        179.3731                                         !
 ! D131  D(49,45,55,56)       -173.2047                                         !
 ! D132  D(49,45,55,57)         -2.873                                          !
 ! D133  D(43,46,50,51)       -171.5817                                         !
 ! D134  D(43,46,50,54)         10.1524                                         !
 ! D135  D(47,46,50,51)         69.3194                                         !
 ! D136  D(47,46,50,54)       -108.9465                                         !
 ! D137  D(48,46,50,51)        -47.2649                                         !
 ! D138  D(48,46,50,54)        134.4692                                         !
 ! D139  D(46,50,51,52)       -178.2199                                         !
 ! D140  D(46,50,51,53)          1.9834                                         !
 ! D141  D(54,50,51,52)          0.0451                                         !
 ! D142  D(54,50,51,53)       -179.7515                                         !
 ! D143  D(45,55,57,58)        -25.3417                                         !
 ! D144  D(45,55,57,59)       -140.787                                          !
 ! D145  D(45,55,57,60)         94.2269                                         !
 ! D146  D(56,55,57,58)        144.8143                                         !
 ! D147  D(56,55,57,59)         29.369                                          !
 ! D148  D(56,55,57,60)        -95.6171                                         !
 ! D149  D(55,57,59,63)       -155.0057                                         !
 ! D150  D(55,57,59,79)         26.7317                                         !
 ! D151  D(58,57,59,63)         88.9248                                         !
 ! D152  D(58,57,59,79)        -89.3379                                         !
 ! D153  D(60,57,59,63)        -29.7431                                         !
 ! D154  D(60,57,59,79)        151.9942                                         !
 ! D155  D(55,57,60,61)        158.6895                                         !
 ! D156  D(55,57,60,62)         43.3672                                         !
 ! D157  D(55,57,60,64)        -78.606                                          !
 ! D158  D(58,57,60,61)        -83.1074                                         !
 ! D159  D(58,57,60,62)        161.5703                                         !
 ! D160  D(58,57,60,64)         39.5971                                         !
 ! D161  D(59,57,60,61)         33.5488                                         !
 ! D162  D(59,57,60,62)        -81.7735                                         !
 ! D163  D(59,57,60,64)        156.2533                                         !
 ! D164  D(57,59,79,80)        178.4704                                         !
 ! D165  D(63,59,79,80)          0.1958                                         !
 ! D166  D(57,60,64,65)        -94.6028                                         !
 ! D167  D(57,60,64,66)         21.9705                                         !
 ! D168  D(57,60,64,67)        144.8041                                         !
 ! D169  D(61,60,64,65)         27.3884                                         !
 ! D170  D(61,60,64,66)        143.9617                                         !
 ! D171  D(61,60,64,67)        -93.2046                                         !
 ! D172  D(62,60,64,65)        145.2959                                         !
 ! D173  D(62,60,64,66)        -98.1308                                         !
 ! D174  D(62,60,64,67)         24.7029                                         !
 ! D175  D(60,64,67,68)         45.7287                                         !
 ! D176  D(60,64,67,69)        165.1849                                         !
 ! D177  D(60,64,67,70)        -74.3962                                         !
 ! D178  D(65,64,67,68)        -75.7918                                         !
 ! D179  D(65,64,67,69)         43.6644                                         !
 ! D180  D(65,64,67,70)        164.0833                                         !
 ! D181  D(66,64,67,68)        169.8201                                         !
 ! D182  D(66,64,67,69)        -70.7238                                         !
 ! D183  D(66,64,67,70)         49.6951                                         !
 ! D184  D(64,67,70,71)        -18.0032                                         !
 ! D185  D(64,67,70,78)        177.281                                          !
 ! D186  D(68,67,70,71)       -138.2359                                         !
 ! D187  D(68,67,70,78)         57.0483                                         !
 ! D188  D(69,67,70,71)        103.4149                                         !
 ! D189  D(69,67,70,78)        -61.301                                          !
 ! D190  D(67,70,78,72)        -16.4838                                         !
 ! D191  D(67,70,78,75)        163.4056                                         !
 ! D192  D(71,70,78,72)        178.4222                                         !
 ! D193  D(71,70,78,75)         -1.6884                                         !
 ! D194  D(73,72,78,70)        165.7553                                         !
 ! D195  D(73,72,78,75)        -14.1347                                         !
 ! D196  D(74,72,78,70)         -0.2048                                         !
 ! D197  D(74,72,78,75)        179.9052                                         !
 ! D198  D(76,75,78,70)        157.5759                                         !
 ! D199  D(76,75,78,72)        -22.5331                                         !
 ! D200  D(77,75,78,70)         -2.0786                                         !
 ! D201  D(77,75,78,72)        177.8125                                         !
 --------------------------------------------------------------------------------
 Symmetry turned off by external request.
 Stoichiometry    C25H41N8O6(1+)
 Framework group  C1[X(C25H41N8O6)]
 Deg. of freedom   234
 Full point group                 C1      NOp   1
                          Input orientation:                          
 ---------------------------------------------------------------------
 Center     Atomic      Atomic             Coordinates (Angstroms)
 Number     Number       Type             X           Y           Z
 ---------------------------------------------------------------------
      1          7           0       -4.407606    1.679694    3.213907
      2          1           0       -3.997083    0.775199    3.440131
      3          1           0       -4.690130    2.122588    4.085538
      4          6           0       -3.418827    2.491572    2.523529
      5          1           0       -3.927552    3.370203    2.105817
      6          6           0       -2.840960    1.652825    1.384859
      7          6           0       -2.232434    2.985760    3.410566
      8          1           0       -1.789509    2.104462    3.887947
      9          1           0       -2.660462    3.606957    4.208239
     10          8           0       -2.470717    0.490639    1.571285
     11          6           0       -1.170993    3.757739    2.656699
     12          6           0        0.141084    3.274574    2.564687
     13          1           0        0.402101    2.346325    3.067160
     14          6           0       -1.479222    4.964801    2.009704
     15          1           0       -2.482673    5.377849    2.091461
     16          6           0        1.123718    3.974514    1.862221
     17          1           0        2.138920    3.587175    1.836205
     18          6           0       -0.505609    5.660840    1.289450
     19          1           0       -0.762766    6.606980    0.818112
     20          6           0        0.800334    5.168267    1.214437
     21          1           0        1.566625    5.721051    0.677373
     22          7           0       -2.715649    2.280396    0.184498
     23          1           0       -2.868581    3.279589    0.147899
     24          6           0       -2.022079    1.656966   -0.941666
     25          1           0       -2.344459    0.612702   -0.963513
     26          6           0       -0.513358    1.685935   -0.671617
     27          6           0       -2.395505    2.342355   -2.258491
     28          1           0       -3.477513    2.215782   -2.391260
     29          1           0       -2.209074    3.421808   -2.168723
     30          8           0        0.234441    2.574927   -1.129311
     31          6           0       -1.656341    1.815006   -3.507657
     32          1           0       -0.611791    2.140871   -3.433428
     33          6           0       -1.659051    0.281407   -3.597873
     34          1           0       -2.678789   -0.118795   -3.530503
     35          1           0       -1.239030   -0.045758   -4.555319
     36          1           0       -1.049394   -0.175855   -2.810280
     37          6           0       -2.261195    2.452848   -4.765580
     38          1           0       -3.300797    2.133269   -4.907942
     39          1           0       -2.255007    3.548551   -4.703062
     40          1           0       -1.700509    2.161419   -5.660983
     41          7           0       -0.042059    0.712166    0.111084
     42          1           0       -0.713238    0.086509    0.549012
     43          6           0        1.371831    0.665586    0.416976
     44          1           0        1.680235    1.673059    0.697967
     45          6           0        2.146802    0.279271   -0.865543
     46          6           0        1.662258   -0.267705    1.596001
     47          1           0        0.861522   -0.161801    2.340849
     48          1           0        1.670634   -1.318720    1.283230
     49          8           0        1.623403   -0.353214   -1.777933
     50          6           0        2.984326    0.107659    2.278284
     51          7           0        3.417050   -0.763782    3.216469
     52          1           0        4.269492   -0.551511    3.717140
     53          1           0        2.927566   -1.618818    3.436799
     54          8           0        3.590930    1.146651    2.013105
     55          7           0        3.418693    0.746651   -0.887993
     56          1           0        3.777704    1.164927   -0.032619
     57          6           0        4.333019    0.491000   -1.992536
     58          1           0        4.000097   -0.437022   -2.477043
     59          6           0        5.752676    0.219162   -1.491870
     60          6           0        4.316087    1.638360   -3.022671
     61          1           0        5.242793    1.608443   -3.601961
     62          1           0        4.322291    2.581115   -2.460225
     63          8           0        6.750047    0.403979   -2.148763
     64          6           0        3.094235    1.578312   -3.967251
     65          1           0        3.366991    1.050370   -4.887267
     66          1           0        2.279021    0.998775   -3.521080
     67          6           0        2.562730    2.958702   -4.356054
     68          1           0        3.400732    3.611589   -4.634549
     69          1           0        1.882514    2.886077   -5.214058
     70          7           0        1.840170    3.547674   -3.216672
     71          1           0        1.534449    2.921752   -2.466973
     72          7           0        1.641564    5.688809   -4.113202
     73          1           0        1.085466    6.522229   -4.233207
     74          1           0        2.320634    5.483669   -4.829723
     75          7           0        0.389446    5.072312   -2.256873
     76          1           0        0.220765    6.036119   -2.009527
     77          1           0        0.119943    4.337479   -1.593761
     78          6           0        1.295768    4.762442   -3.197100
     79          8           0        5.767213   -0.288965   -0.239164
     80          1           0        6.704270   -0.451349   -0.017433
 ---------------------------------------------------------------------
 Rotational constants (GHZ):           0.1131100           0.0788288           0.0626321
 Standard basis: 6-31G(d) (6D, 7F)
   667 basis functions,  1256 primitive gaussians,   667 cartesian basis functions
   147 alpha electrons      147 beta electrons
       nuclear repulsion energy      5077.9281759221 Hartrees.
 NAtoms=   80 NActive=   80 NUniq=   80 SFac= 1.00D+00 NAtFMM=   60 NAOKFM=T Big=T
 Integral buffers will be    131072 words long.
 Raffenetti 2 integral format.
 Two-electron integral symmetry is turned off.
 Nuclear repulsion after empirical dispersion term =     5077.8101342368 Hartrees.
 One-electron integrals computed using PRISM.
 NBasis=   667 RedAO= T EigKep=  4.60D-04  NBF=   667
 NBsUse=   667 1.00D-06 EigRej= -1.00D+00 NBFU=   667
 Initial guess from the checkpoint file:  "conf-883.chk"
 B after Tr=     0.000000    0.000000    0.000000
         Rot=    1.000000    0.000000    0.000000    0.000000 Ang=   0.00 deg.
 Requested convergence on RMS density matrix=1.00D-08 within 128 cycles.
 Requested convergence on MAX density matrix=1.00D-06.
 Requested convergence on             energy=1.00D-06.
 No special actions if energy rises.
 SCF Done:  E(RB3LYP) =  -1866.74891097     A.U. after    1 cycles
            NFock=  1  Conv=0.77D-08     -V/T= 2.0094

 **********************************************************************

            Population analysis using the SCF Density.

 **********************************************************************

 Alpha  occ. eigenvalues --  -19.28589 -19.23676 -19.22735 -19.22127 -19.21468
 Alpha  occ. eigenvalues --  -19.20878 -14.51163 -14.49675 -14.49154 -14.46555
 Alpha  occ. eigenvalues --  -14.46218 -14.46048 -14.45055 -14.39133 -10.46579
 Alpha  occ. eigenvalues --  -10.41028 -10.39921 -10.39697 -10.38130 -10.38017
 Alpha  occ. eigenvalues --  -10.34882 -10.33265 -10.33229 -10.33201 -10.31184
 Alpha  occ. eigenvalues --  -10.30918 -10.29009 -10.28854 -10.28542 -10.28371
 Alpha  occ. eigenvalues --  -10.28183 -10.28178 -10.28117 -10.27947 -10.27875
 Alpha  occ. eigenvalues --  -10.27779 -10.27646 -10.25628 -10.24958  -1.19456
 Alpha  occ. eigenvalues --   -1.15495  -1.14886  -1.13802  -1.13138  -1.12619
 Alpha  occ. eigenvalues --   -1.10460  -1.04463  -1.03580  -1.03082  -1.02432
 Alpha  occ. eigenvalues --   -1.02009  -1.00838  -0.97045  -0.94492  -0.90806
 Alpha  occ. eigenvalues --   -0.90226  -0.88950  -0.86765  -0.85547  -0.84258
 Alpha  occ. eigenvalues --   -0.83521  -0.79935  -0.79690  -0.78484  -0.77015
 Alpha  occ. eigenvalues --   -0.76314  -0.74935  -0.73175  -0.72937  -0.71566
 Alpha  occ. eigenvalues --   -0.70549  -0.69704  -0.68979  -0.68705  -0.68356
 Alpha  occ. eigenvalues --   -0.68144  -0.67386  -0.66941  -0.64986  -0.64206
 Alpha  occ. eigenvalues --   -0.63618  -0.63126  -0.62921  -0.61894  -0.60998
 Alpha  occ. eigenvalues --   -0.60467  -0.60203  -0.59777  -0.58920  -0.58370
 Alpha  occ. eigenvalues --   -0.57995  -0.57108  -0.56217  -0.55931  -0.55196
 Alpha  occ. eigenvalues --   -0.55122  -0.54519  -0.54437  -0.54356  -0.54049
 Alpha  occ. eigenvalues --   -0.53000  -0.52858  -0.52482  -0.52301  -0.51684
 Alpha  occ. eigenvalues --   -0.51507  -0.50872  -0.50730  -0.50183  -0.50095
 Alpha  occ. eigenvalues --   -0.49780  -0.49093  -0.48866  -0.48559  -0.48087
 Alpha  occ. eigenvalues --   -0.47751  -0.47144  -0.46565  -0.46284  -0.45965
 Alpha  occ. eigenvalues --   -0.45765  -0.45100  -0.45048  -0.44782  -0.44503
 Alpha  occ. eigenvalues --   -0.44351  -0.43952  -0.43279  -0.42754  -0.41902
 Alpha  occ. eigenvalues --   -0.41473  -0.41167  -0.41095  -0.40554  -0.39023
 Alpha  occ. eigenvalues --   -0.38676  -0.37409  -0.37313  -0.36916  -0.36069
 Alpha  occ. eigenvalues --   -0.35543  -0.34955  -0.34654  -0.34202  -0.34059
 Alpha  occ. eigenvalues --   -0.33425  -0.30895
 Alpha virt. eigenvalues --   -0.11077  -0.10015  -0.09716  -0.09338  -0.08121
 Alpha virt. eigenvalues --   -0.07987  -0.07215  -0.06977  -0.06712  -0.03852
 Alpha virt. eigenvalues --   -0.02144  -0.01972  -0.01471  -0.00992  -0.00651
 Alpha virt. eigenvalues --   -0.00486   0.00654   0.01259   0.01916   0.02327
 Alpha virt. eigenvalues --    0.02565   0.02939   0.03149   0.03531   0.03821
 Alpha virt. eigenvalues --    0.04300   0.05105   0.05207   0.05441   0.05687
 Alpha virt. eigenvalues --    0.06264   0.06445   0.06694   0.06924   0.07398
 Alpha virt. eigenvalues --    0.07423   0.07625   0.07886   0.08356   0.08930
 Alpha virt. eigenvalues --    0.09170   0.09816   0.10218   0.10367   0.10745
 Alpha virt. eigenvalues --    0.10974   0.11190   0.11541   0.11833   0.12018
 Alpha virt. eigenvalues --    0.12042   0.12651   0.13054   0.13274   0.13372
 Alpha virt. eigenvalues --    0.14458   0.14543   0.14912   0.15036   0.15800
 Alpha virt. eigenvalues --    0.15982   0.16817   0.17118   0.17595   0.17996
 Alpha virt. eigenvalues --    0.18354   0.18887   0.19231   0.19547   0.20739
 Alpha virt. eigenvalues --    0.21139   0.21833   0.23002   0.23618   0.24034
 Alpha virt. eigenvalues --    0.24434   0.25407   0.25563   0.26369   0.27049
 Alpha virt. eigenvalues --    0.27289   0.28486   0.29935   0.31022   0.31395
 Alpha virt. eigenvalues --    0.33187   0.33842   0.36095   0.37263   0.38303
 Alpha virt. eigenvalues --    0.38758   0.39823   0.40186   0.41100   0.41722
 Alpha virt. eigenvalues --    0.42348   0.42812   0.43122   0.43553   0.43773
 Alpha virt. eigenvalues --    0.44353   0.44661   0.45009   0.45710   0.46379
 Alpha virt. eigenvalues --    0.46706   0.47127   0.47190   0.47868   0.48094
 Alpha virt. eigenvalues --    0.48216   0.48941   0.49230   0.49482   0.50137
 Alpha virt. eigenvalues --    0.50309   0.50956   0.51568   0.51731   0.51868
 Alpha virt. eigenvalues --    0.52150   0.52508   0.52862   0.53491   0.53736
 Alpha virt. eigenvalues --    0.53934   0.54735   0.54836   0.55023   0.55497
 Alpha virt. eigenvalues --    0.55801   0.56556   0.56736   0.57051   0.57679
 Alpha virt. eigenvalues --    0.57926   0.58220   0.58358   0.58875   0.59187
 Alpha virt. eigenvalues --    0.59567   0.60356   0.61467   0.62120   0.62707
 Alpha virt. eigenvalues --    0.63188   0.64069   0.64384   0.64656   0.64933
 Alpha virt. eigenvalues --    0.65849   0.66108   0.67281   0.68103   0.68171
 Alpha virt. eigenvalues --    0.68718   0.68782   0.69973   0.70258   0.70847
 Alpha virt. eigenvalues --    0.71164   0.71847   0.72375   0.72644   0.72936
 Alpha virt. eigenvalues --    0.73211   0.73514   0.73780   0.74223   0.74364
 Alpha virt. eigenvalues --    0.74668   0.75335   0.75703   0.75877   0.76374
 Alpha virt. eigenvalues --    0.76734   0.77115   0.77418   0.77891   0.78061
 Alpha virt. eigenvalues --    0.78352   0.78752   0.78967   0.79120   0.79581
 Alpha virt. eigenvalues --    0.79688   0.80257   0.81014   0.81169   0.81927
 Alpha virt. eigenvalues --    0.82224   0.82268   0.82977   0.83207   0.83468
 Alpha virt. eigenvalues --    0.83733   0.84027   0.84387   0.84751   0.85101
 Alpha virt. eigenvalues --    0.85545   0.85761   0.86406   0.86499   0.86883
 Alpha virt. eigenvalues --    0.87451   0.88071   0.88404   0.88479   0.89349
 Alpha virt. eigenvalues --    0.89434   0.89901   0.90332   0.90948   0.91833
 Alpha virt. eigenvalues --    0.91845   0.92149   0.92489   0.93751   0.94678
 Alpha virt. eigenvalues --    0.94831   0.95381   0.95963   0.96518   0.97343
 Alpha virt. eigenvalues --    0.98343   0.98611   0.98776   0.99874   1.00828
 Alpha virt. eigenvalues --    1.02210   1.02984   1.03344   1.03547   1.04753
 Alpha virt. eigenvalues --    1.05697   1.06195   1.06967   1.07587   1.08787
 Alpha virt. eigenvalues --    1.09146   1.09741   1.10746   1.12145   1.12349
 Alpha virt. eigenvalues --    1.14492   1.14816   1.15222   1.15825   1.16299
 Alpha virt. eigenvalues --    1.17676   1.17860   1.18914   1.19713   1.19914
 Alpha virt. eigenvalues --    1.21319   1.21975   1.22472   1.22946   1.23560
 Alpha virt. eigenvalues --    1.24337   1.25293   1.26292   1.28138   1.28595
 Alpha virt. eigenvalues --    1.29213   1.29906   1.30773   1.31328   1.32535
 Alpha virt. eigenvalues --    1.33505   1.34111   1.35322   1.36036   1.36393
 Alpha virt. eigenvalues --    1.37173   1.37348   1.38110   1.38691   1.39430
 Alpha virt. eigenvalues --    1.40131   1.40488   1.41480   1.42681   1.43180
 Alpha virt. eigenvalues --    1.43434   1.44956   1.45735   1.46486   1.47022
 Alpha virt. eigenvalues --    1.48394   1.49167   1.49437   1.51254   1.52687
 Alpha virt. eigenvalues --    1.53079   1.53583   1.54707   1.55670   1.56442
 Alpha virt. eigenvalues --    1.57726   1.58833   1.58979   1.60315   1.60694
 Alpha virt. eigenvalues --    1.61296   1.62321   1.62853   1.63419   1.63962
 Alpha virt. eigenvalues --    1.65117   1.65866   1.66657   1.66822   1.68060
 Alpha virt. eigenvalues --    1.69357   1.69977   1.70424   1.70907   1.71416
 Alpha virt. eigenvalues --    1.71922   1.72737   1.72927   1.73291   1.73536
 Alpha virt. eigenvalues --    1.74015   1.74445   1.74996   1.76262   1.76703
 Alpha virt. eigenvalues --    1.76900   1.77755   1.78501   1.79239   1.80117
 Alpha virt. eigenvalues --    1.80381   1.80683   1.81455   1.82280   1.82466
 Alpha virt. eigenvalues --    1.83158   1.83568   1.83918   1.84293   1.84957
 Alpha virt. eigenvalues --    1.85768   1.86584   1.86683   1.87321   1.88039
 Alpha virt. eigenvalues --    1.88830   1.89611   1.90055   1.90170   1.90793
 Alpha virt. eigenvalues --    1.91089   1.91416   1.91867   1.92811   1.93221
 Alpha virt. eigenvalues --    1.94186   1.94423   1.94845   1.95208   1.96511
 Alpha virt. eigenvalues --    1.96941   1.97529   1.98270   1.98532   1.99277
 Alpha virt. eigenvalues --    1.99436   2.00226   2.01576   2.01906   2.02022
 Alpha virt. eigenvalues --    2.03679   2.04281   2.05184   2.05960   2.06932
 Alpha virt. eigenvalues --    2.07962   2.08197   2.08762   2.08996   2.09615
 Alpha virt. eigenvalues --    2.10314   2.10557   2.11118   2.11644   2.14044
 Alpha virt. eigenvalues --    2.14617   2.15283   2.16343   2.16661   2.17004
 Alpha virt. eigenvalues --    2.18353   2.19031   2.19248   2.19587   2.21960
 Alpha virt. eigenvalues --    2.22255   2.23071   2.23530   2.23790   2.24897
 Alpha virt. eigenvalues --    2.26230   2.27441   2.28180   2.30206   2.30668
 Alpha virt. eigenvalues --    2.31090   2.31531   2.32010   2.32496   2.33777
 Alpha virt. eigenvalues --    2.34592   2.34748   2.37428   2.37555   2.37827
 Alpha virt. eigenvalues --    2.38545   2.38969   2.39981   2.40530   2.42099
 Alpha virt. eigenvalues --    2.43039   2.44255   2.45180   2.45593   2.46114
 Alpha virt. eigenvalues --    2.46912   2.47638   2.49418   2.50799   2.51260
 Alpha virt. eigenvalues --    2.51803   2.52314   2.53091   2.54057   2.54430
 Alpha virt. eigenvalues --    2.55677   2.56148   2.57691   2.58913   2.60618
 Alpha virt. eigenvalues --    2.60943   2.61525   2.62190   2.62910   2.63683
 Alpha virt. eigenvalues --    2.64125   2.64420   2.65888   2.66336   2.66894
 Alpha virt. eigenvalues --    2.68026   2.69186   2.72454   2.74517   2.75068
 Alpha virt. eigenvalues --    2.76381   2.78061   2.79447   2.83969   2.84962
 Alpha virt. eigenvalues --    2.86938   2.89434   2.91011   2.91673   2.92648
 Alpha virt. eigenvalues --    2.94199   2.95128   2.97252   2.97877   2.98739
 Alpha virt. eigenvalues --    3.00803   3.03614   3.07578   3.08104   3.12314
 Alpha virt. eigenvalues --    3.31688   3.67836   3.71361   3.72931   3.74417
 Alpha virt. eigenvalues --    3.79616   3.90247   3.94036   3.94858   3.99198
 Alpha virt. eigenvalues --    4.01665   4.03306   4.05148   4.05690   4.06661
 Alpha virt. eigenvalues --    4.09698   4.11411   4.12231   4.14700   4.16578
 Alpha virt. eigenvalues --    4.17599   4.21435   4.21868   4.25322   4.27302
 Alpha virt. eigenvalues --    4.28037   4.29190   4.34019   4.34087   4.35285
 Alpha virt. eigenvalues --    4.37000   4.40255   4.48085   4.48529   4.53911
 Alpha virt. eigenvalues --    4.54316   4.56882   4.60390   4.64489   4.65624
          Condensed to atoms (all electrons):
 Mulliken charges:
               1
     1  N   -0.706895
     2  H    0.321844
     3  H    0.309425
     4  C   -0.056413
     5  H    0.142755
     6  C    0.651357
     7  C   -0.367011
     8  H    0.156727
     9  H    0.167345
    10  O   -0.558766
    11  C    0.168402
    12  C   -0.191169
    13  H    0.132709
    14  C   -0.207110
    15  H    0.140679
    16  C   -0.128166
    17  H    0.166847
    18  C   -0.146192
    19  H    0.130855
    20  C   -0.142898
    21  H    0.129194
    22  N   -0.597358
    23  H    0.336908
    24  C   -0.066922
    25  H    0.198163
    26  C    0.679533
    27  C   -0.279941
    28  H    0.164375
    29  H    0.124197
    30  O   -0.614788
    31  C   -0.080584
    32  H    0.118863
    33  C   -0.467955
    34  H    0.151386
    35  H    0.153894
    36  H    0.170328
    37  C   -0.448062
    38  H    0.159216
    39  H    0.131428
    40  H    0.147628
    41  N   -0.600985
    42  H    0.382543
    43  C   -0.032645
    44  H    0.202914
    45  C    0.612623
    46  C   -0.428892
    47  H    0.201331
    48  H    0.196848
    49  O   -0.525648
    50  C    0.634703
    51  N   -0.740425
    52  H    0.362998
    53  H    0.357564
    54  O   -0.526876
    55  N   -0.623788
    56  H    0.380959
    57  C   -0.054778
    58  H    0.216967
    59  C    0.576521
    60  C   -0.272252
    61  H    0.193758
    62  H    0.147500
    63  O   -0.444922
    64  C   -0.338118
    65  H    0.176212
    66  H    0.210292
    67  C   -0.156356
    68  H    0.165796
    69  H    0.183385
    70  N   -0.628199
    71  H    0.420290
    72  N   -0.763871
    73  H    0.376547
    74  H    0.383671
    75  N   -0.796084
    76  H    0.358299
    77  H    0.430045
    78  C    0.806250
    79  O   -0.563166
    80  H    0.425156
 Sum of Mulliken charges =   1.00000
 Mulliken charges with hydrogens summed into heavy atoms:
               1
     1  N   -0.075625
     4  C    0.086342
     6  C    0.651357
     7  C   -0.042939
    10  O   -0.558766
    11  C    0.168402
    12  C   -0.058460
    14  C   -0.066430
    16  C    0.038681
    18  C   -0.015337
    20  C   -0.013704
    22  N   -0.260450
    24  C    0.131241
    26  C    0.679533
    27  C    0.008630
    30  O   -0.614788
    31  C    0.038279
    33  C    0.007653
    37  C   -0.009790
    41  N   -0.218443
    43  C    0.170269
    45  C    0.612623
    46  C   -0.030713
    49  O   -0.525648
    50  C    0.634703
    51  N   -0.019862
    54  O   -0.526876
    55  N   -0.242829
    57  C    0.162190
    59  C    0.576521
    60  C    0.069006
    63  O   -0.444922
    64  C    0.048386
    67  C    0.192824
    70  N   -0.207908
    72  N   -0.003652
    75  N   -0.007740
    78  C    0.806250
    79  O   -0.138010
 Electronic spatial extent (au):  <R**2>=          24033.6008
 Charge=              1.0000 electrons
 Dipole moment (field-independent basis, Debye):
    X=              5.2967    Y=             16.0653    Z=             -4.7007  Tot=             17.5569
 Quadrupole moment (field-independent basis, Debye-Ang):
   XX=           -201.8417   YY=           -126.4858   ZZ=           -154.4261
   XY=             -6.1670   XZ=             -5.6677   YZ=            -60.3711
 Traceless Quadrupole moment (field-independent basis, Debye-Ang):
   XX=            -40.9239   YY=             34.4321   ZZ=              6.4918
   XY=             -6.1670   XZ=             -5.6677   YZ=            -60.3711
 Octapole moment (field-independent basis, Debye-Ang**2):
  XXX=           -372.2621  YYY=           -825.9682  ZZZ=            213.6265  XYY=           -108.3384
  XXY=           -450.9307  XXZ=            187.3345  XZZ=            -71.4100  YZZ=           -237.8920
  YYZ=           -182.6716  XYZ=           -147.4663
 Hexadecapole moment (field-independent basis, Debye-Ang**3):
 XXXX=         -11361.2063 YYYY=          -6993.7627 ZZZZ=          -7640.6238 XXXY=           -209.2728
 XXXZ=           2034.6636 YYYX=            386.0017 YYYZ=          -1023.6987 ZZZX=            831.5822
 ZZZY=           -194.6578 XXYY=          -3279.9297 XXZZ=          -2924.8444 YYZZ=          -1967.5952
 XXYZ=            133.2857 YYXZ=           -119.1930 ZZXY=            261.7106
 N-N= 5.077810134237D+03 E-N=-1.447415973378D+04  KE= 1.849313106023D+03
 Unable to Open any file for archive entry.
 1\1\GINC-LAC-258\SP\RB3LYP\6-31G(d)\C25H41N8O6(1+)\KENGMITH\17-Jun-202
 2\0\\# B3LYP/6-31G* empiricaldispersion=gd3 guess=read geom=check nosy
 mm integral(ultrafinegrid)\\Candidate Structure: Conf:883 Charge calc 
 in gas phase\\1,1\N,0,-4.4076064869,1.6796941595,3.2139069973\H,0,-3.9
 970833093,0.7751985755,3.4401310344\H,0,-4.6901295604,2.1225878974,4.0
 85538495\C,0,-3.4188274567,2.4915722269,2.5235293606\H,0,-3.9275520974
 ,3.3702033613,2.1058165618\C,0,-2.8409602387,1.652825008,1.3848588647\
 C,0,-2.2324337093,2.9857598381,3.410566209\H,0,-1.7895092309,2.1044616
 972,3.8879467716\H,0,-2.6604624951,3.6069571293,4.2082388422\O,0,-2.47
 07166379,0.4906386706,1.5712851545\C,0,-1.1709932541,3.7577387614,2.65
 6698825\C,0,0.1410837785,3.2745736858,2.5646865445\H,0,0.4021013001,2.
 3463245432,3.0671602295\C,0,-1.4792218162,4.9648010283,2.0097035405\H,
 0,-2.4826731992,5.3778492999,2.0914608963\C,0,1.1237176389,3.974513586
 5,1.8622214149\H,0,2.1389203182,3.5871745761,1.8362053503\C,0,-0.50560
 87651,5.6608403657,1.2894504711\H,0,-0.762765638,6.6069795108,0.818111
 8515\C,0,0.8003344826,5.1682667112,1.2144370044\H,0,1.5666245869,5.721
 0505665,0.6773734939\N,0,-2.7156486091,2.2803963195,0.184497509\H,0,-2
 .8685809966,3.2795888409,0.1478990893\C,0,-2.0220793736,1.6569664584,-
 0.9416664958\H,0,-2.3444589049,0.612701995,-0.9635134469\C,0,-0.513357
 5339,1.6859346851,-0.6716170056\C,0,-2.3955052741,2.3423547281,-2.2584
 907049\H,0,-3.4775134867,2.2157820772,-2.3912595444\H,0,-2.2090743687,
 3.4218084272,-2.1687227847\O,0,0.2344409912,2.5749270407,-1.1293111778
 \C,0,-1.6563407247,1.8150058034,-3.5076569471\H,0,-0.6117905546,2.1408
 710977,-3.4334280092\C,0,-1.6590511456,0.2814074455,-3.5978727704\H,0,
 -2.6787892255,-0.1187953856,-3.5305031997\H,0,-1.2390298333,-0.0457581
 949,-4.5553192299\H,0,-1.0493940658,-0.1758554443,-2.8102801467\C,0,-2
 .2611949134,2.4528480676,-4.7655800266\H,0,-3.3007970907,2.1332691645,
 -4.907942017\H,0,-2.2550065931,3.5485507584,-4.7030623404\H,0,-1.70050
 86112,2.1614188516,-5.660983055\N,0,-0.0420585206,0.7121657331,0.11108
 40717\H,0,-0.7132381079,0.0865086941,0.5490123109\C,0,1.3718309038,0.6
 655859108,0.4169756912\H,0,1.6802352426,1.6730594212,0.6979665108\C,0,
 2.1468017458,0.2792706995,-0.8655432302\C,0,1.662257703,-0.2677048588,
 1.5960006104\H,0,0.8615224797,-0.1618006841,2.3408487667\H,0,1.6706335
 193,-1.31872,1.2832299257\O,0,1.623402616,-0.3532135311,-1.7779334748\
 C,0,2.9843259835,0.1076587548,2.2782839327\N,0,3.4170496905,-0.7637818
 768,3.2164692751\H,0,4.2694923412,-0.5515105277,3.7171404618\H,0,2.927
 5656814,-1.6188178263,3.4367988692\O,0,3.5909304631,1.1466513402,2.013
 1049396\N,0,3.4186926443,0.7466509432,-0.8879926305\H,0,3.7777043546,1
 .1649274691,-0.0326192324\C,0,4.3330186333,0.490999723,-1.9925355344\H
 ,0,4.0000966547,-0.4370223456,-2.4770425848\C,0,5.7526755673,0.2191615
 859,-1.491869698\C,0,4.3160873985,1.6383596042,-3.0226709538\H,0,5.242
 7930596,1.6084434382,-3.6019613508\H,0,4.3222914881,2.5811147766,-2.46
 02248062\O,0,6.7500465372,0.4039786535,-2.1487626088\C,0,3.0942352257,
 1.5783119395,-3.967250743\H,0,3.3669912571,1.0503697706,-4.8872674082\
 H,0,2.2790210749,0.9987745159,-3.5210802247\C,0,2.5627296349,2.9587020
 077,-4.3560543624\H,0,3.4007317253,3.6115892319,-4.634549309\H,0,1.882
 5140083,2.88607706,-5.2140576599\N,0,1.8401704394,3.5476741511,-3.2166
 716233\H,0,1.5344489088,2.921752421,-2.4669732725\N,0,1.6415636522,5.6
 88808765,-4.1132021766\H,0,1.0854661176,6.5222293187,-4.2332069068\H,0
 ,2.3206342791,5.4836693331,-4.8297229849\N,0,0.3894463847,5.0723116976
 ,-2.2568730845\H,0,0.2207648259,6.0361194629,-2.0095270583\H,0,0.11994
 26594,4.3374792154,-1.5937612038\C,0,1.2957678514,4.7624419301,-3.1971
 003462\O,0,5.7672126703,-0.2889654909,-0.2391638631\H,0,6.7042701907,-
 0.4513493919,-0.0174332024\\Version=ES64L-G16RevC.01\HF=-1866.748911\R
 MSD=7.743e-09\Dipole=0.6980159,2.5068919,-0.9063675\Quadrupole=-30.425
 886,25.5994079,4.8264781,-4.5850465,-4.2137953,-44.884466\PG=C01 [X(C2
 5H41N8O6)]\\@
 The archive entry for this job was punched.


 FAULTILY FAULTLESS, ICILY REGULAR, SPLENDIDLY NULL...
           MAUDE BY TENNYSON
 Job cpu time:       0 days  0 hours  2 minutes 44.6 seconds.
 Elapsed time:       0 days  0 hours  0 minutes 42.2 seconds.
 File lengths (MBytes):  RWF=    344 Int=      0 D2E=      0 Chk=     48 Scr=     16
 Normal termination of Gaussian 16 at Fri Jun 17 19:45:13 2022.
