 Entering Gaussian System, Link 0=/opt/software/Gaussian/g16-AVX2-C.01/g16/g16
 Input=charge-conf-608.com
 Output=charge-conf-608.log
 Initial command:
 /opt/software/Gaussian/g16-AVX2-C.01/g16/l1.exe "/mnt/gs21/scratch/kengmith/Gau-125376.inp" -scrdir="/mnt/gs21/scratch/kengmith/"
 Entering Link 1 = /opt/software/Gaussian/g16-AVX2-C.01/g16/l1.exe PID=    125386.
  
 Copyright (c) 1988-2019, Gaussian, Inc.  All Rights Reserved.
  
 This is part of the Gaussian(R) 16 program.  It is based on
 the Gaussian(R) 09 system (copyright 2009, Gaussian, Inc.),
 the Gaussian(R) 03 system (copyright 2003, Gaussian, Inc.),
 the Gaussian(R) 98 system (copyright 1998, Gaussian, Inc.),
 the Gaussian(R) 94 system (copyright 1995, Gaussian, Inc.),
 the Gaussian 92(TM) system (copyright 1992, Gaussian, Inc.),
 the Gaussian 90(TM) system (copyright 1990, Gaussian, Inc.),
 the Gaussian 88(TM) system (copyright 1988, Gaussian, Inc.),
 the Gaussian 86(TM) system (copyright 1986, Carnegie Mellon
 University), and the Gaussian 82(TM) system (copyright 1983,
 Carnegie Mellon University). Gaussian is a federally registered
 trademark of Gaussian, Inc.
  
 This software contains proprietary and confidential information,
 including trade secrets, belonging to Gaussian, Inc.
  
 This software is provided under written license and may be
 used, copied, transmitted, or stored only in accord with that
 written license.
  
 The following legend is applicable only to US Government
 contracts under FAR:
  
                    RESTRICTED RIGHTS LEGEND
  
 Use, reproduction and disclosure by the US Government is
 subject to restrictions as set forth in subparagraphs (a)
 and (c) of the Commercial Computer Software - Restricted
 Rights clause in FAR 52.227-19.
  
 Gaussian, Inc.
 340 Quinnipiac St., Bldg. 40, Wallingford CT 06492
  
  
 ---------------------------------------------------------------
 Warning -- This program may not be used in any manner that
 competes with the business of Gaussian, Inc. or will provide
 assistance to any competitor of Gaussian, Inc.  The licensee
 of this program is prohibited from giving any competitor of
 Gaussian, Inc. access to this program.  By using this program,
 the user acknowledges that Gaussian, Inc. is engaged in the
 business of creating and licensing software in the field of
 computational chemistry and represents and warrants to the
 licensee that it is not a competitor of Gaussian, Inc. and that
 it will not use this program in any manner prohibited above.
 ---------------------------------------------------------------
  

 Cite this work as:
 Gaussian 16, Revision C.01,
 M. J. Frisch, G. W. Trucks, H. B. Schlegel, G. E. Scuseria, 
 M. A. Robb, J. R. Cheeseman, G. Scalmani, V. Barone, 
 G. A. Petersson, H. Nakatsuji, X. Li, M. Caricato, A. V. Marenich, 
 J. Bloino, B. G. Janesko, R. Gomperts, B. Mennucci, H. P. Hratchian, 
 J. V. Ortiz, A. F. Izmaylov, J. L. Sonnenberg, D. Williams-Young, 
 F. Ding, F. Lipparini, F. Egidi, J. Goings, B. Peng, A. Petrone, 
 T. Henderson, D. Ranasinghe, V. G. Zakrzewski, J. Gao, N. Rega, 
 G. Zheng, W. Liang, M. Hada, M. Ehara, K. Toyota, R. Fukuda, 
 J. Hasegawa, M. Ishida, T. Nakajima, Y. Honda, O. Kitao, H. Nakai, 
 T. Vreven, K. Throssell, J. A. Montgomery, Jr., J. E. Peralta, 
 F. Ogliaro, M. J. Bearpark, J. J. Heyd, E. N. Brothers, K. N. Kudin, 
 V. N. Staroverov, T. A. Keith, R. Kobayashi, J. Normand, 
 K. Raghavachari, A. P. Rendell, J. C. Burant, S. S. Iyengar, 
 J. Tomasi, M. Cossi, J. M. Millam, M. Klene, C. Adamo, R. Cammi, 
 J. W. Ochterski, R. L. Martin, K. Morokuma, O. Farkas, 
 J. B. Foresman, and D. J. Fox, Gaussian, Inc., Wallingford CT, 2019.
 
 ******************************************
 Gaussian 16:  ES64L-G16RevC.01  3-Jul-2019
                 2-Aug-2022 
 ******************************************
 %mem=8gb
 %nproc=4
 Will use up to    4 processors via shared memory.
 %chk=conf-608.chk
 ----------------------------------------------------------------------
 # B3LYP/6-31G* empiricaldispersion=gd3 guess=read geom=check nosymm in
 tegral(ultrafinegrid)
 ----------------------------------------------------------------------
 1/29=2,38=1,172=1/1;
 2/12=2,15=1,40=1/2;
 3/5=1,6=6,7=1,11=2,14=-4,25=1,30=1,74=-5,75=-5,116=-2,124=31/1,2,3;
 4/5=1/1;
 5/5=2,38=6/2;
 6/7=2,8=2,9=2,10=2,28=1/1;
 99/5=1,9=1/99;
 ------------------------------------------------------
 Candidate Structure: Conf:608 Charge calc in gas phase
 ------------------------------------------------------
 Structure from the checkpoint file:  "conf-608.chk"
 Charge =  1 Multiplicity = 1
 Redundant internal coordinates found in file.  (old form).
 N,0,-9.4763214929,5.061300514,7.2560644762
 H,0,-9.3777922315,4.0405712485,7.517468379
 H,0,-10.2840227843,5.4993737827,7.7033208183
 H,0,-8.6115000898,5.547863577,7.5465496195
 C,0,-9.5505305123,5.0124836185,5.7466478581
 H,0,-10.6094340776,5.0568995944,5.4740749918
 C,0,-9.0231962188,3.5809845875,5.4367320714
 C,0,-8.7757249216,6.1911445364,5.1135916827
 H,0,-9.3173863995,7.1164622416,5.3432417982
 H,0,-8.8205692939,6.0796680379,4.0253397336
 O,0,-8.9179883628,2.7890755005,6.3842366371
 C,0,-7.3442368773,6.2734174182,5.6002196516
 C,0,-7.0354953352,7.0382727045,6.7386806706
 H,0,-7.7987758122,7.6727006588,7.1901801885
 C,0,-6.3233478778,5.5461861486,4.970349727
 H,0,-6.5347393757,4.9814294167,4.066488522
 C,0,-5.7361006679,7.0552825081,7.2551623643
 H,0,-5.5090558271,7.6598738008,8.1281889583
 C,0,-5.0268102624,5.5725880312,5.483836575
 H,0,-4.2414887854,5.0157553124,4.9809095572
 C,0,-4.7321310368,6.3152807771,6.6307614322
 H,0,-3.7203915684,6.331034169,7.0244943113
 N,0,-8.7575131159,3.302508846,4.1665881512
 H,0,-8.6889403176,4.034586649,3.4589411399
 C,0,-8.0854620594,2.0765747042,3.7365361938
 H,0,-7.4484818414,1.7330112785,4.5590691204
 C,0,-7.1976845734,2.5206985215,2.5502882114
 C,0,-9.0855330279,0.9745548497,3.3628743256
 H,0,-8.564081772,0.0626448703,3.0566999184
 H,0,-9.7274212046,1.2988974705,2.537893125
 H,0,-9.71036644,0.7362245317,4.2282092386
 O,0,-7.2638437665,3.6861113592,2.1303275187
 N,0,-6.3918514382,1.5857221353,2.0438026817
 H,0,-6.3769126175,0.6249675896,2.382546043
 C,0,-5.5065907309,1.8121338316,0.9085562898
 H,0,-6.0716384698,2.3252464667,0.1213190535
 C,0,-5.0797410369,0.4108300072,0.4368916649
 C,0,-4.2809339655,2.6575872581,1.2981039311
 H,0,-3.6558031124,2.8652020882,0.42474618
 H,0,-3.6671004045,2.1217658525,2.0268446078
 H,0,-4.6196989515,3.6097712507,1.7149215942
 O,0,-5.3044123971,-0.5798984059,1.1280292092
 N,0,-4.4569143767,0.3715280022,-0.7672784463
 H,0,-4.2241934035,1.2528480087,-1.2064676998
 C,0,-3.6283290111,-0.7660738131,-1.1361241995
 H,0,-4.1446882458,-1.6526478738,-0.7540676131
 C,0,-2.2796642378,-0.6862630813,-0.3650891284
 C,0,-3.5080856488,-0.8907573599,-2.6649502652
 H,0,-3.1656973602,-1.908606892,-2.8975254137
 H,0,-4.5296390874,-0.8433469797,-3.064790993
 O,0,-2.1425564459,0.0560215436,0.6016084381
 C,0,-2.6137072163,0.1103080609,-3.3832232314
 C,0,-2.3284869225,-0.1079000628,-4.7401828132
 H,0,-2.7723334667,-0.9627451078,-5.2473288647
 C,0,-2.0309043174,1.2306908936,-2.7788988582
 H,0,-2.1880821972,1.4431914282,-1.7243976973
 C,0,-1.474941528,0.7266196488,-5.4505854453
 H,0,-1.2475561607,0.5332811511,-6.4946212512
 C,0,-1.1742878394,2.0844239321,-3.4758850184
 H,0,-0.7293392002,2.9469912893,-2.993619224
 O,0,0.0456637865,2.5340034686,-5.531700388
 H,0,0.4355277911,3.2827448238,-4.962288134
 C,0,-0.8626718653,1.8246872388,-4.8199022082
 N,0,-1.3056407202,-1.5360024107,-0.8035838391
 H,0,-1.3799779237,-1.8852838438,-1.7514489523
 C,0,0.0709197088,-1.4017895389,-0.337583011
 H,0,0.0291216688,-0.8253175927,0.5877497484
 C,0,0.8550922434,-0.6298148948,-1.4025738697
 C,0,0.7269322188,-2.7715041083,-0.0935256615
 H,0,0.8053258964,-3.2946561346,-1.056427291
 H,0,1.7574526852,-2.5980754353,0.2470932019
 O,0,0.6528765241,-0.8752146324,-2.6059800626
 C,0,-0.0190585353,-3.6589541485,0.9196493913
 H,0,-1.0134876328,-3.8707040491,0.5033740964
 C,0,0.7261242553,-4.9904364955,1.0878464613
 H,0,1.7223119492,-4.8294353055,1.5196030198
 H,0,0.1785694284,-5.6645787653,1.755960757
 H,0,0.8574570874,-5.5020652716,0.126889075
 C,0,-0.2144578999,-2.9602421135,2.273420558
 H,0,0.7504166639,-2.6446002917,2.6932090788
 H,0,-0.8587484007,-2.0776677879,2.1929155009
 H,0,-0.6800537003,-3.6419721209,2.9939221002
 N,0,1.7203343379,0.2958899292,-0.9652046807
 H,0,1.8752347276,0.3779974121,0.0306065562
 C,0,2.5385040682,1.0951580992,-1.8608628929
 H,0,1.910294244,1.3006054166,-2.7296270906
 C,0,3.737963987,0.2898080038,-2.4211734386
 C,0,2.9391959721,2.4539048939,-1.2254348139
 H,0,2.8900123871,2.3770007252,-0.1304982815
 H,0,3.9824810329,2.6685624863,-1.4671963653
 O,0,3.9794217296,-0.878033102,-2.1117945303
 C,0,2.0516963646,3.6047002294,-1.7173109313
 H,0,2.4245639738,4.5583865804,-1.3226202288
 H,0,1.0273329223,3.492279689,-1.3448640072
 C,0,1.9898230129,3.6971846663,-3.2610856487
 O,0,0.9444191526,4.2084183238,-3.7477000207
 O,0,2.9532932394,3.2198892848,-3.923970009
 N,0,4.4103117953,1.0019336252,-3.3506336446
 H,0,4.0496312144,1.9521153656,-3.5501278389
 C,0,5.5224904153,0.4842823495,-4.1052421102
 H,0,5.3263782389,-0.5565649189,-4.3746983013
 C,0,6.8388350548,0.4227518362,-3.3289548267
 C,0,5.750014029,1.3369746902,-5.3810611294
 H,0,6.53421177,0.8482708503,-5.9710712484
 H,0,6.1528071418,2.3068991335,-5.0640585407
 O,0,7.7725817345,-0.2648780868,-3.6761942282
 C,0,4.5023348479,1.6197205679,-6.2393541516
 H,0,4.784026035,2.3584231424,-7.0007380907
 H,0,3.7300714358,2.1073335062,-5.6373964751
 C,0,3.9186733087,0.4268930101,-7.0071068963
 H,0,4.6394721464,0.0524426065,-7.7398031989
 H,0,3.0334863456,0.7432549807,-7.5729379809
 N,0,3.5650951845,-0.7377369539,-6.1833441592
 H,0,4.1592632802,-1.5517647527,-6.2481155482
 N,0,1.6215203158,0.093885131,-5.175893468
 H,0,0.9903171445,0.026659102,-4.3791961942
 H,0,1.5480980109,0.9444659345,-5.7264183295
 N,0,2.5457234671,-1.907620178,-4.4661772264
 H,0,1.8588343523,-1.8315183191,-3.7139110105
 H,0,3.4458970093,-2.1940782114,-4.0938502626
 C,0,2.5831048425,-0.8135034107,-5.2734885957
 O,0,6.8696043527,1.2470626235,-2.2606287663
 H,0,7.7561404458,1.146430891,-1.864593083
 Recover connectivity data from disk.
                           ----------------------------
                           !    Current Parameters    !
                           ! (Angstroms and Degrees)  !
 --------------------------                            --------------------------
 ! Name  Definition              Value                                          !
 --------------------------------------------------------------------------------
 ! R1    R(1,2)                  1.0583                                         !
 ! R2    R(1,3)                  1.0219                                         !
 ! R3    R(1,4)                  1.0339                                         !
 ! R4    R(1,5)                  1.512                                          !
 ! R5    R(5,6)                  1.0943                                         !
 ! R6    R(5,7)                  1.5567                                         !
 ! R7    R(5,8)                  1.5461                                         !
 ! R8    R(7,11)                 1.2393                                         !
 ! R9    R(7,23)                 1.3272                                         !
 ! R10   R(8,9)                  1.0965                                         !
 ! R11   R(8,10)                 1.0949                                         !
 ! R12   R(8,12)                 1.5142                                         !
 ! R13   R(12,13)                1.4059                                         !
 ! R14   R(12,15)                1.4028                                         !
 ! R15   R(13,14)                1.0904                                         !
 ! R16   R(13,17)                1.3984                                         !
 ! R17   R(15,16)                1.0866                                         !
 ! R18   R(15,19)                1.3948                                         !
 ! R19   R(17,18)                1.0859                                         !
 ! R20   R(17,21)                1.3948                                         !
 ! R21   R(19,20)                1.0862                                         !
 ! R22   R(19,21)                1.3978                                         !
 ! R23   R(21,22)                1.0858                                         !
 ! R24   R(23,24)                1.0205                                         !
 ! R25   R(23,25)                1.4627                                         !
 ! R26   R(25,26)                1.0956                                         !
 ! R27   R(25,27)                1.5468                                         !
 ! R28   R(25,28)                1.5343                                         !
 ! R29   R(27,32)                1.2405                                         !
 ! R30   R(27,33)                1.3342                                         !
 ! R31   R(28,29)                1.0942                                         !
 ! R32   R(28,30)                1.0944                                         !
 ! R33   R(28,31)                1.0936                                         !
 ! R34   R(33,34)                1.0188                                         !
 ! R35   R(33,35)                1.4573                                         !
 ! R36   R(35,36)                1.0965                                         !
 ! R37   R(35,37)                1.5389                                         !
 ! R38   R(35,38)                1.5391                                         !
 ! R39   R(37,42)                1.2287                                         !
 ! R40   R(37,43)                1.3563                                         !
 ! R41   R(38,39)                1.0939                                         !
 ! R42   R(38,40)                1.0931                                         !
 ! R43   R(38,41)                1.0932                                         !
 ! R44   R(43,44)                1.0118                                         !
 ! R45   R(43,45)                1.4549                                         !
 ! R46   R(45,46)                1.0948                                         !
 ! R47   R(45,47)                1.5556                                         !
 ! R48   R(45,48)                1.5386                                         !
 ! R49   R(47,51)                1.2265                                         !
 ! R50   R(47,64)                1.3649                                         !
 ! R51   R(48,49)                1.0988                                         !
 ! R52   R(48,50)                1.098                                          !
 ! R53   R(48,52)                1.5225                                         !
 ! R54   R(52,53)                1.4037                                         !
 ! R55   R(52,55)                1.4                                            !
 ! R56   R(53,54)                1.0886                                         !
 ! R57   R(53,57)                1.3891                                         !
 ! R58   R(55,56)                1.0871                                         !
 ! R59   R(55,59)                1.3959                                         !
 ! R60   R(57,58)                1.0859                                         !
 ! R61   R(57,63)                1.4066                                         !
 ! R62   R(59,60)                1.0838                                         !
 ! R63   R(59,63)                1.4039                                         !
 ! R64   R(61,62)                1.0183                                         !
 ! R65   R(61,63)                1.3546                                         !
 ! R66   R(64,65)                1.0129                                         !
 ! R67   R(64,66)                1.4595                                         !
 ! R68   R(66,67)                1.091                                          !
 ! R69   R(66,68)                1.5314                                         !
 ! R70   R(66,69)                1.5382                                         !
 ! R71   R(68,72)                1.2447                                         !
 ! R72   R(68,83)                1.3405                                         !
 ! R73   R(69,70)                1.0986                                         !
 ! R74   R(69,71)                1.0991                                         !
 ! R75   R(69,73)                1.5397                                         !
 ! R76   R(73,74)                1.0986                                         !
 ! R77   R(73,75)                1.5351                                         !
 ! R78   R(73,79)                1.5359                                         !
 ! R79   R(75,76)                1.0976                                         !
 ! R80   R(75,77)                1.0957                                         !
 ! R81   R(75,78)                1.0966                                         !
 ! R82   R(79,80)                1.0986                                         !
 ! R83   R(79,81)                1.0957                                         !
 ! R84   R(79,82)                1.0957                                         !
 ! R85   R(83,84)                1.0111                                         !
 ! R86   R(83,85)                1.4527                                         !
 ! R87   R(85,86)                1.0916                                         !
 ! R88   R(85,87)                1.5496                                         !
 ! R89   R(85,88)                1.5526                                         !
 ! R90   R(87,91)                1.232                                          !
 ! R91   R(87,98)                1.3502                                         !
 ! R92   R(88,89)                1.0987                                         !
 ! R93   R(88,90)                1.0922                                         !
 ! R94   R(88,92)                1.5343                                         !
 ! R95   R(92,93)                1.0974                                         !
 ! R96   R(92,94)                1.0958                                         !
 ! R97   R(92,95)                1.5478                                         !
 ! R98   R(95,96)                1.2614                                         !
 ! R99   R(95,97)                1.2631                                         !
 ! R100  R(98,99)                1.0357                                         !
 ! R101  R(98,100)               1.4403                                         !
 ! R102  R(100,101)              1.0929                                         !
 ! R103  R(100,102)              1.5294                                         !
 ! R104  R(100,103)              1.5513                                         !
 ! R105  R(102,106)              1.2105                                         !
 ! R106  R(102,122)              1.3497                                         !
 ! R107  R(103,104)              1.0963                                         !
 ! R108  R(103,105)              1.097                                          !
 ! R109  R(103,107)              1.5406                                         !
 ! R110  R(107,108)              1.0976                                         !
 ! R111  R(107,109)              1.0939                                         !
 ! R112  R(107,110)              1.5339                                         !
 ! R113  R(110,111)              1.0939                                         !
 ! R114  R(110,112)              1.0972                                         !
 ! R115  R(110,113)              1.4697                                         !
 ! R116  R(113,114)              1.0099                                         !
 ! R117  R(113,121)              1.3409                                         !
 ! R118  R(115,116)              1.0187                                         !
 ! R119  R(115,117)              1.0159                                         !
 ! R120  R(115,121)              1.3257                                         !
 ! R121  R(118,119)              1.0215                                         !
 ! R122  R(118,120)              1.0154                                         !
 ! R123  R(118,121)              1.3602                                         !
 ! R124  R(122,123)              0.9762                                         !
 ! A1    A(2,1,3)              112.2686                                         !
 ! A2    A(2,1,4)              107.8559                                         !
 ! A3    A(2,1,5)              102.7098                                         !
 ! A4    A(3,1,4)              109.6578                                         !
 ! A5    A(3,1,5)              114.3277                                         !
 ! A6    A(4,1,5)              109.6764                                         !
 ! A7    A(1,5,6)              107.1473                                         !
 ! A8    A(1,5,7)              102.2281                                         !
 ! A9    A(1,5,8)              111.0723                                         !
 ! A10   A(6,5,7)              108.3923                                         !
 ! A11   A(6,5,8)              110.6093                                         !
 ! A12   A(7,5,8)              116.7285                                         !
 ! A13   A(5,7,11)             117.6544                                         !
 ! A14   A(5,7,23)             116.8266                                         !
 ! A15   A(11,7,23)            125.493                                          !
 ! A16   A(5,8,9)              108.0604                                         !
 ! A17   A(5,8,10)             107.9894                                         !
 ! A18   A(5,8,12)             112.5573                                         !
 ! A19   A(9,8,10)             105.894                                          !
 ! A20   A(9,8,12)             110.7228                                         !
 ! A21   A(10,8,12)            111.3272                                         !
 ! A22   A(8,12,13)            119.8304                                         !
 ! A23   A(8,12,15)            121.0337                                         !
 ! A24   A(13,12,15)           119.0671                                         !
 ! A25   A(12,13,14)           119.8767                                         !
 ! A26   A(12,13,17)           120.6491                                         !
 ! A27   A(14,13,17)           119.3698                                         !
 ! A28   A(12,15,16)           120.0918                                         !
 ! A29   A(12,15,19)           120.0916                                         !
 ! A30   A(16,15,19)           119.7978                                         !
 ! A31   A(13,17,18)           119.8664                                         !
 ! A32   A(13,17,21)           119.8052                                         !
 ! A33   A(18,17,21)           120.317                                          !
 ! A34   A(15,19,20)           119.468                                          !
 ! A35   A(15,19,21)           120.5374                                         !
 ! A36   A(20,19,21)           119.9931                                         !
 ! A37   A(17,21,19)           119.8326                                         !
 ! A38   A(17,21,22)           120.0456                                         !
 ! A39   A(19,21,22)           120.1123                                         !
 ! A40   A(7,23,24)            121.7736                                         !
 ! A41   A(7,23,25)            123.3131                                         !
 ! A42   A(24,23,25)           111.5                                            !
 ! A43   A(23,25,26)           108.0122                                         !
 ! A44   A(23,25,27)           104.3909                                         !
 ! A45   A(23,25,28)           111.9689                                         !
 ! A46   A(26,25,27)           109.3969                                         !
 ! A47   A(26,25,28)           109.6672                                         !
 ! A48   A(27,25,28)           113.1755                                         !
 ! A49   A(25,27,32)           119.9173                                         !
 ! A50   A(25,27,33)           115.8856                                         !
 ! A51   A(32,27,33)           124.197                                          !
 ! A52   A(25,28,29)           110.8616                                         !
 ! A53   A(25,28,30)           110.6705                                         !
 ! A54   A(25,28,31)           109.6468                                         !
 ! A55   A(29,28,30)           108.3949                                         !
 ! A56   A(29,28,31)           108.1838                                         !
 ! A57   A(30,28,31)           109.022                                          !
 ! A58   A(27,33,34)           122.9203                                         !
 ! A59   A(27,33,35)           123.6246                                         !
 ! A60   A(34,33,35)           113.3661                                         !
 ! A61   A(33,35,36)           108.5998                                         !
 ! A62   A(33,35,37)           105.4131                                         !
 ! A63   A(33,35,38)           111.8349                                         !
 ! A64   A(36,35,37)           110.4258                                         !
 ! A65   A(36,35,38)           109.5748                                         !
 ! A66   A(37,35,38)           110.9091                                         !
 ! A67   A(35,37,42)           120.737                                          !
 ! A68   A(35,37,43)           115.206                                          !
 ! A69   A(42,37,43)           124.057                                          !
 ! A70   A(35,38,39)           110.9327                                         !
 ! A71   A(35,38,40)           110.2826                                         !
 ! A72   A(35,38,41)           109.1584                                         !
 ! A73   A(39,38,40)           107.7204                                         !
 ! A74   A(39,38,41)           108.4319                                         !
 ! A75   A(40,38,41)           110.2891                                         !
 ! A76   A(37,43,44)           117.7596                                         !
 ! A77   A(37,43,45)           120.6156                                         !
 ! A78   A(44,43,45)           116.106                                          !
 ! A79   A(43,45,46)           106.0282                                         !
 ! A80   A(43,45,47)           109.1467                                         !
 ! A81   A(43,45,48)           111.0866                                         !
 ! A82   A(46,45,47)           106.1104                                         !
 ! A83   A(46,45,48)           108.5413                                         !
 ! A84   A(47,45,48)           115.3987                                         !
 ! A85   A(45,47,51)           121.2413                                         !
 ! A86   A(45,47,64)           115.31                                           !
 ! A87   A(51,47,64)           123.3811                                         !
 ! A88   A(45,48,49)           108.0435                                         !
 ! A89   A(45,48,50)           106.5959                                         !
 ! A90   A(45,48,52)           117.4777                                         !
 ! A91   A(49,48,50)           104.6445                                         !
 ! A92   A(49,48,52)           109.0368                                         !
 ! A93   A(50,48,52)           110.2638                                         !
 ! A94   A(48,52,53)           118.244                                          !
 ! A95   A(48,52,55)           124.5467                                         !
 ! A96   A(53,52,55)           117.2                                            !
 ! A97   A(52,53,54)           119.315                                          !
 ! A98   A(52,53,57)           121.7255                                         !
 ! A99   A(54,53,57)           118.9504                                         !
 ! A100  A(52,55,56)           120.993                                          !
 ! A101  A(52,55,59)           121.9631                                         !
 ! A102  A(56,55,59)           116.9693                                         !
 ! A103  A(53,57,58)           120.8915                                         !
 ! A104  A(53,57,63)           120.4749                                         !
 ! A105  A(58,57,63)           118.6179                                         !
 ! A106  A(55,59,60)           121.1001                                         !
 ! A107  A(55,59,63)           120.0716                                         !
 ! A108  A(60,59,63)           118.8241                                         !
 ! A109  A(62,61,63)           110.3615                                         !
 ! A110  A(57,63,59)           118.4946                                         !
 ! A111  A(57,63,61)           117.7154                                         !
 ! A112  A(59,63,61)           123.7125                                         !
 ! A113  A(47,64,65)           117.5764                                         !
 ! A114  A(47,64,66)           120.8796                                         !
 ! A115  A(65,64,66)           113.5608                                         !
 ! A116  A(64,66,67)           106.4549                                         !
 ! A117  A(64,66,68)           107.8957                                         !
 ! A118  A(64,66,69)           111.7789                                         !
 ! A119  A(67,66,68)           110.0657                                         !
 ! A120  A(67,66,69)           110.6267                                         !
 ! A121  A(68,66,69)           109.9285                                         !
 ! A122  A(66,68,72)           119.3272                                         !
 ! A123  A(66,68,83)           116.8559                                         !
 ! A124  A(72,68,83)           123.8119                                         !
 ! A125  A(66,69,70)           108.3847                                         !
 ! A126  A(66,69,71)           107.9706                                         !
 ! A127  A(66,69,73)           114.2695                                         !
 ! A128  A(70,69,71)           106.251                                          !
 ! A129  A(70,69,73)           109.6851                                         !
 ! A130  A(71,69,73)           109.9555                                         !
 ! A131  A(69,73,74)           107.4764                                         !
 ! A132  A(69,73,75)           109.6849                                         !
 ! A133  A(69,73,79)           112.2988                                         !
 ! A134  A(74,73,75)           108.2843                                         !
 ! A135  A(74,73,79)           107.8479                                         !
 ! A136  A(75,73,79)           111.0856                                         !
 ! A137  A(73,75,76)           110.8828                                         !
 ! A138  A(73,75,77)           110.9695                                         !
 ! A139  A(73,75,78)           111.5194                                         !
 ! A140  A(76,75,77)           107.6942                                         !
 ! A141  A(76,75,78)           107.7255                                         !
 ! A142  A(77,75,78)           107.8862                                         !
 ! A143  A(73,79,80)           110.841                                          !
 ! A144  A(73,79,81)           112.1157                                         !
 ! A145  A(73,79,82)           110.5234                                         !
 ! A146  A(80,79,81)           108.2464                                         !
 ! A147  A(80,79,82)           107.4997                                         !
 ! A148  A(81,79,82)           107.4338                                         !
 ! A149  A(68,83,84)           118.444                                          !
 ! A150  A(68,83,85)           122.8411                                         !
 ! A151  A(84,83,85)           118.44                                           !
 ! A152  A(83,85,86)           105.6707                                         !
 ! A153  A(83,85,87)           111.8964                                         !
 ! A154  A(83,85,88)           111.9942                                         !
 ! A155  A(86,85,87)           104.8033                                         !
 ! A156  A(86,85,88)           108.0313                                         !
 ! A157  A(87,85,88)           113.7691                                         !
 ! A158  A(85,87,91)           123.6107                                         !
 ! A159  A(85,87,98)           111.1152                                         !
 ! A160  A(91,87,98)           125.1147                                         !
 ! A161  A(85,88,89)           109.5755                                         !
 ! A162  A(85,88,90)           109.1425                                         !
 ! A163  A(85,88,92)           112.0815                                         !
 ! A164  A(89,88,90)           106.0869                                         !
 ! A165  A(89,88,92)           110.2486                                         !
 ! A166  A(90,88,92)           109.5215                                         !
 ! A167  A(88,92,93)           109.876                                          !
 ! A168  A(88,92,94)           110.7839                                         !
 ! A169  A(88,92,95)           112.8121                                         !
 ! A170  A(93,92,94)           106.5316                                         !
 ! A171  A(93,92,95)           108.6858                                         !
 ! A172  A(94,92,95)           107.9255                                         !
 ! A173  A(92,95,96)           116.2403                                         !
 ! A174  A(92,95,97)           118.0581                                         !
 ! A175  A(96,95,97)           125.6523                                         !
 ! A176  A(87,98,99)           116.2979                                         !
 ! A177  A(87,98,100)          123.7545                                         !
 ! A178  A(99,98,100)          119.8496                                         !
 ! A179  A(98,100,101)         109.4455                                         !
 ! A180  A(98,100,102)         114.4026                                         !
 ! A181  A(98,100,103)         110.2792                                         !
 ! A182  A(101,100,102)        103.9613                                         !
 ! A183  A(101,100,103)        110.3058                                         !
 ! A184  A(102,100,103)        108.2588                                         !
 ! A185  A(100,102,106)        122.7626                                         !
 ! A186  A(100,102,122)        113.378                                          !
 ! A187  A(106,102,122)        123.8068                                         !
 ! A188  A(100,103,104)        107.6073                                         !
 ! A189  A(100,103,105)        107.5883                                         !
 ! A190  A(100,103,107)        116.1225                                         !
 ! A191  A(104,103,105)        106.6783                                         !
 ! A192  A(104,103,107)        111.1797                                         !
 ! A193  A(105,103,107)        107.2226                                         !
 ! A194  A(103,107,108)        107.5862                                         !
 ! A195  A(103,107,109)        110.3042                                         !
 ! A196  A(103,107,110)        116.3781                                         !
 ! A197  A(108,107,109)        105.2431                                         !
 ! A198  A(108,107,110)        105.8912                                         !
 ! A199  A(109,107,110)        110.6985                                         !
 ! A200  A(107,110,111)        110.5309                                         !
 ! A201  A(107,110,112)        109.9306                                         !
 ! A202  A(107,110,113)        115.2914                                         !
 ! A203  A(111,110,112)        106.5521                                         !
 ! A204  A(111,110,113)        105.2301                                         !
 ! A205  A(112,110,113)        108.872                                          !
 ! A206  A(110,113,114)        117.4681                                         !
 ! A207  A(110,113,121)        126.9637                                         !
 ! A208  A(114,113,121)        115.3953                                         !
 ! A209  A(116,115,117)        115.7421                                         !
 ! A210  A(116,115,121)        117.5067                                         !
 ! A211  A(117,115,121)        125.8472                                         !
 ! A212  A(119,118,120)        110.3104                                         !
 ! A213  A(119,118,121)        113.3049                                         !
 ! A214  A(120,118,121)        114.8468                                         !
 ! A215  A(113,121,115)        122.8529                                         !
 ! A216  A(113,121,118)        117.9248                                         !
 ! A217  A(115,121,118)        119.1383                                         !
 ! A218  A(102,122,123)        106.1924                                         !
 ! D1    D(2,1,5,6)             97.7623                                         !
 ! D2    D(2,1,5,7)            -16.1121                                         !
 ! D3    D(2,1,5,8)           -141.3302                                         !
 ! D4    D(3,1,5,6)            -24.1277                                         !
 ! D5    D(3,1,5,7)           -138.0021                                         !
 ! D6    D(3,1,5,8)             96.7797                                         !
 ! D7    D(4,1,5,6)           -147.7518                                         !
 ! D8    D(4,1,5,7)             98.3738                                         !
 ! D9    D(4,1,5,8)            -26.8444                                         !
 ! D10   D(1,5,7,11)            12.53                                           !
 ! D11   D(1,5,7,23)          -169.2192                                         !
 ! D12   D(6,5,7,11)          -100.4228                                         !
 ! D13   D(6,5,7,23)            77.828                                          !
 ! D14   D(8,5,7,11)           133.9321                                         !
 ! D15   D(8,5,7,23)           -47.8171                                         !
 ! D16   D(1,5,8,9)            -68.6111                                         !
 ! D17   D(1,5,8,10)           177.2631                                         !
 ! D18   D(1,5,8,12)            53.9683                                         !
 ! D19   D(6,5,8,9)             50.2352                                         !
 ! D20   D(6,5,8,10)           -63.8906                                         !
 ! D21   D(6,5,8,12)           172.8146                                         !
 ! D22   D(7,5,8,9)            174.7624                                         !
 ! D23   D(7,5,8,10)            60.6367                                         !
 ! D24   D(7,5,8,12)           -62.6582                                         !
 ! D25   D(5,7,23,24)           13.8765                                         !
 ! D26   D(5,7,23,25)          171.2367                                         !
 ! D27   D(11,7,23,24)        -168.0266                                         !
 ! D28   D(11,7,23,25)         -10.6664                                         !
 ! D29   D(5,8,12,13)          -90.1729                                         !
 ! D30   D(5,8,12,15)           86.7819                                         !
 ! D31   D(9,8,12,13)           30.8963                                         !
 ! D32   D(9,8,12,15)         -152.1489                                         !
 ! D33   D(10,8,12,13)         148.4149                                         !
 ! D34   D(10,8,12,15)         -34.6303                                         !
 ! D35   D(8,12,13,14)          -8.0047                                         !
 ! D36   D(8,12,13,17)         175.7336                                         !
 ! D37   D(15,12,13,14)        174.9805                                         !
 ! D38   D(15,12,13,17)         -1.2812                                         !
 ! D39   D(8,12,15,16)           5.4739                                         !
 ! D40   D(8,12,15,19)        -176.1072                                         !
 ! D41   D(13,12,15,16)       -177.5484                                         !
 ! D42   D(13,12,15,19)          0.8705                                         !
 ! D43   D(12,13,17,18)        179.2736                                         !
 ! D44   D(12,13,17,21)          0.4968                                         !
 ! D45   D(14,13,17,18)          2.9931                                         !
 ! D46   D(14,13,17,21)       -175.7837                                         !
 ! D47   D(12,15,19,20)       -179.237                                          !
 ! D48   D(12,15,19,21)          0.3188                                         !
 ! D49   D(16,15,19,20)         -0.8134                                         !
 ! D50   D(16,15,19,21)        178.7424                                         !
 ! D51   D(13,17,21,19)          0.7045                                         !
 ! D52   D(13,17,21,22)        179.5833                                         !
 ! D53   D(18,17,21,19)       -178.0667                                         !
 ! D54   D(18,17,21,22)          0.8121                                         !
 ! D55   D(15,19,21,17)         -1.1157                                         !
 ! D56   D(15,19,21,22)       -179.9938                                         !
 ! D57   D(20,19,21,17)        178.4377                                         !
 ! D58   D(20,19,21,22)         -0.4403                                         !
 ! D59   D(7,23,25,26)         -27.3108                                         !
 ! D60   D(7,23,25,27)        -143.6681                                         !
 ! D61   D(7,23,25,28)          93.5382                                         !
 ! D62   D(24,23,25,26)        132.0965                                         !
 ! D63   D(24,23,25,27)         15.7392                                         !
 ! D64   D(24,23,25,28)       -107.0545                                         !
 ! D65   D(23,25,27,32)         -5.0426                                         !
 ! D66   D(23,25,27,33)        174.8751                                         !
 ! D67   D(26,25,27,32)       -120.4333                                         !
 ! D68   D(26,25,27,33)         59.4844                                         !
 ! D69   D(28,25,27,32)        116.9607                                         !
 ! D70   D(28,25,27,33)        -63.1216                                         !
 ! D71   D(23,25,28,29)       -179.2644                                         !
 ! D72   D(23,25,28,30)         60.423                                          !
 ! D73   D(23,25,28,31)        -59.8806                                         !
 ! D74   D(26,25,28,29)        -59.3792                                         !
 ! D75   D(26,25,28,30)       -179.6919                                         !
 ! D76   D(26,25,28,31)         60.0046                                         !
 ! D77   D(27,25,28,29)         63.0764                                         !
 ! D78   D(27,25,28,30)        -57.2362                                         !
 ! D79   D(27,25,28,31)       -177.5398                                         !
 ! D80   D(25,27,33,34)          2.3123                                         !
 ! D81   D(25,27,33,35)        178.6523                                         !
 ! D82   D(32,27,33,34)       -177.7739                                         !
 ! D83   D(32,27,33,35)         -1.434                                          !
 ! D84   D(27,33,35,36)        -46.4993                                         !
 ! D85   D(27,33,35,37)       -164.8419                                         !
 ! D86   D(27,33,35,38)         74.5425                                         !
 ! D87   D(34,33,35,36)        130.1543                                         !
 ! D88   D(34,33,35,37)         11.8116                                         !
 ! D89   D(34,33,35,38)       -108.804                                          !
 ! D90   D(33,35,37,42)        -12.0416                                         !
 ! D91   D(33,35,37,43)        167.9145                                         !
 ! D92   D(36,35,37,42)       -129.1531                                         !
 ! D93   D(36,35,37,43)         50.803                                          !
 ! D94   D(38,35,37,42)        109.179                                          !
 ! D95   D(38,35,37,43)        -70.865                                          !
 ! D96   D(33,35,38,39)       -176.8567                                         !
 ! D97   D(33,35,38,40)         63.8824                                         !
 ! D98   D(33,35,38,41)        -57.4331                                         !
 ! D99   D(36,35,38,39)        -56.3818                                         !
 ! D100  D(36,35,38,40)       -175.6428                                         !
 ! D101  D(36,35,38,41)         63.0418                                         !
 ! D102  D(37,35,38,39)         65.7834                                         !
 ! D103  D(37,35,38,40)        -53.4775                                         !
 ! D104  D(37,35,38,41)       -174.793                                          !
 ! D105  D(35,37,43,44)          7.016                                          !
 ! D106  D(35,37,43,45)        159.7985                                         !
 ! D107  D(42,37,43,44)       -173.0296                                         !
 ! D108  D(42,37,43,45)        -20.2471                                         !
 ! D109  D(37,43,45,46)         38.9166                                         !
 ! D110  D(37,43,45,47)        -74.9971                                         !
 ! D111  D(37,43,45,48)        156.6507                                         !
 ! D112  D(44,43,45,46)       -167.8728                                         !
 ! D113  D(44,43,45,47)         78.2135                                         !
 ! D114  D(44,43,45,48)        -50.1387                                         !
 ! D115  D(43,45,47,51)         15.1883                                         !
 ! D116  D(43,45,47,64)       -167.7031                                         !
 ! D117  D(46,45,47,51)        -98.672                                          !
 ! D118  D(46,45,47,64)         78.4366                                         !
 ! D119  D(48,45,47,51)        141.0935                                         !
 ! D120  D(48,45,47,64)        -41.7979                                         !
 ! D121  D(43,45,48,49)       -162.0558                                         !
 ! D122  D(43,45,48,50)        -50.0598                                         !
 ! D123  D(43,45,48,52)         74.1587                                         !
 ! D124  D(46,45,48,49)        -45.8589                                         !
 ! D125  D(46,45,48,50)         66.1371                                         !
 ! D126  D(46,45,48,52)       -169.6444                                         !
 ! D127  D(47,45,48,49)         73.0386                                         !
 ! D128  D(47,45,48,50)       -174.9653                                         !
 ! D129  D(47,45,48,52)        -50.7468                                         !
 ! D130  D(45,47,64,65)         21.9788                                         !
 ! D131  D(45,47,64,66)        168.882                                          !
 ! D132  D(51,47,64,65)       -160.9817                                         !
 ! D133  D(51,47,64,66)        -14.0786                                         !
 ! D134  D(45,48,52,53)        170.4374                                         !
 ! D135  D(45,48,52,55)         -8.4196                                         !
 ! D136  D(49,48,52,53)         47.1546                                         !
 ! D137  D(49,48,52,55)       -131.7023                                         !
 ! D138  D(50,48,52,53)        -67.2062                                         !
 ! D139  D(50,48,52,55)        113.9369                                         !
 ! D140  D(48,52,53,54)          1.7293                                         !
 ! D141  D(48,52,53,57)       -177.1675                                         !
 ! D142  D(55,52,53,54)       -179.3292                                         !
 ! D143  D(55,52,53,57)          1.7739                                         !
 ! D144  D(48,52,55,56)          0.5621                                         !
 ! D145  D(48,52,55,59)        177.3264                                         !
 ! D146  D(53,52,55,56)       -178.3057                                         !
 ! D147  D(53,52,55,59)         -1.5415                                         !
 ! D148  D(52,53,57,58)        178.7193                                         !
 ! D149  D(52,53,57,63)          0.1856                                         !
 ! D150  D(54,53,57,58)         -0.1814                                         !
 ! D151  D(54,53,57,63)       -178.7151                                         !
 ! D152  D(52,55,59,60)       -179.8881                                         !
 ! D153  D(52,55,59,63)         -0.6513                                         !
 ! D154  D(56,55,59,60)         -3.0002                                         !
 ! D155  D(56,55,59,63)        176.2365                                         !
 ! D156  D(53,57,63,59)         -2.398                                          !
 ! D157  D(53,57,63,61)        174.52                                           !
 ! D158  D(58,57,63,59)        179.0354                                         !
 ! D159  D(58,57,63,61)         -4.0466                                         !
 ! D160  D(55,59,63,57)          2.6182                                         !
 ! D161  D(55,59,63,61)       -174.1016                                         !
 ! D162  D(60,59,63,57)       -178.1277                                         !
 ! D163  D(60,59,63,61)          5.1525                                         !
 ! D164  D(62,61,63,57)       -178.4152                                         !
 ! D165  D(62,61,63,59)         -1.6717                                         !
 ! D166  D(47,64,66,67)         19.8624                                         !
 ! D167  D(47,64,66,68)        -98.2571                                         !
 ! D168  D(47,64,66,69)        140.7639                                         !
 ! D169  D(65,64,66,67)        167.9893                                         !
 ! D170  D(65,64,66,68)         49.8698                                         !
 ! D171  D(65,64,66,69)        -71.1092                                         !
 ! D172  D(64,66,68,72)        -40.5329                                         !
 ! D173  D(64,66,68,83)        138.6858                                         !
 ! D174  D(67,66,68,72)       -156.3084                                         !
 ! D175  D(67,66,68,83)         22.9103                                         !
 ! D176  D(69,66,68,72)         81.594                                          !
 ! D177  D(69,66,68,83)        -99.1872                                         !
 ! D178  D(64,66,69,70)         64.9334                                         !
 ! D179  D(64,66,69,71)        179.6306                                         !
 ! D180  D(64,66,69,73)        -57.698                                          !
 ! D181  D(67,66,69,70)       -176.6215                                         !
 ! D182  D(67,66,69,71)        -61.9243                                         !
 ! D183  D(67,66,69,73)         60.7471                                         !
 ! D184  D(68,66,69,70)        -54.8577                                         !
 ! D185  D(68,66,69,71)         59.8395                                         !
 ! D186  D(68,66,69,73)       -177.4891                                         !
 ! D187  D(66,68,83,84)          5.6011                                         !
 ! D188  D(66,68,83,85)        179.4797                                         !
 ! D189  D(72,68,83,84)       -175.2186                                         !
 ! D190  D(72,68,83,85)         -1.3401                                         !
 ! D191  D(66,69,73,74)         62.7636                                         !
 ! D192  D(66,69,73,75)       -179.7222                                         !
 ! D193  D(66,69,73,79)        -55.6878                                         !
 ! D194  D(70,69,73,74)        -59.1574                                         !
 ! D195  D(70,69,73,75)         58.3567                                         !
 ! D196  D(70,69,73,79)       -177.6088                                         !
 ! D197  D(71,69,73,74)       -175.6511                                         !
 ! D198  D(71,69,73,75)        -58.137                                          !
 ! D199  D(71,69,73,79)         65.8975                                         !
 ! D200  D(69,73,75,76)         64.0091                                         !
 ! D201  D(69,73,75,77)       -176.3477                                         !
 ! D202  D(69,73,75,78)        -56.038                                          !
 ! D203  D(74,73,75,76)       -178.9826                                         !
 ! D204  D(74,73,75,77)        -59.3394                                         !
 ! D205  D(74,73,75,78)         60.9702                                         !
 ! D206  D(79,73,75,76)        -60.7305                                         !
 ! D207  D(79,73,75,77)         58.9127                                         !
 ! D208  D(79,73,75,78)        179.2224                                         !
 ! D209  D(69,73,79,80)        -56.7025                                         !
 ! D210  D(69,73,79,81)         64.3841                                         !
 ! D211  D(69,73,79,82)       -175.7849                                         !
 ! D212  D(74,73,79,80)       -174.9346                                         !
 ! D213  D(74,73,79,81)        -53.848                                          !
 ! D214  D(74,73,79,82)         65.983                                          !
 ! D215  D(75,73,79,80)         66.5498                                         !
 ! D216  D(75,73,79,81)       -172.3636                                         !
 ! D217  D(75,73,79,82)        -52.5326                                         !
 ! D218  D(68,83,85,86)         36.8121                                         !
 ! D219  D(68,83,85,87)        -76.6879                                         !
 ! D220  D(68,83,85,88)        154.2011                                         !
 ! D221  D(84,83,85,86)       -149.3091                                         !
 ! D222  D(84,83,85,87)         97.1908                                         !
 ! D223  D(84,83,85,88)        -31.9201                                         !
 ! D224  D(83,85,87,91)         -1.6981                                         !
 ! D225  D(83,85,87,98)        173.9161                                         !
 ! D226  D(86,85,87,91)       -115.7346                                         !
 ! D227  D(86,85,87,98)         59.8795                                         !
 ! D228  D(88,85,87,91)        126.4759                                         !
 ! D229  D(88,85,87,98)        -57.9099                                         !
 ! D230  D(83,85,88,89)         23.0969                                         !
 ! D231  D(83,85,88,90)        138.8657                                         !
 ! D232  D(83,85,88,92)        -99.6319                                         !
 ! D233  D(86,85,88,89)        139.0628                                         !
 ! D234  D(86,85,88,90)       -105.1684                                         !
 ! D235  D(86,85,88,92)         16.334                                          !
 ! D236  D(87,85,88,89)       -105.0269                                         !
 ! D237  D(87,85,88,90)         10.7419                                         !
 ! D238  D(87,85,88,92)        132.2443                                         !
 ! D239  D(85,87,98,99)          0.2856                                         !
 ! D240  D(85,87,98,100)      -176.0999                                         !
 ! D241  D(91,87,98,99)        175.8201                                         !
 ! D242  D(91,87,98,100)        -0.5653                                         !
 ! D243  D(85,88,92,93)       -174.6155                                         !
 ! D244  D(85,88,92,94)         67.9431                                         !
 ! D245  D(85,88,92,95)        -53.1733                                         !
 ! D246  D(89,88,92,93)         63.0379                                         !
 ! D247  D(89,88,92,94)        -54.4035                                         !
 ! D248  D(89,88,92,95)       -175.5199                                         !
 ! D249  D(90,88,92,93)        -53.3309                                         !
 ! D250  D(90,88,92,94)       -170.7723                                         !
 ! D251  D(90,88,92,95)         68.1113                                         !
 ! D252  D(88,92,95,96)        152.8499                                         !
 ! D253  D(88,92,95,97)        -24.7423                                         !
 ! D254  D(93,92,95,96)        -85.0358                                         !
 ! D255  D(93,92,95,97)         97.372                                          !
 ! D256  D(94,92,95,96)         30.1216                                         !
 ! D257  D(94,92,95,97)       -147.4706                                         !
 ! D258  D(87,98,100,101)       39.275                                          !
 ! D259  D(87,98,100,102)      -76.901                                          !
 ! D260  D(87,98,100,103)      160.7949                                         !
 ! D261  D(99,98,100,101)     -136.9887                                         !
 ! D262  D(99,98,100,102)      106.8353                                         !
 ! D263  D(99,98,100,103)      -15.4688                                         !
 ! D264  D(98,100,102,106)     161.5778                                         !
 ! D265  D(98,100,102,122)     -20.9701                                         !
 ! D266  D(101,100,102,106)     42.2711                                         !
 ! D267  D(101,100,102,122)   -140.2768                                         !
 ! D268  D(103,100,102,106)    -75.0242                                         !
 ! D269  D(103,100,102,122)    102.4279                                         !
 ! D270  D(98,100,103,104)    -174.3382                                         !
 ! D271  D(98,100,103,105)      71.0499                                         !
 ! D272  D(98,100,103,107)     -49.042                                          !
 ! D273  D(101,100,103,104)    -53.3306                                         !
 ! D274  D(101,100,103,105)   -167.9426                                         !
 ! D275  D(101,100,103,107)     71.9656                                         !
 ! D276  D(102,100,103,104)     59.809                                          !
 ! D277  D(102,100,103,105)    -54.8029                                         !
 ! D278  D(102,100,103,107)   -174.8948                                         !
 ! D279  D(100,102,122,123)   -178.1941                                         !
 ! D280  D(106,102,122,123)     -0.7727                                         !
 ! D281  D(100,103,107,108)    170.8613                                         !
 ! D282  D(100,103,107,109)     56.5717                                         !
 ! D283  D(100,103,107,110)    -70.5966                                         !
 ! D284  D(104,103,107,108)    -65.6812                                         !
 ! D285  D(104,103,107,109)   -179.9708                                         !
 ! D286  D(104,103,107,110)     52.8609                                         !
 ! D287  D(105,103,107,108)     50.5724                                         !
 ! D288  D(105,103,107,109)    -63.7172                                         !
 ! D289  D(105,103,107,110)    169.1145                                         !
 ! D290  D(103,107,110,111)    -63.1344                                         !
 ! D291  D(103,107,110,112)    179.5183                                         !
 ! D292  D(103,107,110,113)     56.0229                                         !
 ! D293  D(108,107,110,111)     56.3273                                         !
 ! D294  D(108,107,110,112)    -61.02                                           !
 ! D295  D(108,107,110,113)    175.4846                                         !
 ! D296  D(109,107,110,111)    169.8925                                         !
 ! D297  D(109,107,110,112)     52.5452                                         !
 ! D298  D(109,107,110,113)    -70.9503                                         !
 ! D299  D(107,110,113,114)   -107.2573                                         !
 ! D300  D(107,110,113,121)     67.7181                                         !
 ! D301  D(111,110,113,114)     14.7927                                         !
 ! D302  D(111,110,113,121)   -170.2319                                         !
 ! D303  D(112,110,113,114)    128.6898                                         !
 ! D304  D(112,110,113,121)    -56.3348                                         !
 ! D305  D(110,113,121,115)     13.4482                                         !
 ! D306  D(110,113,121,118)   -169.9172                                         !
 ! D307  D(114,113,121,115)   -171.4866                                         !
 ! D308  D(114,113,121,118)      5.1479                                         !
 ! D309  D(116,115,121,113)   -171.9138                                         !
 ! D310  D(116,115,121,118)     11.4906                                         !
 ! D311  D(117,115,121,113)     -3.303                                          !
 ! D312  D(117,115,121,118)   -179.8985                                         !
 ! D313  D(119,118,121,113)    171.5532                                         !
 ! D314  D(119,118,121,115)    -11.6834                                         !
 ! D315  D(120,118,121,113)     43.5312                                         !
 ! D316  D(120,118,121,115)   -139.7054                                         !
 --------------------------------------------------------------------------------
 Symmetry turned off by external request.
 Stoichiometry    C41H61N10O11(1+)
 Framework group  C1[X(C41H61N10O11)]
 Deg. of freedom   363
 Full point group                 C1      NOp   1
                          Input orientation:                          
 ---------------------------------------------------------------------
 Center     Atomic      Atomic             Coordinates (Angstroms)
 Number     Number       Type             X           Y           Z
 ---------------------------------------------------------------------
      1          7           0       -9.476321    5.061301    7.256064
      2          1           0       -9.377792    4.040571    7.517468
      3          1           0      -10.284023    5.499374    7.703321
      4          1           0       -8.611500    5.547864    7.546550
      5          6           0       -9.550531    5.012484    5.746648
      6          1           0      -10.609434    5.056900    5.474075
      7          6           0       -9.023196    3.580985    5.436732
      8          6           0       -8.775725    6.191145    5.113592
      9          1           0       -9.317386    7.116462    5.343242
     10          1           0       -8.820569    6.079668    4.025340
     11          8           0       -8.917988    2.789076    6.384237
     12          6           0       -7.344237    6.273417    5.600220
     13          6           0       -7.035495    7.038273    6.738681
     14          1           0       -7.798776    7.672701    7.190180
     15          6           0       -6.323348    5.546186    4.970350
     16          1           0       -6.534739    4.981429    4.066489
     17          6           0       -5.736101    7.055283    7.255162
     18          1           0       -5.509056    7.659874    8.128189
     19          6           0       -5.026810    5.572588    5.483837
     20          1           0       -4.241489    5.015755    4.980910
     21          6           0       -4.732131    6.315281    6.630761
     22          1           0       -3.720392    6.331034    7.024494
     23          7           0       -8.757513    3.302509    4.166588
     24          1           0       -8.688940    4.034587    3.458941
     25          6           0       -8.085462    2.076575    3.736536
     26          1           0       -7.448482    1.733011    4.559069
     27          6           0       -7.197685    2.520699    2.550288
     28          6           0       -9.085533    0.974555    3.362874
     29          1           0       -8.564082    0.062645    3.056700
     30          1           0       -9.727421    1.298897    2.537893
     31          1           0       -9.710366    0.736225    4.228209
     32          8           0       -7.263844    3.686111    2.130328
     33          7           0       -6.391851    1.585722    2.043803
     34          1           0       -6.376913    0.624968    2.382546
     35          6           0       -5.506591    1.812134    0.908556
     36          1           0       -6.071638    2.325246    0.121319
     37          6           0       -5.079741    0.410830    0.436892
     38          6           0       -4.280934    2.657587    1.298104
     39          1           0       -3.655803    2.865202    0.424746
     40          1           0       -3.667100    2.121766    2.026845
     41          1           0       -4.619699    3.609771    1.714922
     42          8           0       -5.304412   -0.579898    1.128029
     43          7           0       -4.456914    0.371528   -0.767278
     44          1           0       -4.224193    1.252848   -1.206468
     45          6           0       -3.628329   -0.766074   -1.136124
     46          1           0       -4.144688   -1.652648   -0.754068
     47          6           0       -2.279664   -0.686263   -0.365089
     48          6           0       -3.508086   -0.890757   -2.664950
     49          1           0       -3.165697   -1.908607   -2.897525
     50          1           0       -4.529639   -0.843347   -3.064791
     51          8           0       -2.142556    0.056022    0.601608
     52          6           0       -2.613707    0.110308   -3.383223
     53          6           0       -2.328487   -0.107900   -4.740183
     54          1           0       -2.772333   -0.962745   -5.247329
     55          6           0       -2.030904    1.230691   -2.778899
     56          1           0       -2.188082    1.443191   -1.724398
     57          6           0       -1.474942    0.726620   -5.450585
     58          1           0       -1.247556    0.533281   -6.494621
     59          6           0       -1.174288    2.084424   -3.475885
     60          1           0       -0.729339    2.946991   -2.993619
     61          8           0        0.045664    2.534003   -5.531700
     62          1           0        0.435528    3.282745   -4.962288
     63          6           0       -0.862672    1.824687   -4.819902
     64          7           0       -1.305641   -1.536002   -0.803584
     65          1           0       -1.379978   -1.885284   -1.751449
     66          6           0        0.070920   -1.401790   -0.337583
     67          1           0        0.029122   -0.825318    0.587750
     68          6           0        0.855092   -0.629815   -1.402574
     69          6           0        0.726932   -2.771504   -0.093526
     70          1           0        0.805326   -3.294656   -1.056427
     71          1           0        1.757453   -2.598075    0.247093
     72          8           0        0.652877   -0.875215   -2.605980
     73          6           0       -0.019059   -3.658954    0.919649
     74          1           0       -1.013488   -3.870704    0.503374
     75          6           0        0.726124   -4.990436    1.087846
     76          1           0        1.722312   -4.829435    1.519603
     77          1           0        0.178569   -5.664579    1.755961
     78          1           0        0.857457   -5.502065    0.126889
     79          6           0       -0.214458   -2.960242    2.273421
     80          1           0        0.750417   -2.644600    2.693209
     81          1           0       -0.858748   -2.077668    2.192916
     82          1           0       -0.680054   -3.641972    2.993922
     83          7           0        1.720334    0.295890   -0.965205
     84          1           0        1.875235    0.377997    0.030607
     85          6           0        2.538504    1.095158   -1.860863
     86          1           0        1.910294    1.300605   -2.729627
     87          6           0        3.737964    0.289808   -2.421173
     88          6           0        2.939196    2.453905   -1.225435
     89          1           0        2.890012    2.377001   -0.130498
     90          1           0        3.982481    2.668562   -1.467196
     91          8           0        3.979422   -0.878033   -2.111795
     92          6           0        2.051696    3.604700   -1.717311
     93          1           0        2.424564    4.558387   -1.322620
     94          1           0        1.027333    3.492280   -1.344864
     95          6           0        1.989823    3.697185   -3.261086
     96          8           0        0.944419    4.208418   -3.747700
     97          8           0        2.953293    3.219889   -3.923970
     98          7           0        4.410312    1.001934   -3.350634
     99          1           0        4.049631    1.952115   -3.550128
    100          6           0        5.522490    0.484282   -4.105242
    101          1           0        5.326378   -0.556565   -4.374698
    102          6           0        6.838835    0.422752   -3.328955
    103          6           0        5.750014    1.336975   -5.381061
    104          1           0        6.534212    0.848271   -5.971071
    105          1           0        6.152807    2.306899   -5.064059
    106          8           0        7.772582   -0.264878   -3.676194
    107          6           0        4.502335    1.619721   -6.239354
    108          1           0        4.784026    2.358423   -7.000738
    109          1           0        3.730071    2.107334   -5.637396
    110          6           0        3.918673    0.426893   -7.007107
    111          1           0        4.639472    0.052443   -7.739803
    112          1           0        3.033486    0.743255   -7.572938
    113          7           0        3.565095   -0.737737   -6.183344
    114          1           0        4.159263   -1.551765   -6.248116
    115          7           0        1.621520    0.093885   -5.175893
    116          1           0        0.990317    0.026659   -4.379196
    117          1           0        1.548098    0.944466   -5.726418
    118          7           0        2.545723   -1.907620   -4.466177
    119          1           0        1.858834   -1.831518   -3.713911
    120          1           0        3.445897   -2.194078   -4.093850
    121          6           0        2.583105   -0.813503   -5.273489
    122          8           0        6.869604    1.247063   -2.260629
    123          1           0        7.756140    1.146431   -1.864593
 ---------------------------------------------------------------------
 Rotational constants (GHZ):           0.0676390           0.0141908           0.0137214
 Standard basis: 6-31G(d) (6D, 7F)
  1052 basis functions,  1980 primitive gaussians,  1052 cartesian basis functions
   232 alpha electrons      232 beta electrons
       nuclear repulsion energy      9604.6098704496 Hartrees.
 NAtoms=  123 NActive=  123 NUniq=  123 SFac= 1.00D+00 NAtFMM=   60 NAOKFM=T Big=T
 Integral buffers will be    131072 words long.
 Raffenetti 2 integral format.
 Two-electron integral symmetry is turned off.
 Nuclear repulsion after empirical dispersion term =     9604.4249944270 Hartrees.
 One-electron integrals computed using PRISM.
 NBasis=  1052 RedAO= T EigKep=  4.07D-04  NBF=  1052
 NBsUse=  1052 1.00D-06 EigRej= -1.00D+00 NBFU=  1052
 Initial guess from the checkpoint file:  "conf-608.chk"
 B after Tr=     0.000000    0.000000    0.000000
         Rot=    1.000000    0.000000    0.000000    0.000000 Ang=   0.00 deg.
 Requested convergence on RMS density matrix=1.00D-08 within 128 cycles.
 Requested convergence on MAX density matrix=1.00D-06.
 Requested convergence on             energy=1.00D-06.
 No special actions if energy rises.
 SCF Done:  E(RB3LYP) =  -2974.23018596     A.U. after    3 cycles
            NFock=  3  Conv=0.87D-09     -V/T= 2.0094
 Hyperfine terms turned off by default for NAtoms > 100.

 **********************************************************************

            Population analysis using the SCF Density.

 **********************************************************************

 Alpha  occ. eigenvalues --  -19.26403 -19.24593 -19.22087 -19.19791 -19.19680
 Alpha  occ. eigenvalues --  -19.19016 -19.18550 -19.18535 -19.16822 -19.12833
 Alpha  occ. eigenvalues --  -19.12339 -14.59071 -14.48865 -14.45548 -14.45329
 Alpha  occ. eigenvalues --  -14.43928 -14.43521 -14.43419 -14.42645 -14.42514
 Alpha  occ. eigenvalues --  -14.39549 -10.43216 -10.40591 -10.40515 -10.38989
 Alpha  occ. eigenvalues --  -10.36659 -10.36633 -10.36376 -10.35563 -10.34523
 Alpha  occ. eigenvalues --  -10.33983 -10.33583 -10.31847 -10.31813 -10.30763
 Alpha  occ. eigenvalues --  -10.30655 -10.30497 -10.30262 -10.30022 -10.29729
 Alpha  occ. eigenvalues --  -10.29704 -10.29644 -10.29538 -10.29174 -10.28805
 Alpha  occ. eigenvalues --  -10.28501 -10.28184 -10.26333 -10.25624 -10.25203
 Alpha  occ. eigenvalues --  -10.24786 -10.24344 -10.24293 -10.24273 -10.24264
 Alpha  occ. eigenvalues --  -10.23839 -10.23611 -10.22767 -10.22345 -10.22270
 Alpha  occ. eigenvalues --  -10.22170 -10.22095  -1.18854  -1.15338  -1.13999
 Alpha  occ. eigenvalues --   -1.13175  -1.11807  -1.11445  -1.10101  -1.09340
 Alpha  occ. eigenvalues --   -1.08264  -1.07432  -1.06289  -1.05767  -1.05610
 Alpha  occ. eigenvalues --   -1.01994  -1.00258  -1.00130  -0.99308  -0.99151
 Alpha  occ. eigenvalues --   -0.97855  -0.97253  -0.96689  -0.96513  -0.92961
 Alpha  occ. eigenvalues --   -0.89962  -0.88795  -0.87258  -0.86309  -0.86151
 Alpha  occ. eigenvalues --   -0.85450  -0.85215  -0.84466  -0.83360  -0.81219
 Alpha  occ. eigenvalues --   -0.80729  -0.79710  -0.79013  -0.77888  -0.76669
 Alpha  occ. eigenvalues --   -0.76304  -0.74981  -0.74348  -0.74138  -0.73315
 Alpha  occ. eigenvalues --   -0.72652  -0.71925  -0.71300  -0.71190  -0.70761
 Alpha  occ. eigenvalues --   -0.70245  -0.69190  -0.68416  -0.68089  -0.67407
 Alpha  occ. eigenvalues --   -0.66777  -0.66509  -0.66256  -0.65970  -0.65158
 Alpha  occ. eigenvalues --   -0.65086  -0.64776  -0.63566  -0.63391  -0.63005
 Alpha  occ. eigenvalues --   -0.62463  -0.61391  -0.61294  -0.60613  -0.59829
 Alpha  occ. eigenvalues --   -0.59420  -0.58614  -0.57939  -0.57657  -0.57380
 Alpha  occ. eigenvalues --   -0.57068  -0.56968  -0.56859  -0.56328  -0.56112
 Alpha  occ. eigenvalues --   -0.55567  -0.55370  -0.54955  -0.54632  -0.54511
 Alpha  occ. eigenvalues --   -0.54154  -0.53573  -0.53321  -0.52980  -0.52829
 Alpha  occ. eigenvalues --   -0.52621  -0.52522  -0.52217  -0.52060  -0.51715
 Alpha  occ. eigenvalues --   -0.51541  -0.51383  -0.51243  -0.50769  -0.50514
 Alpha  occ. eigenvalues --   -0.50178  -0.49985  -0.49739  -0.49178  -0.48936
 Alpha  occ. eigenvalues --   -0.48710  -0.48483  -0.48196  -0.48098  -0.47856
 Alpha  occ. eigenvalues --   -0.47762  -0.47485  -0.47220  -0.47113  -0.47025
 Alpha  occ. eigenvalues --   -0.46880  -0.46668  -0.46500  -0.46280  -0.45948
 Alpha  occ. eigenvalues --   -0.45603  -0.45491  -0.45231  -0.45161  -0.44769
 Alpha  occ. eigenvalues --   -0.44690  -0.44586  -0.44426  -0.43993  -0.43751
 Alpha  occ. eigenvalues --   -0.43661  -0.43180  -0.43049  -0.42588  -0.42324
 Alpha  occ. eigenvalues --   -0.41772  -0.41409  -0.40962  -0.40892  -0.40682
 Alpha  occ. eigenvalues --   -0.40572  -0.40079  -0.39708  -0.39179  -0.38996
 Alpha  occ. eigenvalues --   -0.38256  -0.37994  -0.37814  -0.37753  -0.36670
 Alpha  occ. eigenvalues --   -0.36444  -0.36336  -0.36285  -0.36207  -0.35812
 Alpha  occ. eigenvalues --   -0.35658  -0.35334  -0.34848  -0.33996  -0.33908
 Alpha  occ. eigenvalues --   -0.33576  -0.33300  -0.33221  -0.32518  -0.31217
 Alpha  occ. eigenvalues --   -0.30211  -0.29704  -0.29426  -0.28228  -0.27410
 Alpha  occ. eigenvalues --   -0.26681  -0.25488
 Alpha virt. eigenvalues --   -0.12571  -0.11979  -0.11903  -0.08442  -0.07754
 Alpha virt. eigenvalues --   -0.06291  -0.05880  -0.05273  -0.05093  -0.04059
 Alpha virt. eigenvalues --   -0.03956  -0.03831  -0.03496  -0.02838  -0.02769
 Alpha virt. eigenvalues --   -0.01464  -0.01317  -0.00634   0.00121   0.00556
 Alpha virt. eigenvalues --    0.00858   0.00902   0.01462   0.01582   0.01755
 Alpha virt. eigenvalues --    0.02039   0.02683   0.03049   0.03793   0.03802
 Alpha virt. eigenvalues --    0.04257   0.04737   0.04928   0.05169   0.05753
 Alpha virt. eigenvalues --    0.06014   0.06077   0.06174   0.06455   0.06507
 Alpha virt. eigenvalues --    0.06787   0.07120   0.07379   0.07578   0.07871
[...]
 Alpha virt. eigenvalues --    1.00942   1.01339   1.01641   1.01986   1.02361
 Alpha virt. eigenvalues --    1.03189   1.03624   1.04223   1.04500   1.05033
 Alpha virt. eigenvalues --    1.05274   1.05841   1.05981   1.06336   1.07323
 Alpha virt. eigenvalues --    1.07540   1.07670   1.08622   1.08631   1.09258
 Alpha virt. eigenvalues --    1.09622   1.10006   1.10333   1.10784   1.10982
 Alpha virt. eigenvalues --    1.12178   1.12604   1.13146   1.14092   1.14365
 Alpha virt. eigenvalues --    1.14824   1.15051   1.15503   1.16408   1.17211
 Alpha virt. eigenvalues --    1.17269   1.18023   1.18274   1.18443   1.19212
 Alpha virt. eigenvalues --    1.19763   1.20480   1.20603   1.21539   1.21642
 Alpha virt. eigenvalues --    1.22583   1.23048   1.23271   1.23948   1.24837
 Alpha virt. eigenvalues --    1.25506   1.25942   1.27008   1.27395   1.28255
 Alpha virt. eigenvalues --    1.28479   1.28747   1.29122   1.29512   1.30265
 Alpha virt. eigenvalues --    1.30818   1.30921   1.31342   1.31661   1.32112
 Alpha virt. eigenvalues --    1.32834   1.33300   1.33551   1.34049   1.35000
 Alpha virt. eigenvalues --    1.35500   1.35815   1.36108   1.36223   1.36895
 Alpha virt. eigenvalues --    1.37804   1.38040   1.38534   1.38788   1.38990
 Alpha virt. eigenvalues --    1.39482   1.39889   1.40622   1.40997   1.41113
 Alpha virt. eigenvalues --    1.41306   1.41727   1.42258   1.42637   1.42805
 Alpha virt. eigenvalues --    1.43123   1.43903   1.44268   1.45015   1.45453
 Alpha virt. eigenvalues --    1.45930   1.46518   1.47438   1.47959   1.48289
 Alpha virt. eigenvalues --    1.48891   1.49281   1.49985   1.51299   1.51710
 Alpha virt. eigenvalues --    1.52190   1.52721   1.53207   1.54193   1.54418
 Alpha virt. eigenvalues --    1.55498   1.56162   1.57099   1.57711   1.58159
 Alpha virt. eigenvalues --    1.59111   1.59363   1.60066   1.60207   1.61353
 Alpha virt. eigenvalues --    1.61436   1.62724   1.63320   1.63553   1.63900
 Alpha virt. eigenvalues --    1.64624   1.64787   1.64881   1.65655   1.66111
 Alpha virt. eigenvalues --    1.66683   1.66994   1.67136   1.67470   1.67714
 Alpha virt. eigenvalues --    1.67913   1.68137   1.68293   1.68682   1.69388
 Alpha virt. eigenvalues --    1.69491   1.70056   1.70211   1.70862   1.71381
 Alpha virt. eigenvalues --    1.71535   1.72302   1.72528   1.72972   1.73107
 Alpha virt. eigenvalues --    1.73709   1.73816   1.74063   1.74611   1.74921
 Alpha virt. eigenvalues --    1.75560   1.75695   1.75765   1.76001   1.76688
 Alpha virt. eigenvalues --    1.76783   1.76910   1.77387   1.77613   1.78225
 Alpha virt. eigenvalues --    1.78573   1.78940   1.79112   1.79676   1.79871
 Alpha virt. eigenvalues --    1.80302   1.80430   1.81029   1.81279   1.81567
 Alpha virt. eigenvalues --    1.82049   1.82352   1.82438   1.82507   1.83109
 Alpha virt. eigenvalues --    1.83484   1.83990   1.84341   1.84554   1.85065
 Alpha virt. eigenvalues --    1.85418   1.86014   1.86140   1.86638   1.86946
 Alpha virt. eigenvalues --    1.87419   1.87502   1.87777   1.88143   1.88636
 Alpha virt. eigenvalues --    1.88935   1.89066   1.89318   1.89941   1.90378
 Alpha virt. eigenvalues --    1.90567   1.91006   1.91698   1.92074   1.92239
 Alpha virt. eigenvalues --    1.92486   1.92672   1.93025   1.93499   1.93693
 Alpha virt. eigenvalues --    1.93945   1.94131   1.94497   1.95036   1.95214
 Alpha virt. eigenvalues --    1.96086   1.96191   1.96503   1.96643   1.97328
 Alpha virt. eigenvalues --    1.97495   1.97664   1.98116   1.98387   1.98768
 Alpha virt. eigenvalues --    1.99034   1.99831   2.00597   2.00758   2.01009
 Alpha virt. eigenvalues --    2.01570   2.01950   2.02701   2.02932   2.02998
 Alpha virt. eigenvalues --    2.03478   2.03818   2.04115   2.04380   2.04784
 Alpha virt. eigenvalues --    2.05032   2.05404   2.05968   2.06760   2.07901
 Alpha virt. eigenvalues --    2.08273   2.08778   2.08960   2.09416   2.09757
 Alpha virt. eigenvalues --    2.10327   2.10964   2.11502   2.11638   2.12412
 Alpha virt. eigenvalues --    2.12750   2.13293   2.13995   2.14858   2.15715
 Alpha virt. eigenvalues --    2.15949   2.16438   2.16596   2.17158   2.17377
 Alpha virt. eigenvalues --    2.17891   2.18465   2.18923   2.19105   2.19471
 Alpha virt. eigenvalues --    2.19831   2.20220   2.21030   2.21209   2.22079
 Alpha virt. eigenvalues --    2.22270   2.22562   2.24084   2.24371   2.24627
 Alpha virt. eigenvalues --    2.24774   2.25644   2.26089   2.26323   2.26495
 Alpha virt. eigenvalues --    2.27232   2.28387   2.28788   2.29203   2.29300
 Alpha virt. eigenvalues --    2.29601   2.30246   2.31073   2.31702   2.32025
 Alpha virt. eigenvalues --    2.32823   2.33198   2.34235   2.34959   2.35601
 Alpha virt. eigenvalues --    2.35949   2.36564   2.36813   2.37027   2.37477
 Alpha virt. eigenvalues --    2.37797   2.38454   2.39658   2.40578   2.41043
 Alpha virt. eigenvalues --    2.41498   2.42676   2.43047   2.43396   2.44430
 Alpha virt. eigenvalues --    2.44753   2.44988   2.45076   2.45919   2.46525
 Alpha virt. eigenvalues --    2.46884   2.47337   2.47414   2.47885   2.48286
 Alpha virt. eigenvalues --    2.48373   2.49018   2.49254   2.50107   2.50713
 Alpha virt. eigenvalues --    2.51488   2.52123   2.53200   2.53446   2.54527
 Alpha virt. eigenvalues --    2.54553   2.56609   2.57008   2.57200   2.57650
 Alpha virt. eigenvalues --    2.58077   2.59511   2.60194   2.61051   2.61408
 Alpha virt. eigenvalues --    2.61508   2.61801   2.62430   2.62820   2.63016
 Alpha virt. eigenvalues --    2.63464   2.63730   2.64117   2.64395   2.64906
 Alpha virt. eigenvalues --    2.65706   2.65969   2.66459   2.66843   2.67020
 Alpha virt. eigenvalues --    2.68057   2.69515   2.70369   2.70567   2.71203
 Alpha virt. eigenvalues --    2.72516   2.72699   2.73760   2.74512   2.77557
 Alpha virt. eigenvalues --    2.78472   2.78643   2.79170   2.79573   2.80430
 Alpha virt. eigenvalues --    2.82988   2.83473   2.83715   2.85383   2.86297
 Alpha virt. eigenvalues --    2.87550   2.88187   2.89411   2.89943   2.91173
 Alpha virt. eigenvalues --    2.91523   2.92987   2.93902   2.94860   2.95096
 Alpha virt. eigenvalues --    2.96182   2.96374   2.98397   2.99362   3.00746
 Alpha virt. eigenvalues --    3.01675   3.03457   3.05754   3.06692   3.07971
 Alpha virt. eigenvalues --    3.08946   3.10763   3.12510   3.13055   3.13778
 Alpha virt. eigenvalues --    3.16805   3.29321   3.37811   3.67908   3.78156
 Alpha virt. eigenvalues --    3.82674   3.90417   3.90879   3.91695   3.94414
 Alpha virt. eigenvalues --    3.94652   3.97079   3.98944   3.99235   3.99629
 Alpha virt. eigenvalues --    4.01027   4.03255   4.04413   4.04974   4.05852
 Alpha virt. eigenvalues --    4.08450   4.08593   4.09727   4.10566   4.11953
 Alpha virt. eigenvalues --    4.14594   4.15255   4.15439   4.16846   4.17366
 Alpha virt. eigenvalues --    4.18243   4.19611   4.20783   4.23036   4.24314
 Alpha virt. eigenvalues --    4.25124   4.25394   4.27165   4.27413   4.28707
 Alpha virt. eigenvalues --    4.28754   4.31196   4.31889   4.32676   4.33189
 Alpha virt. eigenvalues --    4.34730   4.35119   4.35968   4.37198   4.38912
 Alpha virt. eigenvalues --    4.41526   4.46061   4.47184   4.49574   4.50227
 Alpha virt. eigenvalues --    4.50760   4.53918   4.54934   4.56436   4.60866
 Alpha virt. eigenvalues --    4.61824   4.62503   4.65373   4.70151   4.73850
          Condensed to atoms (all electrons):
 Mulliken charges:
               1
     1  N   -0.755464
     2  H    0.432374
     3  H    0.409710
     4  H    0.403717
     5  C   -0.114601
     6  H    0.228061
     7  C    0.653459
     8  C   -0.395564
     9  H    0.188659
    10  H    0.210192
    11  O   -0.538283
    12  C    0.139778
    13  C   -0.240864
    14  H    0.141623
    15  C   -0.187658
    16  H    0.177561
    17  C   -0.118663
    18  H    0.164299
    19  C   -0.131075
    20  H    0.164697
    21  C   -0.121429
    22  H    0.166596
    23  N   -0.599769
    24  H    0.373762
    25  C   -0.069997
    26  H    0.202518
    27  C    0.637851
    28  C   -0.448970
    29  H    0.180273
    30  H    0.172884
    31  H    0.183639
    32  O   -0.554862
    33  N   -0.617092
    34  H    0.368407
    35  C   -0.056495
    36  H    0.185536
    37  C    0.643793
    38  C   -0.448222
    39  H    0.164754
    40  H    0.183380
    41  H    0.170955
    42  O   -0.533642
    43  N   -0.597774
    44  H    0.346322
    45  C   -0.086265
    46  H    0.207585
    47  C    0.646509
    48  C   -0.392457
    49  H    0.156043
    50  H    0.179556
    51  O   -0.538671
    52  C    0.165990
    53  C   -0.184582
    54  H    0.124286
    55  C   -0.226967
    56  H    0.122245
    57  C   -0.171655
    58  H    0.133513
    59  C   -0.216568
    60  H    0.183383
    61  O   -0.707878
    62  H    0.457998
    63  C    0.325108
    64  N   -0.587455
    65  H    0.349730
    66  C   -0.098631
    67  H    0.183729
    68  C    0.670520
    69  C   -0.266866
    70  H    0.141361
    71  H    0.153094
    72  O   -0.592482
    73  C   -0.063296
    74  H    0.134414
    75  C   -0.444492
    76  H    0.145832
    77  H    0.149759
    78  H    0.143591
    79  C   -0.466163
    80  H    0.136414
    81  H    0.165286
    82  H    0.150175
    83  N   -0.584451
    84  H    0.344871
    85  C   -0.063485
    86  H    0.198840
    87  C    0.591828
    88  C   -0.300436
    89  H    0.130139
    90  H    0.184622
    91  O   -0.567038
    92  C   -0.353574
    93  H    0.163486
    94  H    0.146614
    95  C    0.595701
    96  O   -0.595676
    97  O   -0.580579
    98  N   -0.635104
    99  H    0.415537
   100  C    0.000504
   101  H    0.141630
   102  C    0.595269
   103  C   -0.312712
   104  H    0.163767
   105  H    0.174799
   106  O   -0.465316
   107  C   -0.309939
   108  H    0.163498
   109  H    0.217414
   110  C   -0.161222
   111  H    0.171780
   112  H    0.181353
   113  N   -0.591886
   114  H    0.357330
   115  N   -0.801726
   116  H    0.421782
   117  H    0.400485
   118  N   -0.766208
   119  H    0.396364
   120  H    0.363131
   121  C    0.764555
   122  O   -0.558294
   123  H    0.416284
 Sum of Mulliken charges =   1.00000
 Mulliken charges with hydrogens summed into heavy atoms:
               1
     1  N    0.490337
     5  C    0.113459
     7  C    0.653459
     8  C    0.003287
    11  O   -0.538283
    12  C    0.139778
    13  C   -0.099241
    15  C   -0.010097
    17  C    0.045636
    19  C    0.033622
    21  C    0.045167
    23  N   -0.226007
    25  C    0.132521
    27  C    0.637851
    28  C    0.087826
    32  O   -0.554862
    33  N   -0.248686
    35  C    0.129040
    37  C    0.643793
    38  C    0.070868
    42  O   -0.533642
    43  N   -0.251452
    45  C    0.121320
    47  C    0.646509
    48  C   -0.056858
    51  O   -0.538671
    52  C    0.165990
    53  C   -0.060296
    55  C   -0.104722
    57  C   -0.038142
    59  C   -0.033185
    61  O   -0.249880
    63  C    0.325108
    64  N   -0.237725
    66  C    0.085098
    68  C    0.670520
    69  C    0.027589
    72  O   -0.592482
    73  C    0.071118
    75  C   -0.005310
    79  C   -0.014287
    83  N   -0.239580
    85  C    0.135355
    87  C    0.591828
    88  C    0.014325
    91  O   -0.567038
    92  C   -0.043474
    95  C    0.595701
    96  O   -0.595676
    97  O   -0.580579
    98  N   -0.219567
   100  C    0.142133
   102  C    0.595269
   103  C    0.025855
   106  O   -0.465316
   107  C    0.070972
   110  C    0.191911
   113  N   -0.234556
   115  N    0.020541
   118  N   -0.006713
   121  C    0.764555
   122  O   -0.142010
 Electronic spatial extent (au):  <R**2>=          84431.7768
 Charge=              1.0000 electrons
 Dipole moment (field-independent basis, Debye):
    X=            -30.7948    Y=             14.5580    Z=             20.3560  Tot=             39.6815
 Quadrupole moment (field-independent basis, Debye-Ang):
   XX=            -16.1198   YY=           -265.0461   ZZ=           -151.8821
   XY=           -175.7377   XZ=           -240.4852   YZ=            173.2231
 Traceless Quadrupole moment (field-independent basis, Debye-Ang):
   XX=            128.2295   YY=           -120.6968   ZZ=             -7.5327
   XY=           -175.7377   XZ=           -240.4852   YZ=            173.2231
 Octapole moment (field-independent basis, Debye-Ang**2):
  XXX=          -1535.4036  YYY=           -966.5686  ZZZ=           1315.7433  XYY=           -462.7189
  XXY=           1310.8332  XXZ=           2169.1877  XZZ=           -752.5185  YZZ=            389.1131
  YYZ=           1077.7389  XYZ=          -1264.0801
 Hexadecapole moment (field-independent basis, Debye-Ang**3):
 XXXX=         -23580.4926 YYYY=         -16825.4302 ZZZZ=         -23211.0088 XXXY=          -7184.4447
 XXXZ=          -4753.0820 YYYX=           3048.4801 YYYZ=            128.3066 ZZZX=           2838.0622
 ZZZY=           2906.8372 XXYY=          -2936.5479 XXZZ=            443.7553 YYZZ=          -3492.7545
 XXYZ=          10025.1153 YYXZ=          -1956.6247 ZZXY=          -6086.8596
 N-N= 9.604424994427D+03 E-N=-2.610528355301D+04  KE= 2.946635528779D+03
 Unable to Open any file for archive entry.
 1\1\GINC-AMR-169\SP\RB3LYP\6-31G(d)\C41H61N10O11(1+)\KENGMITH\02-Aug-2
 022\0\\# B3LYP/6-31G* empiricaldispersion=gd3 guess=read geom=check no
 symm integral(ultrafinegrid)\\Candidate Structure: Conf:608 Charge cal
 c in gas phase\\1,1\N,0,-9.4763214929,5.061300514,7.2560644762\H,0,-9.
 3777922315,4.0405712485,7.517468379\H,0,-10.2840227843,5.4993737827,7.
 7033208183\H,0,-8.6115000898,5.547863577,7.5465496195\C,0,-9.550530512
 3,5.0124836185,5.7466478581\H,0,-10.6094340776,5.0568995944,5.47407499
 18\C,0,-9.0231962188,3.5809845875,5.4367320714\C,0,-8.7757249216,6.191
 1445364,5.1135916827\H,0,-9.3173863995,7.1164622416,5.3432417982\H,0,-
 8.8205692939,6.0796680379,4.0253397336\O,0,-8.9179883628,2.7890755005,
 6.3842366371\C,0,-7.3442368773,6.2734174182,5.6002196516\C,0,-7.035495
 3352,7.0382727045,6.7386806706\H,0,-7.7987758122,7.6727006588,7.190180
 1885\C,0,-6.3233478778,5.5461861486,4.970349727\H,0,-6.5347393757,4.98
 14294167,4.066488522\C,0,-5.7361006679,7.0552825081,7.2551623643\H,0,-
 5.5090558271,7.6598738008,8.1281889583\C,0,-5.0268102624,5.5725880312,
 5.483836575\H,0,-4.2414887854,5.0157553124,4.9809095572\C,0,-4.7321310
 368,6.3152807771,6.6307614322\H,0,-3.7203915684,6.331034169,7.02449431
 13\N,0,-8.7575131159,3.302508846,4.1665881512\H,0,-8.6889403176,4.0345
 86649,3.4589411399\C,0,-8.0854620594,2.0765747042,3.7365361938\H,0,-7.
 4484818414,1.7330112785,4.5590691204\C,0,-7.1976845734,2.5206985215,2.
 5502882114\C,0,-9.0855330279,0.9745548497,3.3628743256\H,0,-8.56408177
 2,0.0626448703,3.0566999184\H,0,-9.7274212046,1.2988974705,2.537893125
 \H,0,-9.71036644,0.7362245317,4.2282092386\O,0,-7.2638437665,3.6861113
 592,2.1303275187\N,0,-6.3918514382,1.5857221353,2.0438026817\H,0,-6.37
 69126175,0.6249675896,2.382546043\C,0,-5.5065907309,1.8121338316,0.908
 5562898\H,0,-6.0716384698,2.3252464667,0.1213190535\C,0,-5.0797410369,
 0.4108300072,0.4368916649\C,0,-4.2809339655,2.6575872581,1.2981039311\
 H,0,-3.6558031124,2.8652020882,0.42474618\H,0,-3.6671004045,2.12176585
 25,2.0268446078\H,0,-4.6196989515,3.6097712507,1.7149215942\O,0,-5.304
 4123971,-0.5798984059,1.1280292092\N,0,-4.4569143767,0.3715280022,-0.7
 672784463\H,0,-4.2241934035,1.2528480087,-1.2064676998\C,0,-3.62832901
 11,-0.7660738131,-1.1361241995\H,0,-4.1446882458,-1.6526478738,-0.7540
 676131\C,0,-2.2796642378,-0.6862630813,-0.3650891284\C,0,-3.5080856488
 ,-0.8907573599,-2.6649502652\H,0,-3.1656973602,-1.908606892,-2.8975254
 137\H,0,-4.5296390874,-0.8433469797,-3.064790993\O,0,-2.1425564459,0.0
 560215436,0.6016084381\C,0,-2.6137072163,0.1103080609,-3.3832232314\C,
 0,-2.3284869225,-0.1079000628,-4.7401828132\H,0,-2.7723334667,-0.96274
 51078,-5.2473288647\C,0,-2.0309043174,1.2306908936,-2.7788988582\H,0,-
 2.1880821972,1.4431914282,-1.7243976973\C,0,-1.474941528,0.7266196488,
 -5.4505854453\H,0,-1.2475561607,0.5332811511,-6.4946212512\C,0,-1.1742
 878394,2.0844239321,-3.4758850184\H,0,-0.7293392002,2.9469912893,-2.99
 3619224\O,0,0.0456637865,2.5340034686,-5.531700388\H,0,0.4355277911,3.
 2827448238,-4.962288134\C,0,-0.8626718653,1.8246872388,-4.8199022082\N
 ,0,-1.3056407202,-1.5360024107,-0.8035838391\H,0,-1.3799779237,-1.8852
 838438,-1.7514489523\C,0,0.0709197088,-1.4017895389,-0.337583011\H,0,0
 .0291216688,-0.8253175927,0.5877497484\C,0,0.8550922434,-0.6298148948,
 -1.4025738697\C,0,0.7269322188,-2.7715041083,-0.0935256615\H,0,0.80532
 58964,-3.2946561346,-1.056427291\H,0,1.7574526852,-2.5980754353,0.2470
 932019\O,0,0.6528765241,-0.8752146324,-2.6059800626\C,0,-0.0190585353,
 -3.6589541485,0.9196493913\H,0,-1.0134876328,-3.8707040491,0.503374096
 4\C,0,0.7261242553,-4.9904364955,1.0878464613\H,0,1.7223119492,-4.8294
 353055,1.5196030198\H,0,0.1785694284,-5.6645787653,1.755960757\H,0,0.8
 574570874,-5.5020652716,0.126889075\C,0,-0.2144578999,-2.9602421135,2.
 273420558\H,0,0.7504166639,-2.6446002917,2.6932090788\H,0,-0.858748400
 7,-2.0776677879,2.1929155009\H,0,-0.6800537003,-3.6419721209,2.9939221
 002\N,0,1.7203343379,0.2958899292,-0.9652046807\H,0,1.8752347276,0.377
 9974121,0.0306065562\C,0,2.5385040682,1.0951580992,-1.8608628929\H,0,1
 .910294244,1.3006054166,-2.7296270906\C,0,3.737963987,0.2898080038,-2.
 4211734386\C,0,2.9391959721,2.4539048939,-1.2254348139\H,0,2.890012387
 1,2.3770007252,-0.1304982815\H,0,3.9824810329,2.6685624863,-1.46719636
 53\O,0,3.9794217296,-0.878033102,-2.1117945303\C,0,2.0516963646,3.6047
 002294,-1.7173109313\H,0,2.4245639738,4.5583865804,-1.3226202288\H,0,1
 .0273329223,3.492279689,-1.3448640072\C,0,1.9898230129,3.6971846663,-3
 .2610856487\O,0,0.9444191526,4.2084183238,-3.7477000207\O,0,2.95329323
 94,3.2198892848,-3.923970009\N,0,4.4103117953,1.0019336252,-3.35063364
 46\H,0,4.0496312144,1.9521153656,-3.5501278389\C,0,5.5224904153,0.4842
 823495,-4.1052421102\H,0,5.3263782389,-0.5565649189,-4.3746983013\C,0,
 6.8388350548,0.4227518362,-3.3289548267\C,0,5.750014029,1.3369746902,-
 5.3810611294\H,0,6.53421177,0.8482708503,-5.9710712484\H,0,6.152807141
 8,2.3068991335,-5.0640585407\O,0,7.7725817345,-0.2648780868,-3.6761942
 282\C,0,4.5023348479,1.6197205679,-6.2393541516\H,0,4.784026035,2.3584
 231424,-7.0007380907\H,0,3.7300714358,2.1073335062,-5.6373964751\C,0,3
 .9186733087,0.4268930101,-7.0071068963\H,0,4.6394721464,0.0524426065,-
 7.7398031989\H,0,3.0334863456,0.7432549807,-7.5729379809\N,0,3.5650951
 845,-0.7377369539,-6.1833441592\H,0,4.1592632802,-1.5517647527,-6.2481
 155482\N,0,1.6215203158,0.093885131,-5.175893468\H,0,0.9903171445,0.02
 6659102,-4.3791961942\H,0,1.5480980109,0.9444659345,-5.7264183295\N,0,
 2.5457234671,-1.907620178,-4.4661772264\H,0,1.8588343523,-1.8315183191
 ,-3.7139110105\H,0,3.4458970093,-2.1940782114,-4.0938502626\C,0,2.5831
 048425,-0.8135034107,-5.2734885957\O,0,6.8696043527,1.2470626235,-2.26
 06287663\H,0,7.7561404458,1.146430891,-1.864593083\\Version=ES64L-G16R
 evC.01\HF=-2974.230186\RMSD=8.657e-10\Dipole=-9.3131286,3.1458562,8.78
 10718\Quadrupole=95.3355043,-89.735093,-5.6004113,-130.656692,-178.794
 8313,128.7871302\PG=C01 [X(C41H61N10O11)]\\@
 The archive entry for this job was punched.


 THE UNDERLYING PHYSICAL LAWS NECESSARY FOR THE 
 MATHEMATICAL THEORY OF A LARGE PART OF PHYSICS AND THE
 WHOLE OF CHEMISTRY ARE THUS COMPLETELY KNOWN, AND THE
 DIFFICULTY IS ONLY THAT THE EXACT APPLICATION OF THESE
 LAWS LEADS TO EQUATIONS MUCH TOO COMPLICATED 
 TO BE SOLUBLE.

                                        -- P. A. M. DIRAC, 1929
 Job cpu time:       0 days  0 hours  7 minutes 47.6 seconds.
 Elapsed time:       0 days  0 hours  1 minutes 57.8 seconds.
 File lengths (MBytes):  RWF=    816 Int=      0 D2E=      0 Chk=    128 Scr=     32
 Normal termination of Gaussian 16 at Tue Aug  2 21:48:22 2022.
