 Entering Gaussian System, Link 0=/opt/software/Gaussian/g16-AVX2-C.01/g16/g16
 Input=charge-conf-477.com
 Output=charge-conf-477.log
 Initial command:
 /opt/software/Gaussian/g16-AVX2-C.01/g16/l1.exe "/mnt/gs21/scratch/kengmith/Gau-22331.inp" -scrdir="/mnt/gs21/scratch/kengmith/"
 Entering Link 1 = /opt/software/Gaussian/g16-AVX2-C.01/g16/l1.exe PID=     22342.
  
 Copyright (c) 1988-2019, Gaussian, Inc.  All Rights Reserved.
  
 This is part of the Gaussian(R) 16 program.  It is based on
 the Gaussian(R) 09 system (copyright 2009, Gaussian, Inc.),
 the Gaussian(R) 03 system (copyright 2003, Gaussian, Inc.),
 the Gaussian(R) 98 system (copyright 1998, Gaussian, Inc.),
 the Gaussian(R) 94 system (copyright 1995, Gaussian, Inc.),
 the Gaussian 92(TM) system (copyright 1992, Gaussian, Inc.),
 the Gaussian 90(TM) system (copyright 1990, Gaussian, Inc.),
 the Gaussian 88(TM) system (copyright 1988, Gaussian, Inc.),
 the Gaussian 86(TM) system (copyright 1986, Carnegie Mellon
 University), and the Gaussian 82(TM) system (copyright 1983,
 Carnegie Mellon University). Gaussian is a federally registered
 trademark of Gaussian, Inc.
  
 This software contains proprietary and confidential information,
 including trade secrets, belonging to Gaussian, Inc.
  
 This software is provided under written license and may be
 used, copied, transmitted, or stored only in accord with that
 written license.
  
 The following legend is applicable only to US Government
 contracts under FAR:
  
                    RESTRICTED RIGHTS LEGEND
  
 Use, reproduction and disclosure by the US Government is
 subject to restrictions as set forth in subparagraphs (a)
 and (c) of the Commercial Computer Software - Restricted
 Rights clause in FAR 52.227-19.
  
 Gaussian, Inc.
 340 Quinnipiac St., Bldg. 40, Wallingford CT 06492
  
  
 ---------------------------------------------------------------
 Warning -- This program may not be used in any manner that
 competes with the business of Gaussian, Inc. or will provide
 assistance to any competitor of Gaussian, Inc.  The licensee
 of this program is prohibited from giving any competitor of
 Gaussian, Inc. access to this program.  By using this program,
 the user acknowledges that Gaussian, Inc. is engaged in the
 business of creating and licensing software in the field of
 computational chemistry and represents and warrants to the
 licensee that it is not a competitor of Gaussian, Inc. and that
 it will not use this program in any manner prohibited above.
 ---------------------------------------------------------------
  

 Cite this work as:
 Gaussian 16, Revision C.01,
 M. J. Frisch, G. W. Trucks, H. B. Schlegel, G. E. Scuseria, 
 M. A. Robb, J. R. Cheeseman, G. Scalmani, V. Barone, 
 G. A. Petersson, H. Nakatsuji, X. Li, M. Caricato, A. V. Marenich, 
 J. Bloino, B. G. Janesko, R. Gomperts, B. Mennucci, H. P. Hratchian, 
 J. V. Ortiz, A. F. Izmaylov, J. L. Sonnenberg, D. Williams-Young, 
 F. Ding, F. Lipparini, F. Egidi, J. Goings, B. Peng, A. Petrone, 
 T. Henderson, D. Ranasinghe, V. G. Zakrzewski, J. Gao, N. Rega, 
 G. Zheng, W. Liang, M. Hada, M. Ehara, K. Toyota, R. Fukuda, 
 J. Hasegawa, M. Ishida, T. Nakajima, Y. Honda, O. Kitao, H. Nakai, 
 T. Vreven, K. Throssell, J. A. Montgomery, Jr., J. E. Peralta, 
 F. Ogliaro, M. J. Bearpark, J. J. Heyd, E. N. Brothers, K. N. Kudin, 
 V. N. Staroverov, T. A. Keith, R. Kobayashi, J. Normand, 
 K. Raghavachari, A. P. Rendell, J. C. Burant, S. S. Iyengar, 
 J. Tomasi, M. Cossi, J. M. Millam, M. Klene, C. Adamo, R. Cammi, 
 J. W. Ochterski, R. L. Martin, K. Morokuma, O. Farkas, 
 J. B. Foresman, and D. J. Fox, Gaussian, Inc., Wallingford CT, 2019.
 
 ******************************************
 Gaussian 16:  ES64L-G16RevC.01  3-Jul-2019
                 2-Aug-2022 
 ******************************************
 %mem=8gb
 %nproc=4
 Will use up to    4 processors via shared memory.
 %chk=conf-477.chk
 ----------------------------------------------------------------------
 # B3LYP/6-31G* empiricaldispersion=gd3 guess=read geom=check nosymm in
 tegral(ultrafinegrid)
 ----------------------------------------------------------------------
 1/29=2,38=1,172=1/1;
 2/12=2,15=1,40=1/2;
 3/5=1,6=6,7=1,11=2,14=-4,25=1,30=1,74=-5,75=-5,116=-2,124=31/1,2,3;
 4/5=1/1;
 5/5=2,38=6/2;
 6/7=2,8=2,9=2,10=2,28=1/1;
 99/5=1,9=1/99;
 ------------------------------------------------------
 Candidate Structure: Conf:477 Charge calc in gas phase
 ------------------------------------------------------
 Structure from the checkpoint file:  "conf-477.chk"
 Charge =  1 Multiplicity = 1
 Redundant internal coordinates found in file.  (old form).
 N,0,-3.5142844991,4.6490072858,0.4834383971
 H,0,-4.3242111071,5.2467248495,0.6715971677
 H,0,-3.7512136485,3.9397495079,-0.2328468488
 H,0,-2.6609755477,5.1910919523,0.1095101103
 C,0,-3.0965603938,3.9588534066,1.7358685249
 H,0,-2.3622262975,3.2049294337,1.4374930127
 C,0,-4.3438748487,3.2666578234,2.3094030621
 C,0,-2.4445031538,4.958964951,2.722417355
 H,0,-1.481965415,5.2547246044,2.2971124465
 H,0,-2.2468558956,4.4210950225,3.6566196
 O,0,-5.4681548402,3.6045332637,1.9453191648
 C,0,-3.3004177732,6.1817009203,2.9706088077
 C,0,-3.1007685996,7.339575611,2.2043840002
 H,0,-2.298219046,7.3600659252,1.4704761973
 C,0,-4.332452124,6.1612370642,3.9179173654
 H,0,-4.4945387597,5.2677243339,4.5163844339
 C,0,-3.9195643356,8.4560690554,2.3864612436
 H,0,-3.7522714546,9.3497436801,1.7916080416
 C,0,-5.1483764157,7.277205316,4.101061931
 H,0,-5.9421875647,7.2503404289,4.8421900796
 C,0,-4.9442223378,8.4268746696,3.3342324049
 H,0,-5.5789652051,9.2966258433,3.4780827558
 N,0,-4.0445407818,2.297415667,3.1951977543
 H,0,-3.073233898,2.1361361143,3.4465235279
 C,0,-4.9625162085,1.4129612604,3.911167997
 H,0,-5.391963608,1.9532146423,4.7685289078
 C,0,-4.022165925,0.3341260797,4.4950910615
 C,0,-6.1083307942,0.8795448929,3.0445648135
 H,0,-6.8079670202,0.2981565745,3.6554917827
 H,0,-5.7337331673,0.2514771884,2.2305091612
 H,0,-6.6580603145,1.7136559238,2.6088932861
 O,0,-2.8673356222,0.644691898,4.8124420422
 N,0,-4.4878842791,-0.922967513,4.6198990492
 H,0,-5.4040838088,-1.1614648986,4.2669163817
 C,0,-3.6495158474,-2.0181679819,5.1303937029
 H,0,-2.9995831299,-1.5748644609,5.8918770562
 C,0,-2.7510834327,-2.58562472,3.9999024238
 C,0,-4.5231001893,-3.1103149634,5.7350084257
 H,0,-3.8960829424,-3.9091989726,6.1365245765
 H,0,-5.1656997318,-3.5616857629,4.9722969253
 H,0,-5.1399665856,-2.7009438328,6.5405839292
 O,0,-2.8602596733,-3.7427867869,3.6060293014
 N,0,-1.8448879301,-1.7121925357,3.4842806641
 H,0,-1.760464752,-0.7670618925,3.8534173319
 C,0,-0.9095313453,-2.1467594179,2.4684702793
 H,0,-0.5332596268,-3.1369262057,2.7558948204
 C,0,0.2470250053,-1.1481753268,2.4190761476
 C,0,-1.5689576476,-2.3078142376,1.0613257985
 H,0,-0.8647717051,-2.8496822036,0.4167080065
 H,0,-2.4256536643,-2.9712396586,1.2130971084
 O,0,0.1575718945,0.0008739733,2.8437644345
 C,0,-1.9763132593,-1.0158915634,0.3937250682
 C,0,-3.1725661049,-0.3634678806,0.7213996447
 H,0,-3.8333189168,-0.8099716314,1.4593588206
 C,0,-1.1564806191,-0.4266300943,-0.5772021741
 H,0,-0.2267333664,-0.909518035,-0.8619028502
 C,0,-3.5256265685,0.8459425429,0.1236816756
 H,0,-4.4582102754,1.3423095416,0.3737365646
 C,0,-1.4957114209,0.7786205278,-1.1896244253
 H,0,-0.864149783,1.2021881834,-1.9631484846
 O,0,-3.0313937722,2.6417332409,-1.3663503772
 H,0,-2.2033670562,3.159931045,-1.5995093662
 C,0,-2.6753481696,1.4359469979,-0.8195418066
 N,0,1.3941388844,-1.6201081768,1.8446279108
 H,0,1.3815527071,-2.5170358389,1.3779933543
 C,0,2.5134521499,-0.7212523164,1.592188232
 H,0,2.6240811933,-0.1095231821,2.4902954233
 C,0,2.1708402451,0.1820709331,0.3938475804
 C,0,3.8073872286,-1.5037566172,1.3490385727
 H,0,4.0357743246,-2.0755818688,2.2572835749
 H,0,3.6222026194,-2.2421256802,0.5557470516
 O,0,2.084870431,-0.2879490096,-0.7556999389
 C,0,5.0172624619,-0.6217310066,0.9721118067
 H,0,4.7806102909,-0.0894556768,0.0392073668
 C,0,5.316645859,0.4448045216,2.0368702245
 H,0,5.4548194169,-0.0114282608,3.0250973781
 H,0,6.2329625313,0.9901127518,1.7875743381
 H,0,4.512194397,1.1834135773,2.1044559129
 C,0,6.2556777973,-1.5025864629,0.7428521502
 H,0,6.5650597994,-1.9908654513,1.6745481581
 H,0,6.0769303511,-2.3134245094,0.0190452582
 H,0,7.1025393584,-0.9076487355,0.3833677389
 N,0,1.9687675858,1.4717649397,0.7052688864
 H,0,1.8314140206,1.6676705052,1.6899059799
 C,0,1.5049507617,2.4979697208,-0.2259969255
 H,0,0.4492587127,2.3125343955,-0.4284934496
 C,0,2.2939293139,2.4088850536,-1.5482433492
 C,0,1.6596424056,3.8923642736,0.4096193454
 H,0,1.1346080643,3.8982408271,1.375680114
 H,0,2.7226704726,4.0671512359,0.6134948221
 O,0,3.4875893459,2.1215362249,-1.5879297868
 C,0,1.1113637736,5.0438267181,-0.4637308651
 H,0,1.6511975983,5.0754124208,-1.41559636
 H,0,1.2805116616,5.9897253789,0.0555496652
 C,0,-0.3904076844,4.8967300902,-0.7335701366
 O,0,-1.1658613403,5.647938606,-0.0835429667
 O,0,-0.7533265448,3.9930921274,-1.5562149127
 N,0,1.5102199014,2.6813158763,-2.6214145653
 H,0,0.5815174968,3.0791192481,-2.429153306
 C,0,1.9118196774,2.4519008851,-3.9981195852
 H,0,2.6205686879,3.2096881403,-4.3514514759
 C,0,0.7097938482,2.5491513005,-4.9308471885
 C,0,2.5639961073,1.049789471,-4.1229994734
 H,0,2.0422420969,0.4128069625,-3.4016882376
 H,0,3.5888357161,1.1459479169,-3.7558398691
 O,0,0.7937519433,2.8652005909,-6.0945277692
 C,0,2.5410315359,0.3972763242,-5.5094734705
 H,0,2.810250097,1.1088894095,-6.2972831791
 H,0,1.5292238925,0.0481091135,-5.7504759506
 C,0,3.5270543187,-0.7813270781,-5.5641898903
 H,0,4.549486939,-0.3995947885,-5.6217178885
 H,0,3.352840505,-1.4162963843,-6.4375832933
 N,0,3.433549443,-1.6072512626,-4.3392782675
 H,0,2.4941257491,-1.8161001724,-4.0200637394
 N,0,5.6706998603,-1.6328287699,-3.715679712
 H,0,6.3807968377,-1.4221129404,-3.0294574761
 H,0,5.9714094095,-1.8469038014,-4.6553404969
 N,0,4.0153001667,-1.7754209726,-2.0966834091
 H,0,4.7405814772,-1.9910153405,-1.4258019303
 H,0,3.1942656192,-1.2836602133,-1.6959836509
 C,0,4.3684814762,-1.6536032995,-3.3779487826
 O,0,-0.4469754336,2.1697390562,-4.3400716643
 H,0,-1.156085946,2.2669106033,-5.0042897429
 Recover connectivity data from disk.
                           ----------------------------
                           !    Current Parameters    !
                           ! (Angstroms and Degrees)  !
 --------------------------                            --------------------------
 ! Name  Definition              Value                                          !
 --------------------------------------------------------------------------------
 ! R1    R(1,2)                  1.024                                          !
 ! R2    R(1,3)                  1.0355                                         !
 ! R3    R(1,4)                  1.0779                                         !
 ! R4    R(1,5)                  1.4898                                         !
 ! R5    R(5,6)                  1.0939                                         !
 ! R6    R(5,7)                  1.5375                                         !
 ! R7    R(5,8)                  1.5488                                         !
 ! R8    R(7,11)                 1.2291                                         !
 ! R9    R(7,23)                 1.3467                                         !
 ! R10   R(8,9)                  1.0931                                         !
 ! R11   R(8,10)                 1.0959                                         !
 ! R12   R(8,12)                 1.513                                          !
 ! R13   R(12,13)                1.4027                                         !
 ! R14   R(12,15)                1.401                                          !
 ! R15   R(13,14)                1.0877                                         !
 ! R16   R(13,17)                1.3965                                         !
 ! R17   R(15,16)                1.0876                                         !
 ! R18   R(15,19)                1.3945                                         !
 ! R19   R(17,18)                1.0865                                         !
 ! R20   R(17,21)                1.3961                                         !
 ! R21   R(19,20)                1.0863                                         !
 ! R22   R(19,21)                1.3969                                         !
 ! R23   R(21,22)                1.0863                                         !
 ! R24   R(23,24)                1.0162                                         !
 ! R25   R(23,25)                1.462                                          !
 ! R26   R(25,26)                1.1006                                         !
 ! R27   R(25,27)                1.5457                                         !
 ! R28   R(25,28)                1.5325                                         !
 ! R29   R(27,32)                1.2373                                         !
 ! R30   R(27,33)                1.3464                                         !
 ! R31   R(28,29)                1.0958                                         !
 ! R32   R(28,30)                1.0943                                         !
 ! R33   R(28,31)                1.0898                                         !
 ! R34   R(33,34)                1.0104                                         !
 ! R35   R(33,35)                1.4707                                         !
 ! R36   R(35,36)                1.0949                                         !
 ! R37   R(35,37)                1.5515                                         !
 ! R38   R(35,38)                1.5236                                         !
 ! R39   R(37,42)                1.2272                                         !
 ! R40   R(37,43)                1.3601                                         !
 ! R41   R(38,39)                1.0921                                         !
 ! R42   R(38,40)                1.0947                                         !
 ! R43   R(38,41)                1.0941                                         !
 ! R44   R(43,44)                1.0182                                         !
 ! R45   R(43,45)                1.4476                                         !
 ! R46   R(45,46)                1.0976                                         !
 ! R47   R(45,47)                1.5288                                         !
 ! R48   R(45,48)                1.5623                                         !
 ! R49   R(47,51)                1.2283                                         !
 ! R50   R(47,64)                1.367                                          !
 ! R51   R(48,49)                1.0977                                         !
 ! R52   R(48,50)                1.0941                                         !
 ! R53   R(48,52)                1.5102                                         !
 ! R54   R(52,53)                1.4014                                         !
 ! R55   R(52,55)                1.4007                                         !
 ! R56   R(53,54)                1.0865                                         !
 ! R57   R(53,57)                1.3945                                         !
 ! R58   R(55,56)                1.0857                                         !
 ! R59   R(55,59)                1.3938                                         !
 ! R60   R(57,58)                1.0856                                         !
 ! R61   R(57,63)                1.4003                                         !
 ! R62   R(59,60)                1.0847                                         !
 ! R63   R(59,63)                1.4002                                         !
 ! R64   R(61,62)                1.0043                                         !
 ! R65   R(61,63)                1.371                                          !
 ! R66   R(64,65)                1.0111                                         !
 ! R67   R(64,66)                1.4576                                         !
 ! R68   R(66,67)                1.0923                                         !
 ! R69   R(66,68)                1.5393                                         !
 ! R70   R(66,69)                1.5316                                         !
 ! R71   R(68,72)                1.2449                                         !
 ! R72   R(68,83)                1.3421                                         !
 ! R73   R(69,70)                1.0973                                         !
 ! R74   R(69,71)                1.0995                                         !
 ! R75   R(69,73)                1.544                                          !
 ! R76   R(73,74)                1.0998                                         !
 ! R77   R(73,75)                1.5365                                         !
 ! R78   R(73,79)                1.5369                                         !
 ! R79   R(75,76)                1.0972                                         !
 ! R80   R(75,77)                1.0951                                         !
 ! R81   R(75,78)                1.0942                                         !
 ! R82   R(79,80)                1.0964                                         !
 ! R83   R(79,81)                1.1015                                         !
 ! R84   R(79,82)                1.0956                                         !
 ! R85   R(83,84)                1.0133                                         !
 ! R86   R(83,85)                1.4613                                         !
 ! R87   R(85,86)                1.0908                                         !
 ! R88   R(85,87)                1.5423                                         !
 ! R89   R(85,88)                1.5402                                         !
 ! R90   R(87,91)                1.2284                                         !
 ! R91   R(87,98)                1.3565                                         !
 ! R92   R(88,89)                1.0995                                         !
 ! R93   R(88,90)                1.0964                                         !
 ! R94   R(88,92)                1.5457                                         !
 ! R95   R(92,93)                1.0947                                         !
 ! R96   R(92,94)                1.0922                                         !
 ! R97   R(92,95)                1.5329                                         !
 ! R98   R(95,96)                1.2602                                         !
 ! R99   R(95,97)                1.2748                                         !
 ! R100  R(98,99)                1.0284                                         !
 ! R101  R(98,100)               1.4523                                         !
 ! R102  R(100,101)              1.0961                                         !
 ! R103  R(100,102)              1.5246                                         !
 ! R104  R(100,103)              1.5514                                         !
 ! R105  R(102,106)              1.2088                                         !
 ! R106  R(102,122)              1.3532                                         !
 ! R107  R(103,104)              1.0947                                         !
 ! R108  R(103,105)              1.0929                                         !
 ! R109  R(103,107)              1.5325                                         !
 ! R110  R(107,108)              1.0952                                         !
 ! R111  R(107,109)              1.0972                                         !
 ! R112  R(107,110)              1.5376                                         !
 ! R113  R(110,111)              1.0929                                         !
 ! R114  R(110,112)              1.0938                                         !
 ! R115  R(110,113)              1.4803                                         !
 ! R116  R(113,114)              1.0139                                         !
 ! R117  R(113,121)              1.3418                                         !
 ! R118  R(115,116)              1.0097                                         !
 ! R119  R(115,117)              1.0096                                         !
 ! R120  R(115,121)              1.3455                                         !
 ! R121  R(118,119)              1.0112                                         !
 ! R122  R(118,120)              1.0375                                         !
 ! R123  R(118,121)              1.3346                                         !
 ! R124  R(122,123)              0.9765                                         !
 ! A1    A(2,1,3)              110.2384                                         !
 ! A2    A(2,1,4)              113.3489                                         !
 ! A3    A(2,1,5)              109.7369                                         !
 ! A4    A(3,1,4)              106.5971                                         !
 ! A5    A(3,1,5)              109.1705                                         !
 ! A6    A(4,1,5)              107.617                                          !
 ! A7    A(1,5,6)              106.1528                                         !
 ! A8    A(1,5,7)              107.1394                                         !
 ! A9    A(1,5,8)              110.7574                                         !
 ! A10   A(6,5,7)              109.6367                                         !
 ! A11   A(6,5,8)              109.6433                                         !
 ! A12   A(7,5,8)              113.2449                                         !
 ! A13   A(5,7,11)             120.5183                                         !
 ! A14   A(5,7,23)             112.896                                          !
 ! A15   A(11,7,23)            126.583                                          !
 ! A16   A(5,8,9)              107.3142                                         !
 ! A17   A(5,8,10)             107.577                                          !
 ! A18   A(5,8,12)             112.8409                                         !
 ! A19   A(9,8,10)             107.7973                                         !
 ! A20   A(9,8,12)             110.0779                                         !
 ! A21   A(10,8,12)            111.0271                                         !
 ! A22   A(8,12,13)            119.7988                                         !
 ! A23   A(8,12,15)            121.0517                                         !
 ! A24   A(13,12,15)           119.0937                                         !
 ! A25   A(12,13,14)           119.2832                                         !
 ! A26   A(12,13,17)           120.3499                                         !
 ! A27   A(14,13,17)           120.3662                                         !
 ! A28   A(12,15,16)           119.5942                                         !
 ! A29   A(12,15,19)           120.5378                                         !
 ! A30   A(16,15,19)           119.8677                                         !
 ! A31   A(13,17,18)           119.7325                                         !
 ! A32   A(13,17,21)           120.1413                                         !
 ! A33   A(18,17,21)           120.1252                                         !
 ! A34   A(15,19,20)           119.825                                          !
 ! A35   A(15,19,21)           120.0664                                         !
 ! A36   A(20,19,21)           120.1086                                         !
 ! A37   A(17,21,19)           119.8105                                         !
 ! A38   A(17,21,22)           120.1333                                         !
 ! A39   A(19,21,22)           120.0558                                         !
 ! A40   A(7,23,24)            119.2983                                         !
 ! A41   A(7,23,25)            128.1649                                         !
 ! A42   A(24,23,25)           112.521                                          !
 ! A43   A(23,25,26)           109.2393                                         !
 ! A44   A(23,25,27)           103.0177                                         !
 ! A45   A(23,25,28)           113.7721                                         !
 ! A46   A(26,25,27)           106.601                                          !
 ! A47   A(26,25,28)           108.6405                                         !
 ! A48   A(27,25,28)           115.1865                                         !
 ! A49   A(25,27,32)           119.3108                                         !
 ! A50   A(25,27,33)           118.4415                                         !
 ! A51   A(32,27,33)           122.2387                                         !
 ! A52   A(25,28,29)           110.2912                                         !
 ! A53   A(25,28,30)           111.3773                                         !
 ! A54   A(25,28,31)           109.6825                                         !
 ! A55   A(29,28,30)           109.1956                                         !
 ! A56   A(29,28,31)           107.8719                                         !
 ! A57   A(30,28,31)           108.3342                                         !
 ! A58   A(27,33,34)           120.1099                                         !
 ! A59   A(27,33,35)           122.0252                                         !
 ! A60   A(34,33,35)           117.5416                                         !
 ! A61   A(33,35,36)           106.158                                          !
 ! A62   A(33,35,37)           110.4594                                         !
 ! A63   A(33,35,38)           110.1629                                         !
 ! A64   A(36,35,37)           108.1258                                         !
 ! A65   A(36,35,38)           110.7677                                         !
 ! A66   A(37,35,38)           111.0378                                         !
 ! A67   A(35,37,42)           121.8166                                         !
 ! A68   A(35,37,43)           115.2878                                         !
 ! A69   A(42,37,43)           122.8956                                         !
 ! A70   A(35,38,39)           109.9421                                         !
 ! A71   A(35,38,40)           110.8323                                         !
 ! A72   A(35,38,41)           110.3185                                         !
 ! A73   A(39,38,40)           106.952                                          !
 ! A74   A(39,38,41)           109.07                                           !
 ! A75   A(40,38,41)           109.6519                                         !
 ! A76   A(37,43,44)           120.9245                                         !
 ! A77   A(37,43,45)           120.2473                                         !
 ! A78   A(44,43,45)           118.6521                                         !
 ! A79   A(43,45,46)           107.9732                                         !
 ! A80   A(43,45,47)           108.3849                                         !
 ! A81   A(43,45,48)           112.9694                                         !
 ! A82   A(46,45,47)           109.7782                                         !
 ! A83   A(46,45,48)           106.7124                                         !
 ! A84   A(47,45,48)           110.9495                                         !
 ! A85   A(45,47,51)           123.0097                                         !
 ! A86   A(45,47,64)           115.0187                                         !
 ! A87   A(51,47,64)           121.9641                                         !
 ! A88   A(45,48,49)           108.0004                                         !
 ! A89   A(45,48,50)           105.5489                                         !
 ! A90   A(45,48,52)           115.0759                                         !
 ! A91   A(49,48,50)           106.5249                                         !
 ! A92   A(49,48,52)           109.6164                                         !
 ! A93   A(50,48,52)           111.6437                                         !
 ! A94   A(48,52,53)           121.6773                                         !
 ! A95   A(48,52,55)           120.5588                                         !
 ! A96   A(53,52,55)           117.7633                                         !
 ! A97   A(52,53,54)           119.1164                                         !
 ! A98   A(52,53,57)           121.3085                                         !
 ! A99   A(54,53,57)           119.5746                                         !
 ! A100  A(52,55,56)           119.7285                                         !
 ! A101  A(52,55,59)           121.7272                                         !
 ! A102  A(56,55,59)           118.5427                                         !
 ! A103  A(53,57,58)           121.017                                          !
 ! A104  A(53,57,63)           120.0275                                         !
 ! A105  A(58,57,63)           118.9548                                         !
 ! A106  A(55,59,60)           120.6156                                         !
 ! A107  A(55,59,63)           119.6595                                         !
 ! A108  A(60,59,63)           119.7147                                         !
 ! A109  A(62,61,63)           109.4079                                         !
 ! A110  A(57,63,59)           119.4593                                         !
 ! A111  A(57,63,61)           118.7856                                         !
 ! A112  A(59,63,61)           121.752                                          !
 ! A113  A(47,64,65)           119.3236                                         !
 ! A114  A(47,64,66)           120.2849                                         !
 ! A115  A(65,64,66)           118.4674                                         !
 ! A116  A(64,66,67)           106.3048                                         !
 ! A117  A(64,66,68)           109.0141                                         !
 ! A118  A(64,66,69)           111.1741                                         !
 ! A119  A(67,66,68)           109.5115                                         !
 ! A120  A(67,66,69)           109.3362                                         !
 ! A121  A(68,66,69)           111.3632                                         !
 ! A122  A(66,68,72)           120.8425                                         !
 ! A123  A(66,68,83)           114.6334                                         !
 ! A124  A(72,68,83)           124.5205                                         !
 ! A125  A(66,69,70)           108.1006                                         !
 ! A126  A(66,69,71)           108.3832                                         !
 ! A127  A(66,69,73)           114.1367                                         !
 ! A128  A(70,69,71)           106.3978                                         !
 ! A129  A(70,69,73)           109.6743                                         !
 ! A130  A(71,69,73)           109.8461                                         !
 ! A131  A(69,73,74)           108.357                                          !
 ! A132  A(69,73,75)           112.3367                                         !
 ! A133  A(69,73,79)           109.9025                                         !
 ! A134  A(74,73,75)           107.0851                                         !
 ! A135  A(74,73,79)           108.9185                                         !
 ! A136  A(75,73,79)           110.1326                                         !
 ! A137  A(73,75,76)           111.1038                                         !
 ! A138  A(73,75,77)           110.545                                          !
 ! A139  A(73,75,78)           111.5991                                         !
 ! A140  A(76,75,77)           107.8626                                         !
 ! A141  A(76,75,78)           108.5204                                         !
 ! A142  A(77,75,78)           107.0446                                         !
 ! A143  A(73,79,80)           110.845                                          !
 ! A144  A(73,79,81)           112.9018                                         !
 ! A145  A(73,79,82)           111.1343                                         !
 ! A146  A(80,79,81)           106.0423                                         !
 ! A147  A(80,79,82)           107.6097                                         !
 ! A148  A(81,79,82)           108.0324                                         !
 ! A149  A(68,83,84)           115.5747                                         !
 ! A150  A(68,83,85)           125.0823                                         !
 ! A151  A(84,83,85)           116.1333                                         !
 ! A152  A(83,85,86)           107.8242                                         !
 ! A153  A(83,85,87)           110.0851                                         !
 ! A154  A(83,85,88)           109.931                                          !
 ! A155  A(86,85,87)           109.033                                          !
 ! A156  A(86,85,88)           109.13                                           !
 ! A157  A(87,85,88)           110.7755                                         !
 ! A158  A(85,87,91)           122.5676                                         !
 ! A159  A(85,87,98)           111.7832                                         !
 ! A160  A(91,87,98)           125.6492                                         !
 ! A161  A(85,88,89)           108.6306                                         !
 ! A162  A(85,88,90)           108.5683                                         !
 ! A163  A(85,88,92)           113.9298                                         !
 ! A164  A(89,88,90)           107.3818                                         !
 ! A165  A(89,88,92)           108.8488                                         !
 ! A166  A(90,88,92)           109.2817                                         !
 ! A167  A(88,92,93)           109.7462                                         !
 ! A168  A(88,92,94)           108.7583                                         !
 ! A169  A(88,92,95)           112.0543                                         !
 ! A170  A(93,92,94)           108.1814                                         !
 ! A171  A(93,92,95)           109.4396                                         !
 ! A172  A(94,92,95)           108.573                                          !
 ! A173  A(92,95,96)           117.0544                                         !
 ! A174  A(92,95,97)           117.4218                                         !
 ! A175  A(96,95,97)           125.4668                                         !
 ! A176  A(87,98,99)           116.8396                                         !
 ! A177  A(87,98,100)          123.949                                          !
 ! A178  A(99,98,100)          119.2103                                         !
 ! A179  A(98,100,101)         112.0347                                         !
 ! A180  A(98,100,102)         110.6004                                         !
 ! A181  A(98,100,103)         109.5915                                         !
 ! A182  A(101,100,102)        105.5749                                         !
 ! A183  A(101,100,103)        109.0901                                         !
 ! A184  A(102,100,103)        109.8675                                         !
 ! A185  A(100,102,106)        123.4287                                         !
 ! A186  A(100,102,122)        112.8931                                         !
 ! A187  A(106,102,122)        123.5726                                         !
 ! A188  A(100,103,104)        105.8129                                         !
 ! A189  A(100,103,105)        106.7173                                         !
 ! A190  A(100,103,107)        116.8291                                         !
 ! A191  A(104,103,105)        106.0689                                         !
 ! A192  A(104,103,107)        109.9525                                         !
 ! A193  A(105,103,107)        110.8217                                         !
 ! A194  A(103,107,108)        111.7425                                         !
 ! A195  A(103,107,109)        110.3681                                         !
 ! A196  A(103,107,110)        110.4227                                         !
 ! A197  A(108,107,109)        105.9896                                         !
 ! A198  A(108,107,110)        108.3489                                         !
 ! A199  A(109,107,110)        109.8537                                         !
 ! A200  A(107,110,111)        109.5155                                         !
 ! A201  A(107,110,112)        111.7929                                         !
 ! A202  A(107,110,113)        110.9598                                         !
 ! A203  A(111,110,112)        108.0441                                         !
 ! A204  A(111,110,113)        107.3095                                         !
 ! A205  A(112,110,113)        109.0736                                         !
 ! A206  A(110,113,114)        115.7195                                         !
 ! A207  A(110,113,121)        124.6183                                         !
 ! A208  A(114,113,121)        114.3876                                         !
 ! A209  A(116,115,117)        117.8615                                         !
 ! A210  A(116,115,121)        120.8829                                         !
 ! A211  A(117,115,121)        121.2416                                         !
 ! A212  A(119,118,120)        114.3552                                         !
 ! A213  A(119,118,121)        117.8116                                         !
 ! A214  A(120,118,121)        122.4735                                         !
 ! A215  A(113,121,115)        119.6046                                         !
 ! A216  A(113,121,118)        120.4359                                         !
 ! A217  A(115,121,118)        119.9017                                         !
 ! A218  A(102,122,123)        107.2128                                         !
 ! D1    D(2,1,5,6)            169.6442                                         !
 ! D2    D(2,1,5,7)             52.5505                                         !
 ! D3    D(2,1,5,8)            -71.4056                                         !
 ! D4    D(3,1,5,6)             48.7251                                         !
 ! D5    D(3,1,5,7)            -68.3686                                         !
 ! D6    D(3,1,5,8)            167.6753                                         !
 ! D7    D(4,1,5,6)            -66.5959                                         !
 ! D8    D(4,1,5,7)            176.3104                                         !
 ! D9    D(4,1,5,8)             52.3543                                         !
 ! D10   D(1,5,7,11)           -18.0925                                         !
 ! D11   D(1,5,7,23)           161.3424                                         !
 ! D12   D(6,5,7,11)          -132.8729                                         !
 ! D13   D(6,5,7,23)            46.562                                          !
 ! D14   D(8,5,7,11)           104.3268                                         !
 ! D15   D(8,5,7,23)           -76.2383                                         !
 ! D16   D(1,5,8,9)            -69.6109                                         !
 ! D17   D(1,5,8,10)           174.63                                           !
 ! D18   D(1,5,8,12)            51.8215                                         !
 ! D19   D(6,5,8,9)             47.2085                                         !
 ! D20   D(6,5,8,10)           -68.5506                                         !
 ! D21   D(6,5,8,12)           168.6408                                         !
 ! D22   D(7,5,8,9)            170.0051                                         !
 ! D23   D(7,5,8,10)            54.246                                          !
 ! D24   D(7,5,8,12)           -68.5625                                         !
 ! D25   D(5,7,23,24)            3.2024                                         !
 ! D26   D(5,7,23,25)         -178.3647                                         !
 ! D27   D(11,7,23,24)        -177.4039                                         !
 ! D28   D(11,7,23,25)           1.029                                          !
 ! D29   D(5,8,12,13)          -93.7352                                         !
 ! D30   D(5,8,12,15)           83.5212                                         !
 ! D31   D(9,8,12,13)           26.1182                                         !
 ! D32   D(9,8,12,15)         -156.6253                                         !
 ! D33   D(10,8,12,13)         145.4028                                         !
 ! D34   D(10,8,12,15)         -37.3407                                         !
 ! D35   D(8,12,13,14)          -2.902                                          !
 ! D36   D(8,12,13,17)         177.4013                                         !
 ! D37   D(15,12,13,14)        179.7878                                         !
 ! D38   D(15,12,13,17)          0.0911                                         !
 ! D39   D(8,12,15,16)           2.7205                                         !
 ! D40   D(8,12,15,19)        -177.4796                                         !
 ! D41   D(13,12,15,16)        179.9959                                         !
 ! D42   D(13,12,15,19)         -0.2042                                         !
 ! D43   D(12,13,17,18)        179.6401                                         !
 ! D44   D(12,13,17,21)         -0.0012                                         !
 ! D45   D(14,13,17,18)         -0.0533                                         !
 ! D46   D(14,13,17,21)       -179.6946                                         !
 ! D47   D(12,15,19,20)       -179.7076                                         !
 ! D48   D(12,15,19,21)          0.2273                                         !
 ! D49   D(16,15,19,20)          0.0917                                         !
 ! D50   D(16,15,19,21)       -179.9734                                         !
 ! D51   D(13,17,21,19)          0.0223                                         !
 ! D52   D(13,17,21,22)        179.7957                                         !
 ! D53   D(18,17,21,19)       -179.6176                                         !
 ! D54   D(18,17,21,22)          0.1558                                         !
 ! D55   D(15,19,21,17)         -0.1347                                         !
 ! D56   D(15,19,21,22)       -179.9083                                         !
 ! D57   D(20,19,21,17)        179.8                                            !
 ! D58   D(20,19,21,22)          0.0264                                         !
 ! D59   D(7,23,25,26)         -79.816                                          !
 ! D60   D(7,23,25,27)         167.1501                                         !
 ! D61   D(7,23,25,28)          41.7614                                         !
 ! D62   D(24,23,25,26)         98.7046                                         !
 ! D63   D(24,23,25,27)        -14.3293                                         !
 ! D64   D(24,23,25,28)       -139.718                                          !
 ! D65   D(23,25,27,32)         31.7337                                         !
 ! D66   D(23,25,27,33)       -147.2009                                         !
 ! D67   D(26,25,27,32)        -83.2174                                         !
 ! D68   D(26,25,27,33)         97.848                                          !
 ! D69   D(28,25,27,32)        156.2002                                         !
 ! D70   D(28,25,27,33)        -22.7344                                         !
 ! D71   D(23,25,28,29)       -174.9919                                         !
 ! D72   D(23,25,28,30)         63.5969                                         !
 ! D73   D(23,25,28,31)        -56.3225                                         !
 ! D74   D(26,25,28,29)        -53.0823                                         !
 ! D75   D(26,25,28,30)       -174.4936                                         !
 ! D76   D(26,25,28,31)         65.587                                          !
 ! D77   D(27,25,28,29)         66.379                                          !
 ! D78   D(27,25,28,30)        -55.0323                                         !
 ! D79   D(27,25,28,31)       -174.9517                                         !
 ! D80   D(25,27,33,34)          4.9602                                         !
 ! D81   D(25,27,33,35)        178.2686                                         !
 ! D82   D(32,27,33,34)       -173.9414                                         !
 ! D83   D(32,27,33,35)         -0.633                                          !
 ! D84   D(27,33,35,36)         35.0726                                         !
 ! D85   D(27,33,35,37)        -81.915                                          !
 ! D86   D(27,33,35,38)        155.0495                                         !
 ! D87   D(34,33,35,36)       -151.4552                                         !
 ! D88   D(34,33,35,37)         91.5572                                         !
 ! D89   D(34,33,35,38)        -31.4783                                         !
 ! D90   D(33,35,37,42)       -116.5433                                         !
 ! D91   D(33,35,37,43)         63.3999                                         !
 ! D92   D(36,35,37,42)        127.6932                                         !
 ! D93   D(36,35,37,43)        -52.3636                                         !
 ! D94   D(38,35,37,42)          5.9815                                         !
 ! D95   D(38,35,37,43)       -174.0753                                         !
 ! D96   D(33,35,38,39)       -178.5091                                         !
 ! D97   D(33,35,38,40)         63.4615                                         !
 ! D98   D(33,35,38,41)        -58.1797                                         !
 ! D99   D(36,35,38,39)        -61.3604                                         !
 ! D100  D(36,35,38,40)       -179.3898                                         !
 ! D101  D(36,35,38,41)         58.9691                                         !
 ! D102  D(37,35,38,39)         58.7945                                         !
 ! D103  D(37,35,38,40)        -59.2348                                         !
 ! D104  D(37,35,38,41)        179.124                                          !
 ! D105  D(35,37,43,44)          1.9651                                         !
 ! D106  D(35,37,43,45)        177.0776                                         !
 ! D107  D(42,37,43,44)       -178.0923                                         !
 ! D108  D(42,37,43,45)         -2.9799                                         !
 ! D109  D(37,43,45,46)        -42.5186                                         !
 ! D110  D(37,43,45,47)       -161.3801                                         !
 ! D111  D(37,43,45,48)         75.2467                                         !
 ! D112  D(44,43,45,46)        132.7038                                         !
 ! D113  D(44,43,45,47)         13.8424                                         !
 ! D114  D(44,43,45,48)       -109.5308                                         !
 ! D115  D(43,45,47,51)        -21.1187                                         !
 ! D116  D(43,45,47,64)        159.8631                                         !
 ! D117  D(46,45,47,51)       -138.8333                                         !
 ! D118  D(46,45,47,64)         42.1484                                         !
 ! D119  D(48,45,47,51)        103.4631                                         !
 ! D120  D(48,45,47,64)        -75.5551                                         !
 ! D121  D(43,45,48,49)       -167.2732                                         !
 ! D122  D(43,45,48,50)        -53.6424                                         !
 ! D123  D(43,45,48,52)         69.9224                                         !
 ! D124  D(46,45,48,49)        -48.7715                                         !
 ! D125  D(46,45,48,50)         64.8593                                         !
 ! D126  D(46,45,48,52)       -171.5759                                         !
 ! D127  D(47,45,48,49)         70.7838                                         !
 ! D128  D(47,45,48,50)       -175.5854                                         !
 ! D129  D(47,45,48,52)        -52.0206                                         !
 ! D130  D(45,47,64,65)          8.6698                                         !
 ! D131  D(45,47,64,66)        172.6473                                         !
 ! D132  D(51,47,64,65)       -170.3597                                         !
 ! D133  D(51,47,64,66)         -6.3822                                         !
 ! D134  D(45,48,52,53)        -80.9791                                         !
 ! D135  D(45,48,52,55)         98.7334                                         !
 ! D136  D(49,48,52,53)        157.0848                                         !
 ! D137  D(49,48,52,55)        -23.2027                                         !
 ! D138  D(50,48,52,53)         39.2912                                         !
 ! D139  D(50,48,52,55)       -140.9963                                         !
 ! D140  D(48,52,53,54)         -1.3183                                         !
 ! D141  D(48,52,53,57)        178.4204                                         !
 ! D142  D(55,52,53,54)        178.9615                                         !
 ! D143  D(55,52,53,57)         -1.2998                                         !
 ! D144  D(48,52,55,56)          0.8234                                         !
 ! D145  D(48,52,55,59)       -178.7098                                         !
 ! D146  D(53,52,55,56)       -179.4531                                         !
 ! D147  D(53,52,55,59)          1.0137                                         !
 ! D148  D(52,53,57,58)        179.3825                                         !
 ! D149  D(52,53,57,63)         -0.3201                                         !
 ! D150  D(54,53,57,58)         -0.88                                           !
 ! D151  D(54,53,57,63)        179.4174                                         !
 ! D152  D(52,55,59,60)       -177.9436                                         !
 ! D153  D(52,55,59,63)          0.8925                                         !
 ! D154  D(56,55,59,60)          2.5177                                         !
 ! D155  D(56,55,59,63)       -178.6461                                         !
 ! D156  D(53,57,63,59)          2.2515                                         !
 ! D157  D(53,57,63,61)       -178.3764                                         !
 ! D158  D(58,57,63,59)       -177.4572                                         !
 ! D159  D(58,57,63,61)          1.9149                                         !
 ! D160  D(55,59,63,57)         -2.5265                                         !
 ! D161  D(55,59,63,61)        178.1207                                         !
 ! D162  D(60,59,63,57)        176.3202                                         !
 ! D163  D(60,59,63,61)         -3.0326                                         !
 ! D164  D(62,61,63,57)        149.8055                                         !
 ! D165  D(62,61,63,59)        -30.8375                                         !
 ! D166  D(47,64,66,67)         44.0706                                         !
 ! D167  D(47,64,66,68)        -73.8907                                         !
 ! D168  D(47,64,66,69)        162.9696                                         !
 ! D169  D(65,64,66,67)       -151.8167                                         !
 ! D170  D(65,64,66,68)         90.2219                                         !
 ! D171  D(65,64,66,69)        -32.9177                                         !
 ! D172  D(64,66,68,72)        -68.8435                                         !
 ! D173  D(64,66,68,83)        110.5026                                         !
 ! D174  D(67,66,68,72)        175.2344                                         !
 ! D175  D(67,66,68,83)         -5.4195                                         !
 ! D176  D(69,66,68,72)         54.1831                                         !
 ! D177  D(69,66,68,83)       -126.4708                                         !
 ! D178  D(64,66,69,70)        -61.9273                                         !
 ! D179  D(64,66,69,71)         53.0084                                         !
 ! D180  D(64,66,69,73)        175.756                                          !
 ! D181  D(67,66,69,70)         55.1374                                         !
 ! D182  D(67,66,69,71)        170.0731                                         !
 ! D183  D(67,66,69,73)        -67.1793                                         !
 ! D184  D(68,66,69,70)        176.2911                                         !
 ! D185  D(68,66,69,71)        -68.7732                                         !
 ! D186  D(68,66,69,73)         53.9744                                         !
 ! D187  D(66,68,83,84)        -14.7824                                         !
 ! D188  D(66,68,83,85)       -173.6642                                         !
 ! D189  D(72,68,83,84)        164.5362                                         !
 ! D190  D(72,68,83,85)          5.6544                                         !
 ! D191  D(66,69,73,74)        -60.7532                                         !
 ! D192  D(66,69,73,75)         57.3455                                         !
 ! D193  D(66,69,73,79)       -179.6635                                         !
 ! D194  D(70,69,73,74)        177.7956                                         !
 ! D195  D(70,69,73,75)        -64.1057                                         !
 ! D196  D(70,69,73,79)         58.8853                                         !
 ! D197  D(71,69,73,74)         61.1939                                         !
 ! D198  D(71,69,73,75)        179.2926                                         !
 ! D199  D(71,69,73,79)        -57.7165                                         !
 ! D200  D(69,73,75,76)         54.949                                          !
 ! D201  D(69,73,75,77)        174.6691                                         !
 ! D202  D(69,73,75,78)        -66.3155                                         !
 ! D203  D(74,73,75,76)        173.7972                                         !
 ! D204  D(74,73,75,77)        -66.4828                                         !
 ! D205  D(74,73,75,78)         52.5326                                         !
 ! D206  D(79,73,75,76)        -67.9125                                         !
 ! D207  D(79,73,75,77)         51.8076                                         !
 ! D208  D(79,73,75,78)        170.823                                          !
 ! D209  D(69,73,79,80)        -65.681                                          !
 ! D210  D(69,73,79,81)         53.1259                                         !
 ! D211  D(69,73,79,82)        174.6986                                         !
 ! D212  D(74,73,79,80)        175.754                                          !
 ! D213  D(74,73,79,81)        -65.439                                          !
 ! D214  D(74,73,79,82)         56.1337                                         !
 ! D215  D(75,73,79,80)         58.5974                                         !
 ! D216  D(75,73,79,81)        177.4044                                         !
 ! D217  D(75,73,79,82)        -61.0229                                         !
 ! D218  D(68,83,85,86)         72.3159                                         !
 ! D219  D(68,83,85,87)        -46.5202                                         !
 ! D220  D(68,83,85,88)       -168.8185                                         !
 ! D221  D(84,83,85,86)        -86.4611                                         !
 ! D222  D(84,83,85,87)        154.7028                                         !
 ! D223  D(84,83,85,88)         32.4045                                         !
 ! D224  D(83,85,87,91)        -36.4147                                         !
 ! D225  D(83,85,87,98)        143.5076                                         !
 ! D226  D(86,85,87,91)       -154.5079                                         !
 ! D227  D(86,85,87,98)         25.4144                                         !
 ! D228  D(88,85,87,91)         85.3831                                         !
 ! D229  D(88,85,87,98)        -94.6946                                         !
 ! D230  D(83,85,88,89)        -54.8002                                         !
 ! D231  D(83,85,88,90)         61.6755                                         !
 ! D232  D(83,85,88,92)       -176.3073                                         !
 ! D233  D(86,85,88,89)         63.2605                                         !
 ! D234  D(86,85,88,90)        179.7362                                         !
 ! D235  D(86,85,88,92)        -58.2466                                         !
 ! D236  D(87,85,88,89)       -176.6884                                         !
 ! D237  D(87,85,88,90)        -60.2127                                         !
 ! D238  D(87,85,88,92)         61.8045                                         !
 ! D239  D(85,87,98,99)         11.4408                                         !
 ! D240  D(85,87,98,100)      -168.9472                                         !
 ! D241  D(91,87,98,99)       -168.6399                                         !
 ! D242  D(91,87,98,100)        10.9722                                         !
 ! D243  D(85,88,92,93)        -60.7612                                         !
 ! D244  D(85,88,92,94)       -178.9271                                         !
 ! D245  D(85,88,92,95)         61.0382                                         !
 ! D246  D(89,88,92,93)        177.8527                                         !
 ! D247  D(89,88,92,94)         59.6868                                         !
 ! D248  D(89,88,92,95)        -60.3479                                         !
 ! D249  D(90,88,92,93)         60.8617                                         !
 ! D250  D(90,88,92,94)        -57.3041                                         !
 ! D251  D(90,88,92,95)       -177.3389                                         !
 ! D252  D(88,92,95,96)        104.0293                                         !
 ! D253  D(88,92,95,97)        -73.3746                                         !
 ! D254  D(93,92,95,96)       -133.9958                                         !
 ! D255  D(93,92,95,97)         48.6003                                         !
 ! D256  D(94,92,95,96)        -16.1134                                         !
 ! D257  D(94,92,95,97)        166.4827                                         !
 ! D258  D(87,98,100,101)      -75.7545                                         !
 ! D259  D(87,98,100,102)      166.7567                                         !
 ! D260  D(87,98,100,103)       45.4811                                         !
 ! D261  D(99,98,100,101)      103.8488                                         !
 ! D262  D(99,98,100,102)      -13.6399                                         !
 ! D263  D(99,98,100,103)     -134.9155                                         !
 ! D264  D(98,100,102,106)     153.0968                                         !
 ! D265  D(98,100,102,122)     -30.5238                                         !
 ! D266  D(101,100,102,106)     31.7078                                         !
 ! D267  D(101,100,102,122)   -151.9128                                         !
 ! D268  D(103,100,102,106)    -85.791                                          !
 ! D269  D(103,100,102,122)     90.5883                                         !
 ! D270  D(98,100,103,104)      33.4991                                         !
 ! D271  D(98,100,103,105)     -79.1717                                         !
 ! D272  D(98,100,103,107)     156.2297                                         !
 ! D273  D(101,100,103,104)    156.4949                                         !
 ! D274  D(101,100,103,105)     43.824                                          !
 ! D275  D(101,100,103,107)    -80.7746                                         !
 ! D276  D(102,100,103,104)    -88.2173                                         !
 ! D277  D(102,100,103,105)    159.1118                                         !
 ! D278  D(102,100,103,107)     34.5132                                         !
 ! D279  D(100,102,122,123)    179.793                                          !
 ! D280  D(106,102,122,123)     -3.8337                                         !
 ! D281  D(100,103,107,108)     44.3046                                         !
 ! D282  D(100,103,107,109)    -73.367                                          !
 ! D283  D(100,103,107,110)    164.9778                                         !
 ! D284  D(104,103,107,108)    164.8672                                         !
 ! D285  D(104,103,107,109)     47.1957                                         !
 ! D286  D(104,103,107,110)    -74.4595                                         !
 ! D287  D(105,103,107,108)    -78.1898                                         !
 ! D288  D(105,103,107,109)    164.1387                                         !
 ! D289  D(105,103,107,110)     42.4835                                         !
 ! D290  D(103,107,110,111)    -74.7938                                         !
 ! D291  D(103,107,110,112)    165.4949                                         !
 ! D292  D(103,107,110,113)     43.4874                                         !
 ! D293  D(108,107,110,111)     47.8865                                         !
 ! D294  D(108,107,110,112)    -71.8248                                         !
 ! D295  D(108,107,110,113)    166.1677                                         !
 ! D296  D(109,107,110,111)    163.2472                                         !
 ! D297  D(109,107,110,112)     43.5359                                         !
 ! D298  D(109,107,110,113)    -78.4715                                         !
 ! D299  D(107,110,113,114)     44.2444                                         !
 ! D300  D(107,110,113,121)   -108.5575                                         !
 ! D301  D(111,110,113,114)    163.8535                                         !
 ! D302  D(111,110,113,121)     11.0517                                         !
 ! D303  D(112,110,113,114)    -79.3356                                         !
 ! D304  D(112,110,113,121)    127.8625                                         !
 ! D305  D(110,113,121,115)    -38.7392                                         !
 ! D306  D(110,113,121,118)    144.0285                                         !
 ! D307  D(114,113,121,115)    168.1412                                         !
 ! D308  D(114,113,121,118)     -9.0911                                         !
 ! D309  D(116,115,121,113)    163.6894                                         !
 ! D310  D(116,115,121,118)    -19.0634                                         !
 ! D311  D(117,115,121,113)    -17.6969                                         !
 ! D312  D(117,115,121,118)    159.5504                                         !
 ! D313  D(119,118,121,113)    168.0507                                         !
 ! D314  D(119,118,121,115)     -9.1734                                         !
 ! D315  D(120,118,121,113)    -39.2794                                         !
 ! D316  D(120,118,121,115)    143.4965                                         !
 --------------------------------------------------------------------------------
 Symmetry turned off by external request.
 Stoichiometry    C41H61N10O11(1+)
 Framework group  C1[X(C41H61N10O11)]
 Deg. of freedom   363
 Full point group                 C1      NOp   1
                          Input orientation:                          
 ---------------------------------------------------------------------
 Center     Atomic      Atomic             Coordinates (Angstroms)
 Number     Number       Type             X           Y           Z
 ---------------------------------------------------------------------
      1          7           0       -3.514284    4.649007    0.483438
      2          1           0       -4.324211    5.246725    0.671597
      3          1           0       -3.751214    3.939750   -0.232847
      4          1           0       -2.660976    5.191092    0.109510
      5          6           0       -3.096560    3.958853    1.735869
      6          1           0       -2.362226    3.204929    1.437493
      7          6           0       -4.343875    3.266658    2.309403
      8          6           0       -2.444503    4.958965    2.722417
      9          1           0       -1.481965    5.254725    2.297112
     10          1           0       -2.246856    4.421095    3.656620
     11          8           0       -5.468155    3.604533    1.945319
     12          6           0       -3.300418    6.181701    2.970609
     13          6           0       -3.100769    7.339576    2.204384
     14          1           0       -2.298219    7.360066    1.470476
     15          6           0       -4.332452    6.161237    3.917917
     16          1           0       -4.494539    5.267724    4.516384
     17          6           0       -3.919564    8.456069    2.386461
     18          1           0       -3.752271    9.349744    1.791608
     19          6           0       -5.148376    7.277205    4.101062
     20          1           0       -5.942188    7.250340    4.842190
     21          6           0       -4.944222    8.426875    3.334232
     22          1           0       -5.578965    9.296626    3.478083
     23          7           0       -4.044541    2.297416    3.195198
     24          1           0       -3.073234    2.136136    3.446524
     25          6           0       -4.962516    1.412961    3.911168
     26          1           0       -5.391964    1.953215    4.768529
     27          6           0       -4.022166    0.334126    4.495091
     28          6           0       -6.108331    0.879545    3.044565
     29          1           0       -6.807967    0.298157    3.655492
     30          1           0       -5.733733    0.251477    2.230509
     31          1           0       -6.658060    1.713656    2.608893
     32          8           0       -2.867336    0.644692    4.812442
     33          7           0       -4.487884   -0.922968    4.619899
     34          1           0       -5.404084   -1.161465    4.266916
     35          6           0       -3.649516   -2.018168    5.130394
     36          1           0       -2.999583   -1.574864    5.891877
     37          6           0       -2.751083   -2.585625    3.999902
     38          6           0       -4.523100   -3.110315    5.735008
     39          1           0       -3.896083   -3.909199    6.136525
     40          1           0       -5.165700   -3.561686    4.972297
     41          1           0       -5.139967   -2.700944    6.540584
     42          8           0       -2.860260   -3.742787    3.606029
     43          7           0       -1.844888   -1.712193    3.484281
     44          1           0       -1.760465   -0.767062    3.853417
     45          6           0       -0.909531   -2.146759    2.468470
     46          1           0       -0.533260   -3.136926    2.755895
     47          6           0        0.247025   -1.148175    2.419076
     48          6           0       -1.568958   -2.307814    1.061326
     49          1           0       -0.864772   -2.849682    0.416708
     50          1           0       -2.425654   -2.971240    1.213097
     51          8           0        0.157572    0.000874    2.843764
     52          6           0       -1.976313   -1.015892    0.393725
     53          6           0       -3.172566   -0.363468    0.721400
     54          1           0       -3.833319   -0.809972    1.459359
     55          6           0       -1.156481   -0.426630   -0.577202
     56          1           0       -0.226733   -0.909518   -0.861903
     57          6           0       -3.525627    0.845943    0.123682
     58          1           0       -4.458210    1.342310    0.373737
     59          6           0       -1.495711    0.778621   -1.189624
     60          1           0       -0.864150    1.202188   -1.963148
     61          8           0       -3.031394    2.641733   -1.366350
     62          1           0       -2.203367    3.159931   -1.599509
     63          6           0       -2.675348    1.435947   -0.819542
     64          7           0        1.394139   -1.620108    1.844628
     65          1           0        1.381553   -2.517036    1.377993
     66          6           0        2.513452   -0.721252    1.592188
     67          1           0        2.624081   -0.109523    2.490295
     68          6           0        2.170840    0.182071    0.393848
     69          6           0        3.807387   -1.503757    1.349039
     70          1           0        4.035774   -2.075582    2.257284
     71          1           0        3.622203   -2.242126    0.555747
     72          8           0        2.084870   -0.287949   -0.755700
     73          6           0        5.017262   -0.621731    0.972112
     74          1           0        4.780610   -0.089456    0.039207
     75          6           0        5.316646    0.444805    2.036870
     76          1           0        5.454819   -0.011428    3.025097
     77          1           0        6.232963    0.990113    1.787574
     78          1           0        4.512194    1.183414    2.104456
     79          6           0        6.255678   -1.502586    0.742852
     80          1           0        6.565060   -1.990865    1.674548
     81          1           0        6.076930   -2.313425    0.019045
     82          1           0        7.102539   -0.907649    0.383368
     83          7           0        1.968768    1.471765    0.705269
     84          1           0        1.831414    1.667671    1.689906
     85          6           0        1.504951    2.497970   -0.225997
     86          1           0        0.449259    2.312534   -0.428493
     87          6           0        2.293929    2.408885   -1.548243
     88          6           0        1.659642    3.892364    0.409619
     89          1           0        1.134608    3.898241    1.375680
     90          1           0        2.722670    4.067151    0.613495
     91          8           0        3.487589    2.121536   -1.587930
     92          6           0        1.111364    5.043827   -0.463731
     93          1           0        1.651198    5.075412   -1.415596
     94          1           0        1.280512    5.989725    0.055550
     95          6           0       -0.390408    4.896730   -0.733570
     96          8           0       -1.165861    5.647939   -0.083543
     97          8           0       -0.753327    3.993092   -1.556215
     98          7           0        1.510220    2.681316   -2.621415
     99          1           0        0.581517    3.079119   -2.429153
    100          6           0        1.911820    2.451901   -3.998120
    101          1           0        2.620569    3.209688   -4.351451
    102          6           0        0.709794    2.549151   -4.930847
    103          6           0        2.563996    1.049789   -4.122999
    104          1           0        2.042242    0.412807   -3.401688
    105          1           0        3.588836    1.145948   -3.755840
    106          8           0        0.793752    2.865201   -6.094528
    107          6           0        2.541032    0.397276   -5.509473
    108          1           0        2.810250    1.108889   -6.297283
    109          1           0        1.529224    0.048109   -5.750476
    110          6           0        3.527054   -0.781327   -5.564190
    111          1           0        4.549487   -0.399595   -5.621718
    112          1           0        3.352841   -1.416296   -6.437583
    113          7           0        3.433549   -1.607251   -4.339278
    114          1           0        2.494126   -1.816100   -4.020064
    115          7           0        5.670700   -1.632829   -3.715680
    116          1           0        6.380797   -1.422113   -3.029457
    117          1           0        5.971409   -1.846904   -4.655340
    118          7           0        4.015300   -1.775421   -2.096683
    119          1           0        4.740581   -1.991015   -1.425802
    120          1           0        3.194266   -1.283660   -1.695984
    121          6           0        4.368481   -1.653603   -3.377949
    122          8           0       -0.446975    2.169739   -4.340072
    123          1           0       -1.156086    2.266911   -5.004290
 ---------------------------------------------------------------------
 Rotational constants (GHZ):           0.0494387           0.0295841           0.0228510
 Standard basis: 6-31G(d) (6D, 7F)
  1052 basis functions,  1980 primitive gaussians,  1052 cartesian basis functions
   232 alpha electrons      232 beta electrons
       nuclear repulsion energy     10445.0460950495 Hartrees.
 NAtoms=  123 NActive=  123 NUniq=  123 SFac= 1.00D+00 NAtFMM=   60 NAOKFM=T Big=T
 Integral buffers will be    131072 words long.
 Raffenetti 2 integral format.
 Two-electron integral symmetry is turned off.
 Nuclear repulsion after empirical dispersion term =    10444.8456708531 Hartrees.
 One-electron integrals computed using PRISM.
 NBasis=  1052 RedAO= T EigKep=  3.89D-04  NBF=  1052
 NBsUse=  1052 1.00D-06 EigRej= -1.00D+00 NBFU=  1052
 Initial guess from the checkpoint file:  "conf-477.chk"
 B after Tr=     0.000000    0.000000    0.000000
         Rot=    1.000000    0.000000    0.000000    0.000000 Ang=   0.00 deg.
 Requested convergence on RMS density matrix=1.00D-08 within 128 cycles.
 Requested convergence on MAX density matrix=1.00D-06.
 Requested convergence on             energy=1.00D-06.
 No special actions if energy rises.
 SCF Done:  E(RB3LYP) =  -2974.27336779     A.U. after    3 cycles
            NFock=  3  Conv=0.88D-09     -V/T= 2.0094
 Hyperfine terms turned off by default for NAtoms > 100.

 **********************************************************************

            Population analysis using the SCF Density.

 **********************************************************************

 Alpha  occ. eigenvalues --  -19.28487 -19.23283 -19.22434 -19.22406 -19.20960
 Alpha  occ. eigenvalues --  -19.20813 -19.20061 -19.18957 -19.18747 -19.18402
 Alpha  occ. eigenvalues --  -19.18402 -14.51590 -14.50939 -14.49287 -14.48557
 Alpha  occ. eigenvalues --  -14.46082 -14.45669 -14.45549 -14.44207 -14.42639
 Alpha  occ. eigenvalues --  -14.42295 -10.47129 -10.40641 -10.38809 -10.37969
 Alpha  occ. eigenvalues --  -10.37829 -10.37308 -10.36252 -10.36161 -10.35445
 Alpha  occ. eigenvalues --  -10.35099 -10.32974 -10.32935 -10.32600 -10.32594
 Alpha  occ. eigenvalues --  -10.31490 -10.31301 -10.31078 -10.31054 -10.29430
 Alpha  occ. eigenvalues --  -10.29003 -10.28833 -10.28397 -10.27825 -10.27713
 Alpha  occ. eigenvalues --  -10.27350 -10.26736 -10.26258 -10.26058 -10.26030
 Alpha  occ. eigenvalues --  -10.25968 -10.25944 -10.25796 -10.25658 -10.25458
 Alpha  occ. eigenvalues --  -10.25209 -10.25029 -10.24971 -10.24806 -10.24781
 Alpha  occ. eigenvalues --  -10.24720 -10.24665  -1.19208  -1.15605  -1.13865
 Alpha  occ. eigenvalues --   -1.13181  -1.12701  -1.12105  -1.11791  -1.10868
 Alpha  occ. eigenvalues --   -1.10602  -1.10218  -1.10212  -1.05163  -1.04693
 Alpha  occ. eigenvalues --   -1.03429  -1.02557  -1.02439  -1.01872  -1.01639
 Alpha  occ. eigenvalues --   -1.00998  -1.00172  -0.99137  -0.92109  -0.91721
 Alpha  occ. eigenvalues --   -0.91220  -0.90507  -0.88214  -0.87816  -0.86423
 Alpha  occ. eigenvalues --   -0.85433  -0.85014  -0.83962  -0.83195  -0.81506
 Alpha  occ. eigenvalues --   -0.80287  -0.80246  -0.79877  -0.79812  -0.79130
 Alpha  occ. eigenvalues --   -0.77655  -0.77373  -0.75357  -0.74759  -0.73836
 Alpha  occ. eigenvalues --   -0.73202  -0.72777  -0.72185  -0.71341  -0.71243
 Alpha  occ. eigenvalues --   -0.69325  -0.68950  -0.68645  -0.68395  -0.67956
 Alpha  occ. eigenvalues --   -0.67684  -0.66675  -0.66486  -0.65778  -0.65686
 Alpha  occ. eigenvalues --   -0.65213  -0.65142  -0.64725  -0.64270  -0.63884
 Alpha  occ. eigenvalues --   -0.63427  -0.63254  -0.62853  -0.61708  -0.61576
 Alpha  occ. eigenvalues --   -0.60845  -0.59915  -0.59683  -0.58877  -0.58795
 Alpha  occ. eigenvalues --   -0.58566  -0.57648  -0.57421  -0.56900  -0.56544
 Alpha  occ. eigenvalues --   -0.56455  -0.56287  -0.55947  -0.55577  -0.55477
 Alpha  occ. eigenvalues --   -0.55032  -0.54641  -0.54370  -0.54233  -0.53855
 Alpha  occ. eigenvalues --   -0.53718  -0.53241  -0.52896  -0.52730  -0.52466
 Alpha  occ. eigenvalues --   -0.52387  -0.51922  -0.51554  -0.51231  -0.51102
 Alpha  occ. eigenvalues --   -0.50908  -0.50650  -0.50393  -0.50249  -0.50048
 Alpha  occ. eigenvalues --   -0.49920  -0.49676  -0.49260  -0.49066  -0.48931
 Alpha  occ. eigenvalues --   -0.48800  -0.48349  -0.48092  -0.47823  -0.47756
 Alpha  occ. eigenvalues --   -0.47522  -0.47470  -0.47407  -0.47117  -0.46929
 Alpha  occ. eigenvalues --   -0.46802  -0.46547  -0.46392  -0.46241  -0.45940
 Alpha  occ. eigenvalues --   -0.45905  -0.45632  -0.45448  -0.45371  -0.45089
 Alpha  occ. eigenvalues --   -0.45025  -0.44940  -0.44260  -0.44103  -0.43657
 Alpha  occ. eigenvalues --   -0.43586  -0.43173  -0.42873  -0.42727  -0.42698
 Alpha  occ. eigenvalues --   -0.42494  -0.42214  -0.41957  -0.41704  -0.41649
 Alpha  occ. eigenvalues --   -0.41281  -0.40537  -0.40408  -0.39891  -0.39825
 Alpha  occ. eigenvalues --   -0.39696  -0.38723  -0.37290  -0.36262  -0.36130
 Alpha  occ. eigenvalues --   -0.36115  -0.35263  -0.34936  -0.34256  -0.33938
 Alpha  occ. eigenvalues --   -0.33811  -0.33598  -0.33360  -0.32583  -0.32559
 Alpha  occ. eigenvalues --   -0.32325  -0.32302  -0.31640  -0.31349  -0.30876
 Alpha  occ. eigenvalues --   -0.30520  -0.28650
 Alpha virt. eigenvalues --   -0.12516  -0.08577  -0.08146  -0.08038  -0.07426
 Alpha virt. eigenvalues --   -0.07391  -0.06731  -0.06616  -0.06327  -0.05976
 Alpha virt. eigenvalues --   -0.05559  -0.05343  -0.04301  -0.03871  -0.03772
 Alpha virt. eigenvalues --   -0.03565  -0.01847  -0.01178  -0.00907  -0.00513
 Alpha virt. eigenvalues --   -0.00195   0.00572   0.00788   0.01363   0.02088
 Alpha virt. eigenvalues --    0.02586   0.02802   0.03004   0.03296   0.03841
 Alpha virt. eigenvalues --    0.04116   0.04173   0.04638   0.04738   0.05021
 Alpha virt. eigenvalues --    0.05196   0.05598   0.05918   0.06081   0.06437
 Alpha virt. eigenvalues --    0.06610   0.06801   0.06973   0.07178   0.07429
[...]
 Alpha virt. eigenvalues --    1.10104   1.10645   1.11132   1.11201   1.11394
 Alpha virt. eigenvalues --    1.12605   1.13156   1.13955   1.14204   1.14548
 Alpha virt. eigenvalues --    1.15443   1.15901   1.16044   1.16462   1.17268
 Alpha virt. eigenvalues --    1.17899   1.18187   1.18350   1.19161   1.19206
 Alpha virt. eigenvalues --    1.19656   1.20004   1.20406   1.20724   1.21392
 Alpha virt. eigenvalues --    1.21884   1.22295   1.22534   1.23259   1.23822
 Alpha virt. eigenvalues --    1.24254   1.24624   1.25381   1.26319   1.27152
 Alpha virt. eigenvalues --    1.27359   1.27670   1.28579   1.29536   1.30377
 Alpha virt. eigenvalues --    1.30774   1.31034   1.31596   1.31818   1.32072
 Alpha virt. eigenvalues --    1.32448   1.33076   1.33766   1.34025   1.34991
 Alpha virt. eigenvalues --    1.35087   1.35638   1.36329   1.36655   1.36716
 Alpha virt. eigenvalues --    1.37213   1.37543   1.37904   1.38355   1.38652
 Alpha virt. eigenvalues --    1.39217   1.39481   1.39823   1.40873   1.41206
 Alpha virt. eigenvalues --    1.41416   1.41654   1.42037   1.42342   1.42789
 Alpha virt. eigenvalues --    1.42928   1.43351   1.43578   1.44035   1.44657
 Alpha virt. eigenvalues --    1.45013   1.45329   1.45483   1.45688   1.46828
 Alpha virt. eigenvalues --    1.47022   1.47681   1.47712   1.48610   1.48915
 Alpha virt. eigenvalues --    1.49320   1.49853   1.50402   1.50441   1.51505
 Alpha virt. eigenvalues --    1.52571   1.53262   1.53772   1.54735   1.55136
 Alpha virt. eigenvalues --    1.55359   1.56600   1.57261   1.58471   1.58544
 Alpha virt. eigenvalues --    1.59257   1.59890   1.61413   1.61858   1.61920
 Alpha virt. eigenvalues --    1.62757   1.63361   1.63775   1.64206   1.64960
 Alpha virt. eigenvalues --    1.65434   1.66154   1.66741   1.66930   1.67439
 Alpha virt. eigenvalues --    1.67897   1.68683   1.69168   1.69406   1.70071
 Alpha virt. eigenvalues --    1.70540   1.70971   1.71344   1.71661   1.71926
 Alpha virt. eigenvalues --    1.72393   1.72542   1.72777   1.73124   1.73472
 Alpha virt. eigenvalues --    1.73666   1.73766   1.74070   1.74613   1.74700
 Alpha virt. eigenvalues --    1.75180   1.75302   1.75401   1.76081   1.76177
 Alpha virt. eigenvalues --    1.76770   1.76839   1.77217   1.77437   1.77479
 Alpha virt. eigenvalues --    1.77688   1.78260   1.78853   1.78949   1.79099
 Alpha virt. eigenvalues --    1.79582   1.79838   1.80651   1.80878   1.81182
 Alpha virt. eigenvalues --    1.81489   1.81592   1.82087   1.82804   1.83138
 Alpha virt. eigenvalues --    1.83314   1.83427   1.83730   1.83954   1.84226
 Alpha virt. eigenvalues --    1.84422   1.85003   1.85864   1.86028   1.86184
 Alpha virt. eigenvalues --    1.86484   1.86906   1.87352   1.87856   1.88052
 Alpha virt. eigenvalues --    1.88310   1.88855   1.89428   1.89638   1.89894
 Alpha virt. eigenvalues --    1.90477   1.90610   1.90990   1.91000   1.91812
 Alpha virt. eigenvalues --    1.92117   1.92392   1.92578   1.92931   1.93090
 Alpha virt. eigenvalues --    1.93580   1.93728   1.94096   1.94341   1.94571
 Alpha virt. eigenvalues --    1.95022   1.95388   1.95629   1.96224   1.96657
 Alpha virt. eigenvalues --    1.97016   1.97545   1.97938   1.98123   1.98216
 Alpha virt. eigenvalues --    1.99229   1.99578   1.99946   2.00211   2.00695
 Alpha virt. eigenvalues --    2.01008   2.01130   2.01423   2.01612   2.02698
 Alpha virt. eigenvalues --    2.02938   2.03585   2.04038   2.04431   2.04955
 Alpha virt. eigenvalues --    2.05480   2.05997   2.06784   2.07235   2.07424
 Alpha virt. eigenvalues --    2.07849   2.07943   2.08460   2.08593   2.08966
 Alpha virt. eigenvalues --    2.09317   2.09695   2.10170   2.10698   2.10848
 Alpha virt. eigenvalues --    2.11644   2.12356   2.12811   2.13545   2.14132
 Alpha virt. eigenvalues --    2.15264   2.15529   2.15998   2.16554   2.17506
 Alpha virt. eigenvalues --    2.18022   2.19053   2.19515   2.19600   2.19847
 Alpha virt. eigenvalues --    2.21203   2.21822   2.22084   2.22478   2.22611
 Alpha virt. eigenvalues --    2.23207   2.23869   2.24305   2.24580   2.24941
 Alpha virt. eigenvalues --    2.25156   2.25719   2.26630   2.26824   2.27806
 Alpha virt. eigenvalues --    2.27838   2.28370   2.28623   2.29315   2.29455
 Alpha virt. eigenvalues --    2.29778   2.29860   2.30525   2.31096   2.31650
 Alpha virt. eigenvalues --    2.31934   2.32659   2.33265   2.33445   2.33988
 Alpha virt. eigenvalues --    2.34336   2.34532   2.35121   2.35617   2.36935
 Alpha virt. eigenvalues --    2.37001   2.37478   2.37966   2.38933   2.39382
 Alpha virt. eigenvalues --    2.39568   2.40133   2.41289   2.41618   2.42006
 Alpha virt. eigenvalues --    2.42391   2.43167   2.43840   2.44285   2.44531
 Alpha virt. eigenvalues --    2.44832   2.46880   2.47384   2.47833   2.48223
 Alpha virt. eigenvalues --    2.49225   2.49369   2.49826   2.51466   2.52346
 Alpha virt. eigenvalues --    2.52401   2.52754   2.53528   2.53928   2.54641
 Alpha virt. eigenvalues --    2.55218   2.55998   2.56541   2.57166   2.57638
 Alpha virt. eigenvalues --    2.58344   2.58609   2.58685   2.59366   2.59595
 Alpha virt. eigenvalues --    2.60084   2.60514   2.61084   2.61326   2.62179
 Alpha virt. eigenvalues --    2.62746   2.63438   2.64165   2.65040   2.65990
 Alpha virt. eigenvalues --    2.66458   2.66710   2.66921   2.67575   2.68732
 Alpha virt. eigenvalues --    2.68805   2.69073   2.69419   2.70896   2.71085
 Alpha virt. eigenvalues --    2.71188   2.71521   2.72995   2.73223   2.73993
 Alpha virt. eigenvalues --    2.74805   2.78143   2.78805   2.80595   2.81295
 Alpha virt. eigenvalues --    2.82121   2.83977   2.84317   2.85068   2.85733
 Alpha virt. eigenvalues --    2.86249   2.87060   2.87891   2.88261   2.89407
 Alpha virt. eigenvalues --    2.91484   2.92132   2.92337   2.93348   2.93853
 Alpha virt. eigenvalues --    2.94224   2.95504   2.95702   2.96266   2.97231
 Alpha virt. eigenvalues --    2.99674   3.00938   3.03364   3.06035   3.06410
 Alpha virt. eigenvalues --    3.07536   3.08325   3.10840   3.12604   3.14227
 Alpha virt. eigenvalues --    3.15942   3.34964   3.35582   3.67908   3.80255
 Alpha virt. eigenvalues --    3.84139   3.84387   3.90934   3.91501   3.93079
 Alpha virt. eigenvalues --    3.94156   3.94883   3.97756   3.99047   4.02345
 Alpha virt. eigenvalues --    4.02978   4.03868   4.05017   4.05744   4.06816
 Alpha virt. eigenvalues --    4.07292   4.07548   4.08392   4.08904   4.10653
 Alpha virt. eigenvalues --    4.11238   4.12120   4.13770   4.16202   4.17452
 Alpha virt. eigenvalues --    4.18044   4.18782   4.19343   4.20134   4.21640
 Alpha virt. eigenvalues --    4.23422   4.24480   4.25067   4.25500   4.27832
 Alpha virt. eigenvalues --    4.28750   4.30578   4.31768   4.32905   4.34511
 Alpha virt. eigenvalues --    4.35307   4.37307   4.38621   4.40713   4.44264
 Alpha virt. eigenvalues --    4.44946   4.46457   4.48129   4.49343   4.51435
 Alpha virt. eigenvalues --    4.52396   4.54323   4.56183   4.60319   4.61735
 Alpha virt. eigenvalues --    4.64419   4.67237   4.67592   4.72362   4.77274
          Condensed to atoms (all electrons):
 Mulliken charges:
               1
     1  N   -0.783731
     2  H    0.394436
     3  H    0.418980
     4  H    0.433835
     5  C   -0.116939
     6  H    0.197152
     7  C    0.665441
     8  C   -0.379065
     9  H    0.196264
    10  H    0.171601
    11  O   -0.543440
    12  C    0.128611
    13  C   -0.215360
    14  H    0.169604
    15  C   -0.165114
    16  H    0.128725
    17  C   -0.128754
    18  H    0.145011
    19  C   -0.127654
    20  H    0.143497
    21  C   -0.125981
    22  H    0.145473
    23  N   -0.639135
    24  H    0.369035
    25  C    0.002493
    26  H    0.193832
    27  C    0.611251
    28  C   -0.508709
    29  H    0.154563
    30  H    0.171505
    31  H    0.223646
    32  O   -0.547578
    33  N   -0.605159
    34  H    0.349489
    35  C   -0.065969
    36  H    0.194991
    37  C    0.617933
    38  C   -0.461206
    39  H    0.185658
    40  H    0.168300
    41  H    0.159599
    42  O   -0.520095
    43  N   -0.640744
    44  H    0.392172
    45  C   -0.028605
    46  H    0.175487
    47  C    0.636110
    48  C   -0.376713
    49  H    0.132064
    50  H    0.199183
    51  O   -0.538372
    52  C    0.182577
    53  C   -0.193716
    54  H    0.126949
    55  C   -0.212952
    56  H    0.133654
    57  C   -0.191796
    58  H    0.150483
    59  C   -0.199684
    60  H    0.163116
    61  O   -0.727654
    62  H    0.454898
    63  C    0.336973
    64  N   -0.616657
    65  H    0.336154
    66  C   -0.048939
    67  H    0.179285
    68  C    0.690641
    69  C   -0.293342
    70  H    0.168096
    71  H    0.117915
    72  O   -0.600721
    73  C   -0.107048
    74  H    0.156777
    75  C   -0.451378
    76  H    0.153972
    77  H    0.162307
    78  H    0.152011
    79  C   -0.471033
    80  H    0.173688
    81  H    0.117628
    82  H    0.161639
    83  N   -0.598236
    84  H    0.359395
    85  C   -0.034899
    86  H    0.199322
    87  C    0.635507
    88  C   -0.317161
    89  H    0.151009
    90  H    0.174943
    91  O   -0.560046
    92  C   -0.347028
    93  H    0.166882
    94  H    0.173533
    95  C    0.608028
    96  O   -0.577334
    97  O   -0.605757
    98  N   -0.687178
    99  H    0.420781
   100  C    0.025993
   101  H    0.189818
   102  C    0.563703
   103  C   -0.309263
   104  H    0.159699
   105  H    0.184331
   106  O   -0.457659
   107  C   -0.304528
   108  H    0.197632
   109  H    0.164640
   110  C   -0.171493
   111  H    0.174318
   112  H    0.193900
   113  N   -0.570355
   114  H    0.367047
   115  N   -0.744256
   116  H    0.381493
   117  H    0.383325
   118  N   -0.802499
   119  H    0.371576
   120  H    0.437127
   121  C    0.773023
   122  O   -0.557402
   123  H    0.426604
 Sum of Mulliken charges =   1.00000
 Mulliken charges with hydrogens summed into heavy atoms:
               1
     1  N    0.463520
     5  C    0.080212
     7  C    0.665441
     8  C   -0.011200
    11  O   -0.543440
    12  C    0.128611
    13  C   -0.045755
    15  C   -0.036389
    17  C    0.016258
    19  C    0.015843
    21  C    0.019492
    23  N   -0.270100
    25  C    0.196325
    27  C    0.611251
    28  C    0.041006
    32  O   -0.547578
    33  N   -0.255670
    35  C    0.129023
    37  C    0.617933
    38  C    0.052351
    42  O   -0.520095
    43  N   -0.248571
    45  C    0.146883
    47  C    0.636110
    48  C   -0.045466
    51  O   -0.538372
    52  C    0.182577
    53  C   -0.066767
    55  C   -0.079299
    57  C   -0.041313
    59  C   -0.036568
    61  O   -0.272756
    63  C    0.336973
    64  N   -0.280503
    66  C    0.130346
    68  C    0.690641
    69  C   -0.007330
    72  O   -0.600721
    73  C    0.049729
    75  C    0.016912
    79  C   -0.018078
    83  N   -0.238842
    85  C    0.164423
    87  C    0.635507
    88  C    0.008791
    91  O   -0.560046
    92  C   -0.006614
    95  C    0.608028
    96  O   -0.577334
    97  O   -0.605757
    98  N   -0.266397
   100  C    0.215811
   102  C    0.563703
   103  C    0.034767
   106  O   -0.457659
   107  C    0.057745
   110  C    0.196726
   113  N   -0.203308
   115  N    0.020561
   118  N    0.006204
   121  C    0.773023
   122  O   -0.130798
 Electronic spatial extent (au):  <R**2>=          52582.5470
 Charge=              1.0000 electrons
 Dipole moment (field-independent basis, Debye):
    X=              9.2110    Y=             -2.2401    Z=             -3.7830  Tot=             10.2065
 Quadrupole moment (field-independent basis, Debye-Ang):
   XX=           -232.8299   YY=           -330.1926   ZZ=           -286.2615
   XY=            -47.7267   XZ=            -76.2670   YZ=             28.9055
 Traceless Quadrupole moment (field-independent basis, Debye-Ang):
   XX=             50.2647   YY=            -47.0979   ZZ=             -3.1668
   XY=            -47.7267   XZ=            -76.2670   YZ=             28.9055
 Octapole moment (field-independent basis, Debye-Ang**2):
  XXX=            858.3660  YYY=          -1212.6949  ZZZ=           -672.3746  XYY=             99.0774
  XXY=           -573.1543  XXZ=           -234.5409  XZZ=            252.4944  YZZ=           -617.3297
  YYZ=           -141.0070  XYZ=             48.9406
 Hexadecapole moment (field-independent basis, Debye-Ang**3):
 XXXX=         -20853.1464 YYYY=         -21799.5064 ZZZZ=         -18810.2274 XXXY=           3452.2985
 XXXZ=           4094.6874 YYYX=           2877.0397 YYYZ=           -214.1678 ZZZX=           4896.9624
 ZZZY=           -408.9236 XXYY=          -7140.2410 XXZZ=          -5101.0162 YYZZ=          -7255.8779
 XXYZ=            333.0544 YYXZ=           1796.0633 ZZXY=            927.8688
 N-N= 1.044484567085D+04 E-N=-2.778125342725D+04  KE= 2.946675389494D+03
 Unable to Open any file for archive entry.
 1\1\GINC-AMR-013\SP\RB3LYP\6-31G(d)\C41H61N10O11(1+)\KENGMITH\02-Aug-2
 022\0\\# B3LYP/6-31G* empiricaldispersion=gd3 guess=read geom=check no
 symm integral(ultrafinegrid)\\Candidate Structure: Conf:477 Charge cal
 c in gas phase\\1,1\N,0,-3.5142844991,4.6490072858,0.4834383971\H,0,-4
 .3242111071,5.2467248495,0.6715971677\H,0,-3.7512136485,3.9397495079,-
 0.2328468488\H,0,-2.6609755477,5.1910919523,0.1095101103\C,0,-3.096560
 3938,3.9588534066,1.7358685249\H,0,-2.3622262975,3.2049294337,1.437493
 0127\C,0,-4.3438748487,3.2666578234,2.3094030621\C,0,-2.4445031538,4.9
 58964951,2.722417355\H,0,-1.481965415,5.2547246044,2.2971124465\H,0,-2
 .2468558956,4.4210950225,3.6566196\O,0,-5.4681548402,3.6045332637,1.94
 53191648\C,0,-3.3004177732,6.1817009203,2.9706088077\C,0,-3.1007685996
 ,7.339575611,2.2043840002\H,0,-2.298219046,7.3600659252,1.4704761973\C
 ,0,-4.332452124,6.1612370642,3.9179173654\H,0,-4.4945387597,5.26772433
 39,4.5163844339\C,0,-3.9195643356,8.4560690554,2.3864612436\H,0,-3.752
 2714546,9.3497436801,1.7916080416\C,0,-5.1483764157,7.277205316,4.1010
 61931\H,0,-5.9421875647,7.2503404289,4.8421900796\C,0,-4.9442223378,8.
 4268746696,3.3342324049\H,0,-5.5789652051,9.2966258433,3.4780827558\N,
 0,-4.0445407818,2.297415667,3.1951977543\H,0,-3.073233898,2.1361361143
 ,3.4465235279\C,0,-4.9625162085,1.4129612604,3.911167997\H,0,-5.391963
 608,1.9532146423,4.7685289078\C,0,-4.022165925,0.3341260797,4.49509106
 15\C,0,-6.1083307942,0.8795448929,3.0445648135\H,0,-6.8079670202,0.298
 1565745,3.6554917827\H,0,-5.7337331673,0.2514771884,2.2305091612\H,0,-
 6.6580603145,1.7136559238,2.6088932861\O,0,-2.8673356222,0.644691898,4
 .8124420422\N,0,-4.4878842791,-0.922967513,4.6198990492\H,0,-5.4040838
 088,-1.1614648986,4.2669163817\C,0,-3.6495158474,-2.0181679819,5.13039
 37029\H,0,-2.9995831299,-1.5748644609,5.8918770562\C,0,-2.7510834327,-
 2.58562472,3.9999024238\C,0,-4.5231001893,-3.1103149634,5.7350084257\H
 ,0,-3.8960829424,-3.9091989726,6.1365245765\H,0,-5.1656997318,-3.56168
 57629,4.9722969253\H,0,-5.1399665856,-2.7009438328,6.5405839292\O,0,-2
 .8602596733,-3.7427867869,3.6060293014\N,0,-1.8448879301,-1.7121925357
 ,3.4842806641\H,0,-1.760464752,-0.7670618925,3.8534173319\C,0,-0.90953
 13453,-2.1467594179,2.4684702793\H,0,-0.5332596268,-3.1369262057,2.755
 8948204\C,0,0.2470250053,-1.1481753268,2.4190761476\C,0,-1.5689576476,
 -2.3078142376,1.0613257985\H,0,-0.8647717051,-2.8496822036,0.416708006
 5\H,0,-2.4256536643,-2.9712396586,1.2130971084\O,0,0.1575718945,0.0008
 739733,2.8437644345\C,0,-1.9763132593,-1.0158915634,0.3937250682\C,0,-
 3.1725661049,-0.3634678806,0.7213996447\H,0,-3.8333189168,-0.809971631
 4,1.4593588206\C,0,-1.1564806191,-0.4266300943,-0.5772021741\H,0,-0.22
 67333664,-0.909518035,-0.8619028502\C,0,-3.5256265685,0.8459425429,0.1
 236816756\H,0,-4.4582102754,1.3423095416,0.3737365646\C,0,-1.495711420
 9,0.7786205278,-1.1896244253\H,0,-0.864149783,1.2021881834,-1.96314848
 46\O,0,-3.0313937722,2.6417332409,-1.3663503772\H,0,-2.2033670562,3.15
 9931045,-1.5995093662\C,0,-2.6753481696,1.4359469979,-0.8195418066\N,0
 ,1.3941388844,-1.6201081768,1.8446279108\H,0,1.3815527071,-2.517035838
 9,1.3779933543\C,0,2.5134521499,-0.7212523164,1.592188232\H,0,2.624081
 1933,-0.1095231821,2.4902954233\C,0,2.1708402451,0.1820709331,0.393847
 5804\C,0,3.8073872286,-1.5037566172,1.3490385727\H,0,4.0357743246,-2.0
 755818688,2.2572835749\H,0,3.6222026194,-2.2421256802,0.5557470516\O,0
 ,2.084870431,-0.2879490096,-0.7556999389\C,0,5.0172624619,-0.621731006
 6,0.9721118067\H,0,4.7806102909,-0.0894556768,0.0392073668\C,0,5.31664
 5859,0.4448045216,2.0368702245\H,0,5.4548194169,-0.0114282608,3.025097
 3781\H,0,6.2329625313,0.9901127518,1.7875743381\H,0,4.512194397,1.1834
 135773,2.1044559129\C,0,6.2556777973,-1.5025864629,0.7428521502\H,0,6.
 5650597994,-1.9908654513,1.6745481581\H,0,6.0769303511,-2.3134245094,0
 .0190452582\H,0,7.1025393584,-0.9076487355,0.3833677389\N,0,1.96876758
 58,1.4717649397,0.7052688864\H,0,1.8314140206,1.6676705052,1.689905979
 9\C,0,1.5049507617,2.4979697208,-0.2259969255\H,0,0.4492587127,2.31253
 43955,-0.4284934496\C,0,2.2939293139,2.4088850536,-1.5482433492\C,0,1.
 6596424056,3.8923642736,0.4096193454\H,0,1.1346080643,3.8982408271,1.3
 75680114\H,0,2.7226704726,4.0671512359,0.6134948221\O,0,3.4875893459,2
 .1215362249,-1.5879297868\C,0,1.1113637736,5.0438267181,-0.4637308651\
 H,0,1.6511975983,5.0754124208,-1.41559636\H,0,1.2805116616,5.989725378
 9,0.0555496652\C,0,-0.3904076844,4.8967300902,-0.7335701366\O,0,-1.165
 8613403,5.647938606,-0.0835429667\O,0,-0.7533265448,3.9930921274,-1.55
 62149127\N,0,1.5102199014,2.6813158763,-2.6214145653\H,0,0.5815174968,
 3.0791192481,-2.429153306\C,0,1.9118196774,2.4519008851,-3.9981195852\
 H,0,2.6205686879,3.2096881403,-4.3514514759\C,0,0.7097938482,2.5491513
 005,-4.9308471885\C,0,2.5639961073,1.049789471,-4.1229994734\H,0,2.042
 2420969,0.4128069625,-3.4016882376\H,0,3.5888357161,1.1459479169,-3.75
 58398691\O,0,0.7937519433,2.8652005909,-6.0945277692\C,0,2.5410315359,
 0.3972763242,-5.5094734705\H,0,2.810250097,1.1088894095,-6.2972831791\
 H,0,1.5292238925,0.0481091135,-5.7504759506\C,0,3.5270543187,-0.781327
 0781,-5.5641898903\H,0,4.549486939,-0.3995947885,-5.6217178885\H,0,3.3
 52840505,-1.4162963843,-6.4375832933\N,0,3.433549443,-1.6072512626,-4.
 3392782675\H,0,2.4941257491,-1.8161001724,-4.0200637394\N,0,5.67069986
 03,-1.6328287699,-3.715679712\H,0,6.3807968377,-1.4221129404,-3.029457
 4761\H,0,5.9714094095,-1.8469038014,-4.6553404969\N,0,4.0153001667,-1.
 7754209726,-2.0966834091\H,0,4.7405814772,-1.9910153405,-1.4258019303\
 H,0,3.1942656192,-1.2836602133,-1.6959836509\C,0,4.3684814762,-1.65360
 32995,-3.3779487826\O,0,-0.4469754336,2.1697390562,-4.3400716643\H,0,-
 1.156085946,2.2669106033,-5.0042897429\\Version=ES64L-G16RevC.01\HF=-2
 974.2733678\RMSD=8.831e-10\Dipole=4.5749123,-3.4469226,-2.4066461\Quad
 rupole=37.3706036,-35.0161412,-2.3544624,-35.4836139,-56.7026432,21.49
 04993\PG=C01 [X(C41H61N10O11)]\\@
 The archive entry for this job was punched.


 LORD, MAN... WERE YE BUT WHYLES WHERE I AM, 
 THE GENTILES YE WAD NE'ER ENVY 'EM.        
 IT'S TRUE, THEY NEEDNA STARVE OR SWEAT,     
 THRO' WINTER'S CAULD OR SIMMER'S HEAT...  
 THEY'VE NAE SAIR WARK TO CRAZE THEIR BANES, 
 AND FILL AULD AGE WITH GRIPS AN' GRANES...  
                                             
 BUT HUMAN BODIES ARE SIC FOOLS              
 FOR A' THEIR COLLEGES AND SCHOOLS,           
 THAT WHEN NAE REAL ILLS PERPLEX THEM,       
 THEY MAK ENOW THEMSELVES TO VEX THEM,       
 AN' AYE THE LESS THEY HAE TO STURT THEM,    
 IN LIKE PROPORTION LESS WILL HURT THEM....  
                                             
                (ROBERT BURNS 'THE TWA DOGS')
 Job cpu time:       0 days  0 hours  9 minutes 54.0 seconds.
 Elapsed time:       0 days  0 hours  2 minutes 29.6 seconds.
 File lengths (MBytes):  RWF=    816 Int=      0 D2E=      0 Chk=    128 Scr=     32
 Normal termination of Gaussian 16 at Tue Aug  2 21:48:54 2022.
