 Entering Gaussian System, Link 0=/opt/software/Gaussian/g16-AVX2-C.01/g16/g16
 Input=charge-conf-234.com
 Output=charge-conf-234.log
 Initial command:
 /opt/software/Gaussian/g16-AVX2-C.01/g16/l1.exe "/mnt/gs21/scratch/kengmith/Gau-96692.inp" -scrdir="/mnt/gs21/scratch/kengmith/"
 Entering Link 1 = /opt/software/Gaussian/g16-AVX2-C.01/g16/l1.exe PID=     96702.
  
 Copyright (c) 1988-2019, Gaussian, Inc.  All Rights Reserved.
  
 This is part of the Gaussian(R) 16 program.  It is based on
 the Gaussian(R) 09 system (copyright 2009, Gaussian, Inc.),
 the Gaussian(R) 03 system (copyright 2003, Gaussian, Inc.),
 the Gaussian(R) 98 system (copyright 1998, Gaussian, Inc.),
 the Gaussian(R) 94 system (copyright 1995, Gaussian, Inc.),
 the Gaussian 92(TM) system (copyright 1992, Gaussian, Inc.),
 the Gaussian 90(TM) system (copyright 1990, Gaussian, Inc.),
 the Gaussian 88(TM) system (copyright 1988, Gaussian, Inc.),
 the Gaussian 86(TM) system (copyright 1986, Carnegie Mellon
 University), and the Gaussian 82(TM) system (copyright 1983,
 Carnegie Mellon University). Gaussian is a federally registered
 trademark of Gaussian, Inc.
  
 This software contains proprietary and confidential information,
 including trade secrets, belonging to Gaussian, Inc.
  
 This software is provided under written license and may be
 used, copied, transmitted, or stored only in accord with that
 written license.
  
 The following legend is applicable only to US Government
 contracts under FAR:
  
                    RESTRICTED RIGHTS LEGEND
  
 Use, reproduction and disclosure by the US Government is
 subject to restrictions as set forth in subparagraphs (a)
 and (c) of the Commercial Computer Software - Restricted
 Rights clause in FAR 52.227-19.
  
 Gaussian, Inc.
 340 Quinnipiac St., Bldg. 40, Wallingford CT 06492
  
  
 ---------------------------------------------------------------
 Warning -- This program may not be used in any manner that
 competes with the business of Gaussian, Inc. or will provide
 assistance to any competitor of Gaussian, Inc.  The licensee
 of this program is prohibited from giving any competitor of
 Gaussian, Inc. access to this program.  By using this program,
 the user acknowledges that Gaussian, Inc. is engaged in the
 business of creating and licensing software in the field of
 computational chemistry and represents and warrants to the
 licensee that it is not a competitor of Gaussian, Inc. and that
 it will not use this program in any manner prohibited above.
 ---------------------------------------------------------------
  

 Cite this work as:
 Gaussian 16, Revision C.01,
 M. J. Frisch, G. W. Trucks, H. B. Schlegel, G. E. Scuseria, 
 M. A. Robb, J. R. Cheeseman, G. Scalmani, V. Barone, 
 G. A. Petersson, H. Nakatsuji, X. Li, M. Caricato, A. V. Marenich, 
 J. Bloino, B. G. Janesko, R. Gomperts, B. Mennucci, H. P. Hratchian, 
 J. V. Ortiz, A. F. Izmaylov, J. L. Sonnenberg, D. Williams-Young, 
 F. Ding, F. Lipparini, F. Egidi, J. Goings, B. Peng, A. Petrone, 
 T. Henderson, D. Ranasinghe, V. G. Zakrzewski, J. Gao, N. Rega, 
 G. Zheng, W. Liang, M. Hada, M. Ehara, K. Toyota, R. Fukuda, 
 J. Hasegawa, M. Ishida, T. Nakajima, Y. Honda, O. Kitao, H. Nakai, 
 T. Vreven, K. Throssell, J. A. Montgomery, Jr., J. E. Peralta, 
 F. Ogliaro, M. J. Bearpark, J. J. Heyd, E. N. Brothers, K. N. Kudin, 
 V. N. Staroverov, T. A. Keith, R. Kobayashi, J. Normand, 
 K. Raghavachari, A. P. Rendell, J. C. Burant, S. S. Iyengar, 
 J. Tomasi, M. Cossi, J. M. Millam, M. Klene, C. Adamo, R. Cammi, 
 J. W. Ochterski, R. L. Martin, K. Morokuma, O. Farkas, 
 J. B. Foresman, and D. J. Fox, Gaussian, Inc., Wallingford CT, 2019.
 
 ******************************************
 Gaussian 16:  ES64L-G16RevC.01  3-Jul-2019
                 2-Aug-2022 
 ******************************************
 %mem=8gb
 %nproc=4
 Will use up to    4 processors via shared memory.
 %chk=conf-234.chk
 ----------------------------------------------------------------------
 # B3LYP/6-31G* empiricaldispersion=gd3 guess=read geom=check nosymm in
 tegral(ultrafinegrid)
 ----------------------------------------------------------------------
 1/29=2,38=1,172=1/1;
 2/12=2,15=1,40=1/2;
 3/5=1,6=6,7=1,11=2,14=-4,25=1,30=1,74=-5,75=-5,116=-2,124=31/1,2,3;
 4/5=1/1;
 5/5=2,38=6/2;
 6/7=2,8=2,9=2,10=2,28=1/1;
 99/5=1,9=1/99;
 ------------------------------------------------------
 Candidate Structure: Conf:234 Charge calc in gas phase
 ------------------------------------------------------
 Structure from the checkpoint file:  "conf-234.chk"
 Charge =  1 Multiplicity = 1
 Redundant internal coordinates found in file.  (old form).
 N,0,-9.18960194,-1.2902166807,7.9759702468
 H,0,-9.3341199417,-2.2059197664,7.5503527005
 H,0,-10.0812107001,-0.9435909964,8.3226846159
 H,0,-8.5426356595,-1.4176332718,8.7629713658
 C,0,-8.5554538972,-0.3385464018,7.0307836932
 H,0,-9.0905863266,-0.3514862365,6.0773658222
 C,0,-7.1049616791,-0.787317166,6.8359916935
 C,0,-8.586436428,1.0924748908,7.588379286
 H,0,-8.0259205395,1.100310296,8.5272652378
 H,0,-9.6291601559,1.3382510913,7.8176556785
 O,0,-6.4988059109,-1.3386715019,7.7481474736
 C,0,-8.0040340508,2.0858840803,6.614825269
 C,0,-6.7081475057,2.5741347837,6.7818007709
 H,0,-6.1085353951,2.2319494134,7.6208145118
 C,0,-8.7444993546,2.4927996284,5.504162986
 H,0,-9.7455860535,2.0928197637,5.3640060638
 C,0,-6.1737265784,3.4756888336,5.8614517086
 H,0,-5.1632748385,3.8483093976,5.9999918994
 C,0,-8.2124398551,3.394373535,4.5847754855
 H,0,-8.8048371013,3.7064596625,3.7326496189
 C,0,-6.9235217599,3.8901640329,4.7639943373
 H,0,-6.5051479179,4.5910007052,4.0512186149
 N,0,-6.5705756014,-0.4965715433,5.6368425
 H,0,-7.0736399463,0.0863914539,4.9782219199
 C,0,-5.1427770149,-0.6131798773,5.3839704904
 H,0,-4.6091428596,-0.4654061961,6.3274641262
 C,0,-4.8012359737,0.5095281888,4.4106689345
 C,0,-4.7732037089,-1.9791897328,4.8056276235
 H,0,-3.6999674875,-2.0268500077,4.6025035923
 H,0,-5.3101057511,-2.1439729067,3.8687940249
 H,0,-5.0395883351,-2.7691401955,5.5106736501
 O,0,-5.5790595875,0.8390294043,3.5266032289
 N,0,-3.5905473736,1.1070659193,4.6003570491
 H,0,-2.8899359179,0.555911332,5.0725684001
 C,0,-3.0651258326,1.97163361,3.555250315
 H,0,-3.9146796173,2.5335085947,3.1617325156
 C,0,-2.4842223071,1.0958662016,2.4374346889
 C,0,-2.0165006438,2.9162808046,4.1296336579
 H,0,-1.6410472594,3.5960340942,3.3616474048
 H,0,-1.1727185684,2.3469080348,4.5296639612
 H,0,-2.4538797294,3.5051688966,4.9391177652
 O,0,-2.0636078684,-0.0409086652,2.6530310224
 N,0,-2.4664485688,1.6733067396,1.217482373
 H,0,-2.7781494148,2.6219348111,1.1119470232
 C,0,-1.9429062008,0.9904654908,0.0482207194
 H,0,-2.3827110893,-0.0082934229,0.0275486833
 C,0,-0.4247119828,0.891388037,0.161644293
 C,0,-2.2931036803,1.7563893028,-1.2352747325
 H,0,-1.8034935501,2.7301799213,-1.2136932292
 H,0,-1.858314392,1.219462595,-2.0859448585
 O,0,0.2631430449,1.9139516751,0.2340075379
 C,0,-3.7640189979,1.9675690961,-1.4532499842
 C,0,-4.6815929281,0.9174479416,-1.4272781648
 H,0,-4.3316733627,-0.0934870155,-1.2534213772
 C,0,-4.2383609577,3.2546878665,-1.7005520324
 H,0,-3.5344201033,4.0785290433,-1.7520265806
 C,0,-6.040391949,1.1392948207,-1.6404522476
 H,0,-6.7511720365,0.3213014012,-1.6235948787
 C,0,-5.5950535944,3.4953746399,-1.9058607525
 H,0,-5.9443032595,4.5057314463,-2.0980522538
 O,0,-7.8452578001,2.6012571912,-2.0698862547
 H,0,-8.0220487386,3.534950521,-2.2255880238
 C,0,-6.4984626465,2.4335480765,-1.8733888798
 N,0,0.1300387813,-0.33945107,0.1518030623
 H,0,-0.4560139746,-1.153718971,0.0997714878
 C,0,1.5742907754,-0.5206302302,0.2997028255
 H,0,1.9208669903,0.3047886938,0.9275702519
 C,0,2.1780758796,-0.3289102292,-1.0994144426
 C,0,1.9235308573,-1.8551123984,0.9336561992
 H,0,1.6561540113,-2.660743004,0.246640964
 H,0,3.0112127341,-1.8995774651,1.0500150145
 O,0,2.5237098748,-1.2657372542,-1.8308711773
 C,0,1.2591862284,-2.0983586205,2.2933765822
 H,0,0.1736910162,-2.127239846,2.1422956526
 C,0,1.7067538296,-3.4527441176,2.841750254
 H,0,2.7859481397,-3.4519027561,3.0222730835
 H,0,1.2089244559,-3.6821112999,3.7881952701
 H,0,1.4816327773,-4.2603926584,2.1392736318
 C,0,1.5634109258,-0.980965455,3.2900378141
 H,0,2.6387904513,-0.9313557389,3.493616581
 H,0,1.2352941086,-0.0047041942,2.9236874392
 H,0,1.0497375966,-1.1660118979,4.2388564185
 N,0,2.2219366485,0.9608786026,-1.4862188602
 H,0,1.8066048175,1.6419454017,-0.8585226446
 C,0,2.352982442,1.3695308094,-2.8808602123
 H,0,1.9540643548,0.5521486166,-3.4982497201
 C,0,3.8191749957,1.5449725761,-3.2869286439
 C,0,1.5064274457,2.6286131854,-3.0849711449
 H,0,1.8527753112,3.4335777648,-2.4304736556
 H,0,1.6340096599,2.9987097324,-4.1040364552
 O,0,4.2680237334,2.5487279093,-3.8199145201
 C,0,0.0605202684,2.2880623391,-2.754957833
 H,0,0.034279677,1.8960868343,-1.7462097512
 H,0,-0.3429607221,1.5267347451,-3.4274946134
 C,0,-0.9445572326,3.4662191951,-2.6828668279
 O,0,-0.4793854492,4.5774678852,-2.3742761377
 O,0,-2.1403570017,3.1172183888,-2.8307914398
 N,0,4.5831044469,0.4572707545,-2.9813361847
 H,0,4.0818127367,-0.3892414768,-2.733474287
 C,0,5.9327512385,0.3389904521,-3.4706952371
 H,0,6.3541855644,1.345010088,-3.5356408646
 C,0,5.9498370851,-0.2424414209,-4.8768195206
 C,0,6.7822336949,-0.5130898507,-2.5173338543
 H,0,6.8006027449,-0.002869434,-1.5504131705
 H,0,7.8096374245,-0.5300628507,-2.8925815244
 O,0,5.0087691733,-0.7330136805,-5.4467239678
 C,0,6.2586707943,-1.9345798044,-2.3424098112
 H,0,6.1514018562,-2.4138792134,-3.3195446823
 H,0,5.2679273041,-1.9184336105,-1.8815700843
 C,0,7.1876062924,-2.7776637649,-1.4845802658
 H,0,7.302055301,-2.3260984034,-0.4913147609
 H,0,8.1780970819,-2.8117690673,-1.9499109956
 N,0,6.6535486107,-4.1489465971,-1.3808462432
 H,0,5.6436718882,-4.203086997,-1.3611195777
 N,0,8.4946692828,-4.9067133706,-0.1518542797
 H,0,9.0605253165,-5.6994184375,0.1088766168
 H,0,8.9967637791,-4.0738177059,-0.4135692971
 N,0,6.6243857929,-6.2824193025,-0.4751702119
 H,0,7.1662157199,-7.0654380988,-0.1405487779
 H,0,5.9041567233,-6.5291634521,-1.1410213393
 C,0,7.2750089722,-5.1120221788,-0.6813398849
 O,0,7.1854803379,-0.1637422892,-5.4184434803
 H,0,7.1173777313,-0.5456261924,-6.3057002668
 Recover connectivity data from disk.
                           ----------------------------
                           !    Current Parameters    !
                           ! (Angstroms and Degrees)  !
 --------------------------                            --------------------------
 ! Name  Definition              Value                                          !
 --------------------------------------------------------------------------------
 ! R1    R(1,2)                  1.0201                                         !
 ! R2    R(1,3)                  1.0175                                         !
 ! R3    R(1,4)                  1.0267                                         !
 ! R4    R(1,5)                  1.4836                                         !
 ! R5    R(5,6)                  1.0934                                         !
 ! R6    R(5,7)                  1.5308                                         !
 ! R7    R(5,8)                  1.5361                                         !
 ! R8    R(7,11)                 1.2262                                         !
 ! R9    R(7,23)                 1.3446                                         !
 ! R10   R(8,9)                  1.0935                                         !
 ! R11   R(8,10)                 1.0956                                         !
 ! R12   R(8,12)                 1.5079                                         !
 ! R13   R(12,13)                1.3948                                         !
 ! R14   R(12,15)                1.3955                                         !
 ! R15   R(13,14)                1.0865                                         !
 ! R16   R(13,17)                1.3948                                         !
 ! R17   R(15,16)                1.0871                                         !
 ! R18   R(15,19)                1.3933                                         !
 ! R19   R(17,18)                1.0858                                         !
 ! R20   R(17,21)                1.3923                                         !
 ! R21   R(19,20)                1.0837                                         !
 ! R22   R(19,21)                1.3926                                         !
 ! R23   R(21,22)                1.0836                                         !
 ! R24   R(23,24)                1.0133                                         !
 ! R25   R(23,25)                1.4547                                         !
 ! R26   R(25,26)                1.094                                          !
 ! R27   R(25,27)                1.5246                                         !
 ! R28   R(25,28)                1.5287                                         !
 ! R29   R(27,32)                1.2228                                         !
 ! R30   R(27,33)                1.3634                                         !
 ! R31   R(28,29)                1.0933                                         !
 ! R32   R(28,30)                1.0923                                         !
 ! R33   R(28,31)                1.0918                                         !
 ! R34   R(33,34)                1.0088                                         !
 ! R35   R(33,35)                1.4546                                         !
 ! R36   R(35,36)                1.0919                                         !
 ! R37   R(35,37)                1.5343                                         !
 ! R38   R(35,38)                1.5238                                         !
 ! R39   R(37,42)                1.2311                                         !
 ! R40   R(37,43)                1.3498                                         !
 ! R41   R(38,39)                1.0922                                         !
 ! R42   R(38,40)                1.0937                                         !
 ! R43   R(38,41)                1.0924                                         !
 ! R44   R(43,44)                1.0041                                         !
 ! R45   R(43,45)                1.4517                                         !
 ! R46   R(45,46)                1.0915                                         !
 ! R47   R(45,47)                1.5256                                         !
 ! R48   R(45,48)                1.5351                                         !
 ! R49   R(47,51)                1.2345                                         !
 ! R50   R(47,64)                1.3501                                         !
 ! R51   R(48,49)                1.0902                                         !
 ! R52   R(48,50)                1.0959                                         !
 ! R53   R(48,52)                1.5019                                         !
 ! R54   R(52,53)                1.3948                                         !
 ! R55   R(52,55)                1.3939                                         !
 ! R56   R(53,54)                1.0838                                         !
 ! R57   R(53,57)                1.3932                                         !
 ! R58   R(55,56)                1.0848                                         !
 ! R59   R(55,59)                1.3931                                         !
 ! R60   R(57,58)                1.0838                                         !
 ! R61   R(57,63)                1.3925                                         !
 ! R62   R(59,60)                1.0862                                         !
 ! R63   R(59,63)                1.3945                                         !
 ! R64   R(61,62)                0.963                                          !
 ! R65   R(61,63)                1.3713                                         !
 ! R66   R(64,65)                1.0046                                         !
 ! R67   R(64,66)                1.4631                                         !
 ! R68   R(66,67)                1.0935                                         !
 ! R69   R(66,68)                1.5359                                         !
 ! R70   R(66,69)                1.5181                                         !
 ! R71   R(68,72)                1.2378                                         !
 ! R72   R(68,83)                1.3473                                         !
 ! R73   R(69,70)                1.092                                          !
 ! R74   R(69,71)                1.0948                                         !
 ! R75   R(69,73)                1.5328                                         !
 ! R76   R(73,74)                1.0963                                         !
 ! R77   R(73,75)                1.5282                                         !
 ! R78   R(73,79)                1.5279                                         !
 ! R79   R(75,76)                1.0942                                         !
 ! R80   R(75,77)                1.0937                                         !
 ! R81   R(75,78)                1.0938                                         !
 ! R82   R(79,80)                1.0956                                         !
 ! R83   R(79,81)                1.0931                                         !
 ! R84   R(79,82)                1.0947                                         !
 ! R85   R(83,84)                1.0151                                         !
 ! R86   R(83,85)                1.4592                                         !
 ! R87   R(85,86)                1.0993                                         !
 ! R88   R(85,87)                1.5315                                         !
 ! R89   R(85,88)                1.5309                                         !
 ! R90   R(87,91)                1.2219                                         !
 ! R91   R(87,98)                1.3638                                         !
 ! R92   R(88,89)                1.0938                                         !
 ! R93   R(88,90)                1.0917                                         !
 ! R94   R(88,92)                1.5217                                         !
 ! R95   R(92,93)                1.0825                                         !
 ! R96   R(92,94)                1.093                                          !
 ! R97   R(92,95)                1.5503                                         !
 ! R98   R(95,96)                1.2436                                         !
 ! R99   R(95,97)                1.2544                                         !
 ! R100  R(98,99)                1.0146                                         !
 ! R101  R(98,100)               1.4405                                         !
 ! R102  R(100,101)              1.0927                                         !
 ! R103  R(100,102)              1.5217                                         !
 ! R104  R(100,103)              1.5351                                         !
 ! R105  R(102,106)              1.2046                                         !
 ! R106  R(102,122)              1.3514                                         !
 ! R107  R(103,104)              1.0934                                         !
 ! R108  R(103,105)              1.0939                                         !
 ! R109  R(103,107)              1.5249                                         !
 ! R110  R(107,108)              1.0936                                         !
 ! R111  R(107,109)              1.0928                                         !
 ! R112  R(107,110)              1.5197                                         !
 ! R113  R(110,111)              1.0971                                         !
 ! R114  R(110,112)              1.0949                                         !
 ! R115  R(110,113)              1.4753                                         !
 ! R116  R(113,114)              1.0115                                         !
 ! R117  R(113,121)              1.3428                                         !
 ! R118  R(115,116)              1.0082                                         !
 ! R119  R(115,117)              1.0071                                         !
 ! R120  R(115,121)              1.3454                                         !
 ! R121  R(118,119)              1.0093                                         !
 ! R122  R(118,120)              1.0114                                         !
 ! R123  R(118,121)              1.3549                                         !
 ! R124  R(122,123)              0.9683                                         !
 ! A1    A(2,1,3)              108.8951                                         !
 ! A2    A(2,1,4)              107.319                                          !
 ! A3    A(2,1,5)              111.7498                                         !
 ! A4    A(3,1,4)              109.4658                                         !
 ! A5    A(3,1,5)              111.9073                                         !
 ! A6    A(4,1,5)              107.3732                                         !
 ! A7    A(1,5,6)              109.7993                                         !
 ! A8    A(1,5,7)              107.3393                                         !
 ! A9    A(1,5,8)              110.9579                                         !
 ! A10   A(6,5,7)              110.4458                                         !
 ! A11   A(6,5,8)              108.5219                                         !
 ! A12   A(7,5,8)              109.7799                                         !
 ! A13   A(5,7,11)             120.3707                                         !
 ! A14   A(5,7,23)             115.2563                                         !
 ! A15   A(11,7,23)            124.3459                                         !
 ! A16   A(5,8,9)              107.9387                                         !
 ! A17   A(5,8,10)             107.7071                                         !
 ! A18   A(5,8,12)             111.8124                                         !
 ! A19   A(9,8,10)             107.8528                                         !
 ! A20   A(9,8,12)             110.5876                                         !
 ! A21   A(10,8,12)            110.7887                                         !
 ! A22   A(8,12,13)            120.8065                                         !
 ! A23   A(8,12,15)            120.0663                                         !
 ! A24   A(13,12,15)           119.0891                                         !
 ! A25   A(12,13,14)           119.6633                                         !
 ! A26   A(12,13,17)           120.2144                                         !
 ! A27   A(14,13,17)           120.1087                                         !
 ! A28   A(12,15,16)           118.9435                                         !
 ! A29   A(12,15,19)           120.7468                                         !
 ! A30   A(16,15,19)           120.3095                                         !
 ! A31   A(13,17,18)           119.6153                                         !
 ! A32   A(13,17,21)           120.4114                                         !
 ! A33   A(18,17,21)           119.9713                                         !
 ! A34   A(15,19,20)           119.7661                                         !
 ! A35   A(15,19,21)           119.9282                                         !
 ! A36   A(20,19,21)           120.3057                                         !
 ! A37   A(17,21,19)           119.5984                                         !
 ! A38   A(17,21,22)           120.2052                                         !
 ! A39   A(19,21,22)           120.1958                                         !
 ! A40   A(7,23,24)            120.4483                                         !
 ! A41   A(7,23,25)            121.8542                                         !
 ! A42   A(24,23,25)           114.8616                                         !
 ! A43   A(23,25,26)           108.5435                                         !
 ! A44   A(23,25,27)           105.7726                                         !
 ! A45   A(23,25,28)           112.0039                                         !
 ! A46   A(26,25,27)           109.9886                                         !
 ! A47   A(26,25,28)           109.2112                                         !
 ! A48   A(27,25,28)           111.2436                                         !
 ! A49   A(25,27,32)           121.1645                                         !
 ! A50   A(25,27,33)           115.6487                                         !
 ! A51   A(32,27,33)           123.1865                                         !
 ! A52   A(25,28,29)           110.2761                                         !
 ! A53   A(25,28,30)           109.9041                                         !
 ! A54   A(25,28,31)           110.0732                                         !
 ! A55   A(29,28,30)           108.4567                                         !
 ! A56   A(29,28,31)           109.1432                                         !
 ! A57   A(30,28,31)           108.9519                                         !
 ! A58   A(27,33,34)           116.2577                                         !
 ! A59   A(27,33,35)           118.7705                                         !
 ! A60   A(34,33,35)           114.2177                                         !
 ! A61   A(33,35,36)           106.484                                          !
 ! A62   A(33,35,37)           108.7214                                         !
 ! A63   A(33,35,38)           110.2566                                         !
 ! A64   A(36,35,37)           109.0101                                         !
 ! A65   A(36,35,38)           110.6261                                         !
 ! A66   A(37,35,38)           111.5888                                         !
 ! A67   A(35,37,42)           121.9268                                         !
 ! A68   A(35,37,43)           114.7886                                         !
 ! A69   A(42,37,43)           123.2833                                         !
 ! A70   A(35,38,39)           110.9379                                         !
 ! A71   A(35,38,40)           110.2465                                         !
 ! A72   A(35,38,41)           109.754                                          !
 ! A73   A(39,38,40)           108.4205                                         !
 ! A74   A(39,38,41)           108.8556                                         !
 ! A75   A(40,38,41)           108.5722                                         !
 ! A76   A(37,43,44)           119.6741                                         !
 ! A77   A(37,43,45)           122.1042                                         !
 ! A78   A(44,43,45)           118.1433                                         !
 ! A79   A(43,45,46)           107.4779                                         !
 ! A80   A(43,45,47)           109.2407                                         !
 ! A81   A(43,45,48)           110.8825                                         !
 ! A82   A(46,45,47)           110.0568                                         !
 ! A83   A(46,45,48)           110.4129                                         !
 ! A84   A(47,45,48)           108.7577                                         !
 ! A85   A(45,47,51)           120.3335                                         !
 ! A86   A(45,47,64)           117.8752                                         !
 ! A87   A(51,47,64)           121.7774                                         !
 ! A88   A(45,48,49)           109.0665                                         !
 ! A89   A(45,48,50)           108.303                                          !
 ! A90   A(45,48,52)           114.5138                                         !
 ! A91   A(49,48,50)           105.9518                                         !
 ! A92   A(49,48,52)           108.4892                                         !
 ! A93   A(50,48,52)           110.1692                                         !
 ! A94   A(48,52,53)           122.3935                                         !
 ! A95   A(48,52,55)           119.267                                          !
 ! A96   A(53,52,55)           118.338                                          !
 ! A97   A(52,53,54)           119.5288                                         !
 ! A98   A(52,53,57)           121.2578                                         !
 ! A99   A(54,53,57)           119.2066                                         !
 ! A100  A(52,55,56)           119.2651                                         !
 ! A101  A(52,55,59)           121.1385                                         !
 ! A102  A(56,55,59)           119.5863                                         !
 ! A103  A(53,57,58)           121.136                                          !
 ! A104  A(53,57,63)           119.6312                                         !
 ! A105  A(58,57,63)           119.2321                                         !
 ! A106  A(55,59,60)           119.9959                                         !
 ! A107  A(55,59,63)           119.7303                                         !
 ! A108  A(60,59,63)           120.272                                          !
 ! A109  A(62,61,63)           108.7871                                         !
 ! A110  A(57,63,59)           119.8995                                         !
 ! A111  A(57,63,61)           117.4315                                         !
 ! A112  A(59,63,61)           122.6683                                         !
 ! A113  A(47,64,65)           119.9745                                         !
 ! A114  A(47,64,66)           121.1825                                         !
 ! A115  A(65,64,66)           118.7334                                         !
 ! A116  A(64,66,67)           106.1077                                         !
 ! A117  A(64,66,68)           106.2915                                         !
 ! A118  A(64,66,69)           112.2196                                         !
 ! A119  A(67,66,68)           107.713                                          !
 ! A120  A(67,66,69)           110.5399                                         !
 ! A121  A(68,66,69)           113.5596                                         !
 ! A122  A(66,68,72)           123.6158                                         !
 ! A123  A(66,68,83)           113.1942                                         !
 ! A124  A(72,68,83)           123.0805                                         !
 ! A125  A(66,69,70)           109.2358                                         !
 ! A126  A(66,69,71)           107.9772                                         !
 ! A127  A(66,69,73)           114.2197                                         !
 ! A128  A(70,69,71)           106.2696                                         !
 ! A129  A(70,69,73)           109.5661                                         !
 ! A130  A(71,69,73)           109.2618                                         !
 ! A131  A(69,73,74)           108.1241                                         !
 ! A132  A(69,73,75)           109.3923                                         !
 ! A133  A(69,73,79)           112.105                                          !
 ! A134  A(74,73,75)           108.4259                                         !
 ! A135  A(74,73,79)           107.8365                                         !
 ! A136  A(75,73,79)           110.8402                                         !
 ! A137  A(73,75,76)           110.3271                                         !
 ! A138  A(73,75,77)           111.2891                                         !
 ! A139  A(73,75,78)           111.3253                                         !
 ! A140  A(76,75,77)           107.8382                                         !
 ! A141  A(76,75,78)           108.03                                           !
 ! A142  A(77,75,78)           107.8918                                         !
 ! A143  A(73,79,80)           110.4728                                         !
 ! A144  A(73,79,81)           112.0093                                         !
 ! A145  A(73,79,82)           110.3852                                         !
 ! A146  A(80,79,81)           108.4485                                         !
 ! A147  A(80,79,82)           107.8892                                         !
 ! A148  A(81,79,82)           107.4933                                         !
 ! A149  A(68,83,84)           116.8386                                         !
 ! A150  A(68,83,85)           123.0549                                         !
 ! A151  A(84,83,85)           116.0957                                         !
 ! A152  A(83,85,86)           107.2152                                         !
 ! A153  A(83,85,87)           111.8073                                         !
 ! A154  A(83,85,88)           107.945                                          !
 ! A155  A(86,85,87)           106.4804                                         !
 ! A156  A(86,85,88)           109.6328                                         !
 ! A157  A(87,85,88)           113.5684                                         !
 ! A158  A(85,87,91)           124.1553                                         !
 ! A159  A(85,87,98)           112.6736                                         !
 ! A160  A(91,87,98)           123.1697                                         !
 ! A161  A(85,88,89)           110.5122                                         !
 ! A162  A(85,88,90)           109.7954                                         !
 ! A163  A(85,88,92)           108.2079                                         !
 ! A164  A(89,88,90)           105.7884                                         !
 ! A165  A(89,88,92)           109.6226                                         !
 ! A166  A(90,88,92)           112.9153                                         !
 ! A167  A(88,92,93)           107.8277                                         !
 ! A168  A(88,92,94)           111.9129                                         !
 ! A169  A(88,92,95)           117.1315                                         !
 ! A170  A(93,92,94)           108.1917                                         !
 ! A171  A(93,92,95)           102.4814                                         !
 ! A172  A(94,92,95)           108.5797                                         !
 ! A173  A(92,95,96)           116.6231                                         !
 ! A174  A(92,95,97)           113.6465                                         !
 ! A175  A(96,95,97)           129.3787                                         !
 ! A176  A(87,98,99)           116.3219                                         !
 ! A177  A(87,98,100)          120.9421                                         !
 ! A178  A(99,98,100)          118.5175                                         !
 ! A179  A(98,100,101)         107.8162                                         !
 ! A180  A(98,100,102)         110.8432                                         !
 ! A181  A(98,100,103)         110.6753                                         !
 ! A182  A(101,100,102)        107.0104                                         !
 ! A183  A(101,100,103)        109.544                                          !
 ! A184  A(102,100,103)        110.8286                                         !
 ! A185  A(100,102,106)        125.7333                                         !
 ! A186  A(100,102,122)        110.9993                                         !
 ! A187  A(106,102,122)        123.2573                                         !
 ! A188  A(100,103,104)        107.4261                                         !
 ! A189  A(100,103,105)        108.3789                                         !
 ! A190  A(100,103,107)        113.4946                                         !
 ! A191  A(104,103,105)        107.1457                                         !
 ! A192  A(104,103,107)        109.8345                                         !
 ! A193  A(105,103,107)        110.3253                                         !
 ! A194  A(103,107,108)        109.8602                                         !
 ! A195  A(103,107,109)        110.2354                                         !
 ! A196  A(103,107,110)        111.8401                                         !
 ! A197  A(108,107,109)        107.1177                                         !
 ! A198  A(108,107,110)        108.7329                                         !
 ! A199  A(109,107,110)        108.9248                                         !
 ! A200  A(107,110,111)        110.2716                                         !
 ! A201  A(107,110,112)        109.2901                                         !
 ! A202  A(107,110,113)        109.5161                                         !
 ! A203  A(111,110,112)        107.652                                          !
 ! A204  A(111,110,113)        110.8976                                         !
 ! A205  A(112,110,113)        109.1731                                         !
 ! A206  A(110,113,114)        114.3647                                         !
 ! A207  A(110,113,121)        122.3957                                         !
 ! A208  A(114,113,121)        114.4261                                         !
 ! A209  A(116,115,117)        115.9516                                         !
 ! A210  A(116,115,121)        119.3784                                         !
 ! A211  A(117,115,121)        118.4168                                         !
 ! A212  A(119,118,120)        114.2854                                         !
 ! A213  A(119,118,121)        117.5703                                         !
 ! A214  A(120,118,121)        116.9057                                         !
 ! A215  A(113,121,115)        121.0066                                         !
 ! A216  A(113,121,118)        118.4635                                         !
 ! A217  A(115,121,118)        120.4824                                         !
 ! A218  A(102,122,123)        106.2571                                         !
 ! D1    D(2,1,5,6)             49.3494                                         !
 ! D2    D(2,1,5,7)            -70.7396                                         !
 ! D3    D(2,1,5,8)            169.312                                          !
 ! D4    D(3,1,5,6)            -73.078                                          !
 ! D5    D(3,1,5,7)            166.833                                          !
 ! D6    D(3,1,5,8)             46.8846                                         !
 ! D7    D(4,1,5,6)            166.7784                                         !
 ! D8    D(4,1,5,7)             46.6894                                         !
 ! D9    D(4,1,5,8)            -73.2589                                         !
 ! D10   D(1,5,7,11)           -31.5617                                         !
 ! D11   D(1,5,7,23)           150.2526                                         !
 ! D12   D(6,5,7,11)          -151.2384                                         !
 ! D13   D(6,5,7,23)            30.5758                                         !
 ! D14   D(8,5,7,11)            89.1345                                         !
 ! D15   D(8,5,7,23)           -89.0513                                         !
 ! D16   D(1,5,8,9)             60.7977                                         !
 ! D17   D(1,5,8,10)           -55.41                                           !
 ! D18   D(1,5,8,12)          -177.3537                                         !
 ! D19   D(6,5,8,9)           -178.4814                                         !
 ! D20   D(6,5,8,10)            65.3109                                         !
 ! D21   D(6,5,8,12)           -56.6328                                         !
 ! D22   D(7,5,8,9)            -57.6852                                         !
 ! D23   D(7,5,8,10)          -173.8929                                         !
 ! D24   D(7,5,8,12)            64.1633                                         !
 ! D25   D(5,7,23,24)            7.7179                                         !
 ! D26   D(5,7,23,25)          167.6683                                         !
 ! D27   D(11,7,23,24)        -170.3863                                         !
 ! D28   D(11,7,23,25)         -10.4358                                         !
 ! D29   D(5,8,12,13)         -101.6122                                         !
 ! D30   D(5,8,12,15)           76.1225                                         !
 ! D31   D(9,8,12,13)           18.7005                                         !
 ! D32   D(9,8,12,15)         -163.5648                                         !
 ! D33   D(10,8,12,13)         138.2316                                         !
 ! D34   D(10,8,12,15)         -44.0337                                         !
 ! D35   D(8,12,13,14)           0.2668                                         !
 ! D36   D(8,12,13,17)         178.9293                                         !
 ! D37   D(15,12,13,14)       -177.4897                                         !
 ! D38   D(15,12,13,17)          1.1728                                         !
 ! D39   D(8,12,15,16)           0.8128                                         !
 ! D40   D(8,12,15,19)        -179.0193                                         !
 ! D41   D(13,12,15,16)        178.5863                                         !
 ! D42   D(13,12,15,19)         -1.2458                                         !
 ! D43   D(12,13,17,18)       -179.899                                          !
 ! D44   D(12,13,17,21)         -0.417                                          !
 ! D45   D(14,13,17,18)         -1.2425                                         !
 ! D46   D(14,13,17,21)        178.2395                                         !
 ! D47   D(12,15,19,20)       -179.4496                                         !
 ! D48   D(12,15,19,21)          0.5541                                         !
 ! D49   D(16,15,19,20)          0.7206                                         !
 ! D50   D(16,15,19,21)       -179.2758                                         !
 ! D51   D(13,17,21,19)         -0.287                                          !
 ! D52   D(13,17,21,22)        179.9776                                         !
 ! D53   D(18,17,21,19)        179.1932                                         !
 ! D54   D(18,17,21,22)         -0.5423                                         !
 ! D55   D(15,19,21,17)          0.2195                                         !
 ! D56   D(15,19,21,22)        179.955                                          !
 ! D57   D(20,19,21,17)       -179.7768                                         !
 ! D58   D(20,19,21,22)         -0.0413                                         !
 ! D59   D(7,23,25,26)         -27.5621                                         !
 ! D60   D(7,23,25,27)        -145.5578                                         !
 ! D61   D(7,23,25,28)          93.0944                                         !
 ! D62   D(24,23,25,26)        133.4275                                         !
 ! D63   D(24,23,25,27)         15.4318                                         !
 ! D64   D(24,23,25,28)       -105.9159                                         !
 ! D65   D(23,25,27,32)        -36.6178                                         !
 ! D66   D(23,25,27,33)        143.1953                                         !
 ! D67   D(26,25,27,32)       -153.6437                                         !
 ! D68   D(26,25,27,33)         26.1694                                         !
 ! D69   D(28,25,27,32)         85.22                                           !
 ! D70   D(28,25,27,33)        -94.9669                                         !
 ! D71   D(23,25,28,29)        178.5321                                         !
 ! D72   D(23,25,28,30)         59.0134                                         !
 ! D73   D(23,25,28,31)        -60.9903                                         !
 ! D74   D(26,25,28,29)        -61.1995                                         !
 ! D75   D(26,25,28,30)        179.2818                                         !
 ! D76   D(26,25,28,31)         59.2781                                         !
 ! D77   D(27,25,28,29)         60.391                                          !
 ! D78   D(27,25,28,30)        -59.1277                                         !
 ! D79   D(27,25,28,31)       -179.1314                                         !
 ! D80   D(25,27,33,34)         24.2541                                         !
 ! D81   D(25,27,33,35)        166.6917                                         !
 ! D82   D(32,27,33,34)       -155.937                                          !
 ! D83   D(32,27,33,35)        -13.4994                                         !
 ! D84   D(27,33,35,36)         39.1223                                         !
 ! D85   D(27,33,35,37)        -78.1976                                         !
 ! D86   D(27,33,35,38)        159.1746                                         !
 ! D87   D(34,33,35,36)       -177.7103                                         !
 ! D88   D(34,33,35,37)         64.9699                                         !
 ! D89   D(34,33,35,38)        -57.6579                                         !
 ! D90   D(33,35,37,42)        -26.2409                                         !
 ! D91   D(33,35,37,43)        154.1538                                         !
 ! D92   D(36,35,37,42)       -141.9397                                         !
 ! D93   D(36,35,37,43)         38.455                                          !
 ! D94   D(38,35,37,42)         95.5789                                         !
 ! D95   D(38,35,37,43)        -84.0264                                         !
 ! D96   D(33,35,38,39)       -177.8951                                         !
 ! D97   D(33,35,38,40)         61.9897                                         !
 ! D98   D(33,35,38,41)        -57.5587                                         !
 ! D99   D(36,35,38,39)        -60.3738                                         !
 ! D100  D(36,35,38,40)        179.511                                          !
 ! D101  D(36,35,38,41)         59.9625                                         !
 ! D102  D(37,35,38,39)         61.1762                                         !
 ! D103  D(37,35,38,40)        -58.939                                          !
 ! D104  D(37,35,38,41)       -178.4874                                         !
 ! D105  D(35,37,43,44)          2.8713                                         !
 ! D106  D(35,37,43,45)        179.5906                                         !
 ! D107  D(42,37,43,44)       -176.728                                          !
 ! D108  D(42,37,43,45)         -0.0087                                         !
 ! D109  D(37,43,45,46)         48.1329                                         !
 ! D110  D(37,43,45,47)        -71.2554                                         !
 ! D111  D(37,43,45,48)        168.8969                                         !
 ! D112  D(44,43,45,46)       -135.0997                                         !
 ! D113  D(44,43,45,47)        105.512                                          !
 ! D114  D(44,43,45,48)        -14.3357                                         !
 ! D115  D(43,45,47,51)        -60.4163                                         !
 ! D116  D(43,45,47,64)        120.915                                          !
 ! D117  D(46,45,47,51)       -178.1962                                         !
 ! D118  D(46,45,47,64)          3.1352                                         !
 ! D119  D(48,45,47,51)         60.7317                                         !
 ! D120  D(48,45,47,64)       -117.937                                          !
 ! D121  D(43,45,48,49)         63.7496                                         !
 ! D122  D(43,45,48,50)        178.6221                                         !
 ! D123  D(43,45,48,52)        -58.012                                          !
 ! D124  D(46,45,48,49)       -177.2396                                         !
 ! D125  D(46,45,48,50)        -62.3672                                         !
 ! D126  D(46,45,48,52)         60.9988                                         !
 ! D127  D(47,45,48,49)        -56.3863                                         !
 ! D128  D(47,45,48,50)         58.4862                                         !
 ! D129  D(47,45,48,52)       -178.1479                                         !
 ! D130  D(45,47,64,65)         -1.8597                                         !
 ! D131  D(45,47,64,66)       -178.0056                                         !
 ! D132  D(51,47,64,65)        179.492                                          !
 ! D133  D(51,47,64,66)          3.3461                                         !
 ! D134  D(45,48,52,53)        -52.901                                          !
 ! D135  D(45,48,52,55)        127.5607                                         !
 ! D136  D(49,48,52,53)       -174.9777                                         !
 ! D137  D(49,48,52,55)          5.4841                                         !
 ! D138  D(50,48,52,53)         69.4568                                         !
 ! D139  D(50,48,52,55)       -110.0814                                         !
 ! D140  D(48,52,53,54)         -0.5756                                         !
 ! D141  D(48,52,53,57)       -179.6148                                         !
 ! D142  D(55,52,53,54)        178.9667                                         !
 ! D143  D(55,52,53,57)         -0.0725                                         !
 ! D144  D(48,52,55,56)          1.2775                                         !
 ! D145  D(48,52,55,59)       -179.8865                                         !
 ! D146  D(53,52,55,56)       -178.2795                                         !
 ! D147  D(53,52,55,59)          0.5565                                         !
 ! D148  D(52,53,57,58)        179.7633                                         !
 ! D149  D(52,53,57,63)         -0.5398                                         !
 ! D150  D(54,53,57,58)          0.7211                                         !
 ! D151  D(54,53,57,63)       -179.5821                                         !
 ! D152  D(52,55,59,60)       -179.9424                                         !
 ! D153  D(52,55,59,63)         -0.424                                          !
 ! D154  D(56,55,59,60)         -1.1101                                         !
 ! D155  D(56,55,59,63)        178.4083                                         !
 ! D156  D(53,57,63,59)          0.6739                                         !
 ! D157  D(53,57,63,61)       -179.6345                                         !
 ! D158  D(58,57,63,59)       -179.6235                                         !
 ! D159  D(58,57,63,61)          0.0681                                         !
 ! D160  D(55,59,63,57)         -0.2009                                         !
 ! D161  D(55,59,63,61)       -179.8758                                         !
 ! D162  D(60,59,63,57)        179.3161                                         !
 ! D163  D(60,59,63,61)         -0.3587                                         !
 ! D164  D(62,61,63,57)       -179.5361                                         !
 ! D165  D(62,61,63,59)          0.1464                                         !
 ! D166  D(47,64,66,67)         30.8307                                         !
 ! D167  D(47,64,66,68)        -83.6464                                         !
 ! D168  D(47,64,66,69)        151.6583                                         !
 ! D169  D(65,64,66,67)       -145.3619                                         !
 ! D170  D(65,64,66,68)        100.161                                          !
 ! D171  D(65,64,66,69)        -24.5344                                         !
 ! D172  D(64,66,68,72)       -101.132                                          !
 ! D173  D(64,66,68,83)         75.1629                                         !
 ! D174  D(67,66,68,72)        145.4909                                         !
 ! D175  D(67,66,68,83)        -38.2142                                         !
 ! D176  D(69,66,68,72)         22.7334                                         !
 ! D177  D(69,66,68,83)       -160.9717                                         !
 ! D178  D(64,66,69,70)         67.2135                                         !
 ! D179  D(64,66,69,71)       -177.6248                                         !
 ! D180  D(64,66,69,73)        -55.8723                                         !
 ! D181  D(67,66,69,70)       -174.5509                                         !
 ! D182  D(67,66,69,71)        -59.3891                                         !
 ! D183  D(67,66,69,73)         62.3633                                         !
 ! D184  D(68,66,69,70)        -53.3642                                         !
 ! D185  D(68,66,69,71)         61.7976                                         !
 ! D186  D(68,66,69,73)       -176.45                                           !
 ! D187  D(66,68,83,84)         -3.9239                                         !
 ! D188  D(66,68,83,85)       -160.4799                                         !
 ! D189  D(72,68,83,84)        172.3937                                         !
 ! D190  D(72,68,83,85)         15.8377                                         !
 ! D191  D(66,69,73,74)         63.2751                                         !
 ! D192  D(66,69,73,75)       -178.8334                                         !
 ! D193  D(66,69,73,79)        -55.4628                                         !
 ! D194  D(70,69,73,74)        -59.6316                                         !
 ! D195  D(70,69,73,75)         58.2599                                         !
 ! D196  D(70,69,73,79)       -178.3695                                         !
 ! D197  D(71,69,73,74)       -175.6816                                         !
 ! D198  D(71,69,73,75)        -57.7901                                         !
 ! D199  D(71,69,73,79)         65.5805                                         !
 ! D200  D(69,73,75,76)         63.3607                                         !
 ! D201  D(69,73,75,77)       -176.9729                                         !
 ! D202  D(69,73,75,78)        -56.5699                                         !
 ! D203  D(74,73,75,76)       -178.9369                                         !
 ! D204  D(74,73,75,77)        -59.2705                                         !
 ! D205  D(74,73,75,78)         61.1325                                         !
 ! D206  D(79,73,75,76)        -60.7547                                         !
 ! D207  D(79,73,75,77)         58.9117                                         !
 ! D208  D(79,73,75,78)        179.3147                                         !
 ! D209  D(69,73,79,80)        -62.6035                                         !
 ! D210  D(69,73,79,81)         58.4107                                         !
 ! D211  D(69,73,79,82)        178.1525                                         !
 ! D212  D(74,73,79,80)        178.489                                          !
 ! D213  D(74,73,79,81)        -60.4969                                         !
 ! D214  D(74,73,79,82)         59.2449                                         !
 ! D215  D(75,73,79,80)         59.9492                                         !
 ! D216  D(75,73,79,81)       -179.0366                                         !
 ! D217  D(75,73,79,82)        -59.2948                                         !
 ! D218  D(68,83,85,86)         25.2943                                         !
 ! D219  D(68,83,85,87)        -91.056                                          !
 ! D220  D(68,83,85,88)        143.3339                                         !
 ! D221  D(84,83,85,86)       -131.4215                                         !
 ! D222  D(84,83,85,87)        112.2283                                         !
 ! D223  D(84,83,85,88)        -13.3819                                         !
 ! D224  D(83,85,87,91)       -127.8456                                         !
 ! D225  D(83,85,87,98)         51.7467                                         !
 ! D226  D(86,85,87,91)        115.3592                                         !
 ! D227  D(86,85,87,98)        -65.0485                                         !
 ! D228  D(88,85,87,91)         -5.3932                                         !
 ! D229  D(88,85,87,98)        174.1991                                         !
 ! D230  D(83,85,88,89)         60.013                                          !
 ! D231  D(83,85,88,90)        176.3345                                         !
 ! D232  D(83,85,88,92)        -60.0214                                         !
 ! D233  D(86,85,88,89)        176.4892                                         !
 ! D234  D(86,85,88,90)        -67.1892                                         !
 ! D235  D(86,85,88,92)         56.4548                                         !
 ! D236  D(87,85,88,89)        -64.549                                          !
 ! D237  D(87,85,88,90)         51.7726                                         !
 ! D238  D(87,85,88,92)        175.4166                                         !
 ! D239  D(85,87,98,99)         13.459                                          !
 ! D240  D(85,87,98,100)       170.0375                                         !
 ! D241  D(91,87,98,99)       -166.944                                          !
 ! D242  D(91,87,98,100)       -10.3656                                         !
 ! D243  D(85,88,92,93)         56.106                                          !
 ! D244  D(85,88,92,94)        -62.7657                                         !
 ! D245  D(85,88,92,95)        170.9335                                         !
 ! D246  D(89,88,92,93)        -64.4843                                         !
 ! D247  D(89,88,92,94)        176.644                                          !
 ! D248  D(89,88,92,95)         50.3432                                         !
 ! D249  D(90,88,92,93)        177.8491                                         !
 ! D250  D(90,88,92,94)         58.9774                                         !
 ! D251  D(90,88,92,95)        -67.3234                                         !
 ! D252  D(88,92,95,96)        -27.4613                                         !
 ! D253  D(88,92,95,97)        158.7016                                         !
 ! D254  D(93,92,95,96)         90.2983                                         !
 ! D255  D(93,92,95,97)        -83.5387                                         !
 ! D256  D(94,92,95,96)       -155.3873                                         !
 ! D257  D(94,92,95,97)         30.7757                                         !
 ! D258  D(87,98,100,101)       32.4724                                         !
 ! D259  D(87,98,100,102)      -84.3455                                         !
 ! D260  D(87,98,100,103)      152.2642                                         !
 ! D261  D(99,98,100,101)     -171.4485                                         !
 ! D262  D(99,98,100,102)       71.7336                                         !
 ! D263  D(99,98,100,103)      -51.6567                                         !
 ! D264  D(98,100,102,106)     -10.6321                                         !
 ! D265  D(98,100,102,122)     170.5004                                         !
 ! D266  D(101,100,102,106)   -127.9446                                         !
 ! D267  D(101,100,102,122)     53.1879                                         !
 ! D268  D(103,100,102,106)    112.6699                                         !
 ! D269  D(103,100,102,122)    -66.1975                                         !
 ! D270  D(98,100,103,104)     -61.2965                                         !
 ! D271  D(98,100,103,105)    -176.7563                                         !
 ! D272  D(98,100,103,107)      60.3191                                         !
 ! D273  D(101,100,103,104)     57.4531                                         !
 ! D274  D(101,100,103,105)    -58.0067                                         !
 ! D275  D(101,100,103,107)    179.0687                                         !
 ! D276  D(102,100,103,104)    175.3047                                         !
 ! D277  D(102,100,103,105)     59.8449                                         !
 ! D278  D(102,100,103,107)    -63.0797                                         !
 ! D279  D(100,102,122,123)   -179.7547                                         !
 ! D280  D(106,102,122,123)      1.3447                                         !
 ! D281  D(100,103,107,108)     54.4635                                         !
 ! D282  D(100,103,107,109)    -63.3559                                         !
 ! D283  D(100,103,107,110)    175.3031                                         !
 ! D284  D(104,103,107,108)    174.7244                                         !
 ! D285  D(104,103,107,109)     56.9049                                         !
 ! D286  D(104,103,107,110)    -64.436                                          !
 ! D287  D(105,103,107,108)    -67.3832                                         !
 ! D288  D(105,103,107,109)    174.7974                                         !
 ! D289  D(105,103,107,110)     53.4564                                         !
 ! D290  D(103,107,110,111)     59.3                                            !
 ! D291  D(103,107,110,112)    -58.8484                                         !
 ! D292  D(103,107,110,113)   -178.4009                                         !
 ! D293  D(108,107,110,111)   -179.2078                                         !
 ! D294  D(108,107,110,112)     62.6438                                         !
 ! D295  D(108,107,110,113)    -56.9087                                         !
 ! D296  D(109,107,110,111)    -62.7952                                         !
 ! D297  D(109,107,110,112)    179.0564                                         !
 ! D298  D(109,107,110,113)     59.5039                                         !
 ! D299  D(107,110,113,114)    -34.5261                                         !
 ! D300  D(107,110,113,121)    179.8877                                         !
 ! D301  D(111,110,113,114)     87.3984                                         !
 ! D302  D(111,110,113,121)    -58.1878                                         !
 ! D303  D(112,110,113,114)   -154.1505                                         !
 ! D304  D(112,110,113,121)     60.2633                                         !
 ! D305  D(110,113,121,115)     -6.9856                                         !
 ! D306  D(110,113,121,118)    170.5196                                         !
 ! D307  D(114,113,121,115)   -152.5528                                         !
 ! D308  D(114,113,121,118)     24.9524                                         !
 ! D309  D(116,115,121,113)   -160.8733                                         !
 ! D310  D(116,115,121,118)     21.6717                                         !
 ! D311  D(117,115,121,113)     -9.7566                                         !
 ! D312  D(117,115,121,118)    172.7884                                         !
 ! D313  D(119,118,121,113)    166.2693                                         !
 ! D314  D(119,118,121,115)    -16.2119                                         !
 ! D315  D(120,118,121,113)     24.526                                          !
 ! D316  D(120,118,121,115)   -157.9552                                         !
 --------------------------------------------------------------------------------
 Symmetry turned off by external request.
 Stoichiometry    C41H61N10O11(1+)
 Framework group  C1[X(C41H61N10O11)]
 Deg. of freedom   363
 Full point group                 C1      NOp   1
                          Input orientation:                          
 ---------------------------------------------------------------------
 Center     Atomic      Atomic             Coordinates (Angstroms)
 Number     Number       Type             X           Y           Z
 ---------------------------------------------------------------------
      1          7           0       -9.189602   -1.290217    7.975970
      2          1           0       -9.334120   -2.205920    7.550353
      3          1           0      -10.081211   -0.943591    8.322685
      4          1           0       -8.542636   -1.417633    8.762971
      5          6           0       -8.555454   -0.338546    7.030784
      6          1           0       -9.090586   -0.351486    6.077366
      7          6           0       -7.104962   -0.787317    6.835992
      8          6           0       -8.586436    1.092475    7.588379
      9          1           0       -8.025921    1.100310    8.527265
     10          1           0       -9.629160    1.338251    7.817656
     11          8           0       -6.498806   -1.338672    7.748147
     12          6           0       -8.004034    2.085884    6.614825
     13          6           0       -6.708148    2.574135    6.781801
     14          1           0       -6.108535    2.231949    7.620815
     15          6           0       -8.744499    2.492800    5.504163
     16          1           0       -9.745586    2.092820    5.364006
     17          6           0       -6.173727    3.475689    5.861452
     18          1           0       -5.163275    3.848309    5.999992
     19          6           0       -8.212440    3.394374    4.584775
     20          1           0       -8.804837    3.706460    3.732650
     21          6           0       -6.923522    3.890164    4.763994
     22          1           0       -6.505148    4.591001    4.051219
     23          7           0       -6.570576   -0.496572    5.636843
     24          1           0       -7.073640    0.086391    4.978222
     25          6           0       -5.142777   -0.613180    5.383970
     26          1           0       -4.609143   -0.465406    6.327464
     27          6           0       -4.801236    0.509528    4.410669
     28          6           0       -4.773204   -1.979190    4.805628
     29          1           0       -3.699967   -2.026850    4.602504
     30          1           0       -5.310106   -2.143973    3.868794
     31          1           0       -5.039588   -2.769140    5.510674
     32          8           0       -5.579060    0.839029    3.526603
     33          7           0       -3.590547    1.107066    4.600357
     34          1           0       -2.889936    0.555911    5.072568
     35          6           0       -3.065126    1.971634    3.555250
     36          1           0       -3.914680    2.533509    3.161733
     37          6           0       -2.484222    1.095866    2.437435
     38          6           0       -2.016501    2.916281    4.129634
     39          1           0       -1.641047    3.596034    3.361647
     40          1           0       -1.172719    2.346908    4.529664
     41          1           0       -2.453880    3.505169    4.939118
     42          8           0       -2.063608   -0.040909    2.653031
     43          7           0       -2.466449    1.673307    1.217482
     44          1           0       -2.778149    2.621935    1.111947
     45          6           0       -1.942906    0.990465    0.048221
     46          1           0       -2.382711   -0.008293    0.027549
     47          6           0       -0.424712    0.891388    0.161644
     48          6           0       -2.293104    1.756389   -1.235275
     49          1           0       -1.803494    2.730180   -1.213693
     50          1           0       -1.858314    1.219463   -2.085945
     51          8           0        0.263143    1.913952    0.234008
     52          6           0       -3.764019    1.967569   -1.453250
     53          6           0       -4.681593    0.917448   -1.427278
     54          1           0       -4.331673   -0.093487   -1.253421
     55          6           0       -4.238361    3.254688   -1.700552
     56          1           0       -3.534420    4.078529   -1.752027
     57          6           0       -6.040392    1.139295   -1.640452
     58          1           0       -6.751172    0.321301   -1.623595
     59          6           0       -5.595054    3.495375   -1.905861
     60          1           0       -5.944303    4.505731   -2.098052
     61          8           0       -7.845258    2.601257   -2.069886
     62          1           0       -8.022049    3.534951   -2.225588
     63          6           0       -6.498463    2.433548   -1.873389
     64          7           0        0.130039   -0.339451    0.151803
     65          1           0       -0.456014   -1.153719    0.099771
     66          6           0        1.574291   -0.520630    0.299703
     67          1           0        1.920867    0.304789    0.927570
     68          6           0        2.178076   -0.328910   -1.099414
     69          6           0        1.923531   -1.855112    0.933656
     70          1           0        1.656154   -2.660743    0.246641
     71          1           0        3.011213   -1.899577    1.050015
     72          8           0        2.523710   -1.265737   -1.830871
     73          6           0        1.259186   -2.098359    2.293377
     74          1           0        0.173691   -2.127240    2.142296
     75          6           0        1.706754   -3.452744    2.841750
     76          1           0        2.785948   -3.451903    3.022273
     77          1           0        1.208924   -3.682111    3.788195
     78          1           0        1.481633   -4.260393    2.139274
     79          6           0        1.563411   -0.980965    3.290038
     80          1           0        2.638790   -0.931356    3.493617
     81          1           0        1.235294   -0.004704    2.923687
     82          1           0        1.049738   -1.166012    4.238856
     83          7           0        2.221937    0.960879   -1.486219
     84          1           0        1.806605    1.641945   -0.858523
     85          6           0        2.352982    1.369531   -2.880860
     86          1           0        1.954064    0.552149   -3.498250
     87          6           0        3.819175    1.544973   -3.286929
     88          6           0        1.506427    2.628613   -3.084971
     89          1           0        1.852775    3.433578   -2.430474
     90          1           0        1.634010    2.998710   -4.104036
     91          8           0        4.268024    2.548728   -3.819915
     92          6           0        0.060520    2.288062   -2.754958
     93          1           0        0.034280    1.896087   -1.746210
     94          1           0       -0.342961    1.526735   -3.427495
     95          6           0       -0.944557    3.466219   -2.682867
     96          8           0       -0.479385    4.577468   -2.374276
     97          8           0       -2.140357    3.117218   -2.830791
     98          7           0        4.583104    0.457271   -2.981336
     99          1           0        4.081813   -0.389241   -2.733474
    100          6           0        5.932751    0.338990   -3.470695
    101          1           0        6.354186    1.345010   -3.535641
    102          6           0        5.949837   -0.242441   -4.876820
    103          6           0        6.782234   -0.513090   -2.517334
    104          1           0        6.800603   -0.002869   -1.550413
    105          1           0        7.809637   -0.530063   -2.892582
    106          8           0        5.008769   -0.733014   -5.446724
    107          6           0        6.258671   -1.934580   -2.342410
    108          1           0        6.151402   -2.413879   -3.319545
    109          1           0        5.267927   -1.918434   -1.881570
    110          6           0        7.187606   -2.777664   -1.484580
    111          1           0        7.302055   -2.326098   -0.491315
    112          1           0        8.178097   -2.811769   -1.949911
    113          7           0        6.653549   -4.148947   -1.380846
    114          1           0        5.643672   -4.203087   -1.361120
    115          7           0        8.494669   -4.906713   -0.151854
    116          1           0        9.060525   -5.699418    0.108877
    117          1           0        8.996764   -4.073818   -0.413569
    118          7           0        6.624386   -6.282419   -0.475170
    119          1           0        7.166216   -7.065438   -0.140549
    120          1           0        5.904157   -6.529163   -1.141021
    121          6           0        7.275009   -5.112022   -0.681340
    122          8           0        7.185480   -0.163742   -5.418443
    123          1           0        7.117378   -0.545626   -6.305700
 ---------------------------------------------------------------------
 Rotational constants (GHZ):           0.0567775           0.0156070           0.0131245
 Standard basis: 6-31G(d) (6D, 7F)
  1052 basis functions,  1980 primitive gaussians,  1052 cartesian basis functions
   232 alpha electrons      232 beta electrons
       nuclear repulsion energy      9397.7054167361 Hartrees.
 NAtoms=  123 NActive=  123 NUniq=  123 SFac= 1.00D+00 NAtFMM=   60 NAOKFM=T Big=T
 Integral buffers will be    131072 words long.
 Raffenetti 2 integral format.
 Two-electron integral symmetry is turned off.
 Nuclear repulsion after empirical dispersion term =     9397.5388993927 Hartrees.
 One-electron integrals computed using PRISM.
 NBasis=  1052 RedAO= T EigKep=  4.04D-04  NBF=  1052
 NBsUse=  1052 1.00D-06 EigRej= -1.00D+00 NBFU=  1052
 Initial guess from the checkpoint file:  "conf-234.chk"
 B after Tr=     0.000000    0.000000    0.000000
         Rot=    1.000000    0.000000    0.000000    0.000000 Ang=   0.00 deg.
 Requested convergence on RMS density matrix=1.00D-08 within 128 cycles.
 Requested convergence on MAX density matrix=1.00D-06.
 Requested convergence on             energy=1.00D-06.
 No special actions if energy rises.
 SCF Done:  E(RB3LYP) =  -2973.97777976     A.U. after    1 cycles
            NFock=  1  Conv=0.60D-08     -V/T= 2.0088
 Hyperfine terms turned off by default for NAtoms > 100.

 **********************************************************************

            Population analysis using the SCF Density.

 **********************************************************************

 Alpha  occ. eigenvalues --  -19.24826 -19.24664 -19.19510 -19.18998 -19.17335
 Alpha  occ. eigenvalues --  -19.15753 -19.15735 -19.14542 -19.13490 -19.01970
 Alpha  occ. eigenvalues --  -19.00939 -14.62702 -14.54171 -14.53504 -14.53119
 Alpha  occ. eigenvalues --  -14.47327 -14.42885 -14.40306 -14.39297 -14.37918
 Alpha  occ. eigenvalues --  -14.37902 -10.49749 -10.41773 -10.40311 -10.36666
 Alpha  occ. eigenvalues --  -10.36318 -10.35991 -10.33534 -10.32510 -10.32335
 Alpha  occ. eigenvalues --  -10.31995 -10.31488 -10.30183 -10.29829 -10.29019
 Alpha  occ. eigenvalues --  -10.28669 -10.28655 -10.28353 -10.28198 -10.27569
 Alpha  occ. eigenvalues --  -10.27552 -10.27373 -10.27286 -10.27157 -10.26116
 Alpha  occ. eigenvalues --  -10.24235 -10.24148 -10.23918 -10.23728 -10.23684
 Alpha  occ. eigenvalues --  -10.23527 -10.22950 -10.21981 -10.20031 -10.17662
 Alpha  occ. eigenvalues --  -10.17252 -10.17175 -10.16901 -10.16372 -10.16206
 Alpha  occ. eigenvalues --  -10.16104 -10.13157  -1.18936  -1.18367  -1.15969
 Alpha  occ. eigenvalues --   -1.15657  -1.11834  -1.07928  -1.07461  -1.07438
 Alpha  occ. eigenvalues --   -1.07038  -1.06938  -1.06550  -1.05433  -1.05396
 Alpha  occ. eigenvalues --   -1.04105  -0.99601  -0.96798  -0.96558  -0.96397
 Alpha  occ. eigenvalues --   -0.96172  -0.95874  -0.94921  -0.92726  -0.90830
 Alpha  occ. eigenvalues --   -0.87963  -0.87220  -0.86517  -0.84870  -0.84352
 Alpha  occ. eigenvalues --   -0.83843  -0.83470  -0.82758  -0.81001  -0.80223
 Alpha  occ. eigenvalues --   -0.79560  -0.78396  -0.77702  -0.77062  -0.76227
 Alpha  occ. eigenvalues --   -0.75357  -0.75141  -0.74793  -0.73547  -0.73372
 Alpha  occ. eigenvalues --   -0.73157  -0.71882  -0.71401  -0.71232  -0.69989
 Alpha  occ. eigenvalues --   -0.69968  -0.69431  -0.68809  -0.67941  -0.67353
 Alpha  occ. eigenvalues --   -0.66743  -0.66029  -0.65843  -0.65273  -0.65048
 Alpha  occ. eigenvalues --   -0.63644  -0.63063  -0.62265  -0.62076  -0.61543
 Alpha  occ. eigenvalues --   -0.61328  -0.60936  -0.60746  -0.60421  -0.59823
 Alpha  occ. eigenvalues --   -0.59464  -0.59160  -0.58060  -0.58007  -0.57717
 Alpha  occ. eigenvalues --   -0.56459  -0.56138  -0.55802  -0.55475  -0.54923
 Alpha  occ. eigenvalues --   -0.54844  -0.54163  -0.53664  -0.53580  -0.53417
 Alpha  occ. eigenvalues --   -0.53166  -0.52776  -0.52561  -0.51890  -0.51845
 Alpha  occ. eigenvalues --   -0.51298  -0.50959  -0.50815  -0.50727  -0.50265
 Alpha  occ. eigenvalues --   -0.50202  -0.49912  -0.49725  -0.49393  -0.48503
 Alpha  occ. eigenvalues --   -0.48428  -0.48108  -0.47684  -0.47239  -0.46644
 Alpha  occ. eigenvalues --   -0.46436  -0.46177  -0.46062  -0.45518  -0.45393
 Alpha  occ. eigenvalues --   -0.45283  -0.44993  -0.44637  -0.44595  -0.44426
 Alpha  occ. eigenvalues --   -0.44325  -0.44225  -0.43939  -0.43677  -0.43642
 Alpha  occ. eigenvalues --   -0.43525  -0.43397  -0.43124  -0.43080  -0.42819
 Alpha  occ. eigenvalues --   -0.42360  -0.42232  -0.42035  -0.41675  -0.41614
 Alpha  occ. eigenvalues --   -0.41408  -0.40843  -0.40566  -0.40322  -0.40040
 Alpha  occ. eigenvalues --   -0.39581  -0.39054  -0.38945  -0.38656  -0.37919
 Alpha  occ. eigenvalues --   -0.37685  -0.37643  -0.37471  -0.37348  -0.36999
 Alpha  occ. eigenvalues --   -0.36318  -0.34969  -0.34238  -0.33993  -0.33858
 Alpha  occ. eigenvalues --   -0.33502  -0.33308  -0.32966  -0.32792  -0.32551
 Alpha  occ. eigenvalues --   -0.32396  -0.31111  -0.30821  -0.30575  -0.30321
 Alpha  occ. eigenvalues --   -0.29794  -0.29498  -0.28691  -0.28203  -0.27528
 Alpha  occ. eigenvalues --   -0.26806  -0.25719  -0.23505  -0.20406  -0.17043
 Alpha  occ. eigenvalues --   -0.16182  -0.15864
 Alpha virt. eigenvalues --   -0.15004  -0.12581  -0.10710  -0.10106  -0.09579
 Alpha virt. eigenvalues --   -0.09252  -0.06465  -0.05666  -0.05615  -0.05137
 Alpha virt. eigenvalues --   -0.04670  -0.04246  -0.03942  -0.02501  -0.01982
 Alpha virt. eigenvalues --   -0.01597  -0.00974  -0.00724  -0.00406   0.00156
 Alpha virt. eigenvalues --    0.00359   0.01005   0.01349   0.01406   0.02233
 Alpha virt. eigenvalues --    0.02446   0.02955   0.03135   0.03252   0.03446
 Alpha virt. eigenvalues --    0.04204   0.04407   0.04595   0.05054   0.05557
 Alpha virt. eigenvalues --    0.05978   0.06144   0.06585   0.06890   0.07096
 Alpha virt. eigenvalues --    0.07363   0.07619   0.07702   0.07919   0.08097
[...]
 Alpha virt. eigenvalues --    0.96210   0.96426   0.96984   0.97102   0.97362
 Alpha virt. eigenvalues --    0.97731   0.98633   0.98722   0.99049   0.99506
 Alpha virt. eigenvalues --    0.99726   0.99826   1.01147   1.01529   1.01742
 Alpha virt. eigenvalues --    1.01939   1.02399   1.02637   1.02924   1.03958
 Alpha virt. eigenvalues --    1.04286   1.04374   1.04846   1.05033   1.05439
 Alpha virt. eigenvalues --    1.06053   1.06478   1.07187   1.07481   1.07867
 Alpha virt. eigenvalues --    1.08001   1.09021   1.09286   1.09381   1.10061
 Alpha virt. eigenvalues --    1.10257   1.11501   1.11603   1.11957   1.12215
 Alpha virt. eigenvalues --    1.12645   1.13710   1.14217   1.14482   1.15115
 Alpha virt. eigenvalues --    1.15937   1.16340   1.16693   1.17003   1.17324
 Alpha virt. eigenvalues --    1.17451   1.18229   1.18586   1.19351   1.19622
 Alpha virt. eigenvalues --    1.20360   1.20806   1.21089   1.21157   1.21813
 Alpha virt. eigenvalues --    1.22834   1.23475   1.23865   1.23967   1.24808
 Alpha virt. eigenvalues --    1.25199   1.25556   1.26157   1.27168   1.27354
 Alpha virt. eigenvalues --    1.28579   1.28900   1.29592   1.30615   1.30847
 Alpha virt. eigenvalues --    1.31073   1.31612   1.31963   1.33026   1.33619
 Alpha virt. eigenvalues --    1.33799   1.34601   1.35375   1.35439   1.35932
 Alpha virt. eigenvalues --    1.36129   1.36631   1.36957   1.37214   1.38279
 Alpha virt. eigenvalues --    1.39204   1.39331   1.39837   1.40157   1.40281
 Alpha virt. eigenvalues --    1.40873   1.41251   1.41696   1.42142   1.42547
 Alpha virt. eigenvalues --    1.42866   1.43759   1.44119   1.44791   1.44962
 Alpha virt. eigenvalues --    1.45459   1.46565   1.46789   1.47497   1.48068
 Alpha virt. eigenvalues --    1.48218   1.49194   1.49582   1.50243   1.50833
 Alpha virt. eigenvalues --    1.51527   1.52290   1.52681   1.53894   1.54047
 Alpha virt. eigenvalues --    1.54884   1.55287   1.56014   1.57088   1.57389
 Alpha virt. eigenvalues --    1.58217   1.58470   1.58887   1.59438   1.60059
 Alpha virt. eigenvalues --    1.61375   1.61514   1.61793   1.62077   1.62501
 Alpha virt. eigenvalues --    1.63513   1.64024   1.64229   1.64843   1.65558
 Alpha virt. eigenvalues --    1.65692   1.65849   1.66389   1.67564   1.67820
 Alpha virt. eigenvalues --    1.68544   1.68775   1.69011   1.69567   1.69710
 Alpha virt. eigenvalues --    1.70536   1.70576   1.71182   1.72081   1.72495
 Alpha virt. eigenvalues --    1.72802   1.73363   1.73559   1.73633   1.74094
 Alpha virt. eigenvalues --    1.74417   1.74730   1.74954   1.75222   1.75793
 Alpha virt. eigenvalues --    1.75998   1.76411   1.76599   1.77296   1.77432
 Alpha virt. eigenvalues --    1.77593   1.78169   1.78500   1.79135   1.79396
 Alpha virt. eigenvalues --    1.79720   1.80223   1.80926   1.80973   1.81292
 Alpha virt. eigenvalues --    1.81515   1.81594   1.81969   1.82083   1.82453
 Alpha virt. eigenvalues --    1.83108   1.83249   1.83862   1.84145   1.84496
 Alpha virt. eigenvalues --    1.84583   1.84844   1.85609   1.85828   1.86219
 Alpha virt. eigenvalues --    1.86874   1.87190   1.87563   1.87956   1.88226
 Alpha virt. eigenvalues --    1.88557   1.89009   1.89309   1.89607   1.89824
 Alpha virt. eigenvalues --    1.90609   1.90743   1.90919   1.91554   1.92105
 Alpha virt. eigenvalues --    1.92453   1.92973   1.93277   1.93710   1.93737
 Alpha virt. eigenvalues --    1.93943   1.94510   1.94804   1.95336   1.95668
 Alpha virt. eigenvalues --    1.95815   1.96544   1.96722   1.96867   1.97099
 Alpha virt. eigenvalues --    1.97642   1.97917   1.98095   1.98373   1.98703
 Alpha virt. eigenvalues --    1.99522   1.99944   2.00376   2.00927   2.01453
 Alpha virt. eigenvalues --    2.01836   2.02050   2.02273   2.02303   2.02708
 Alpha virt. eigenvalues --    2.02821   2.03373   2.03627   2.03989   2.04349
 Alpha virt. eigenvalues --    2.04505   2.05344   2.05752   2.06272   2.06484
 Alpha virt. eigenvalues --    2.06979   2.07615   2.07712   2.08193   2.08253
 Alpha virt. eigenvalues --    2.08546   2.09067   2.09229   2.09769   2.09948
 Alpha virt. eigenvalues --    2.10579   2.10923   2.11241   2.11599   2.12123
 Alpha virt. eigenvalues --    2.12301   2.12521   2.12963   2.13618   2.14385
 Alpha virt. eigenvalues --    2.15095   2.15638   2.15787   2.16551   2.16872
 Alpha virt. eigenvalues --    2.16938   2.17516   2.18821   2.18856   2.19234
 Alpha virt. eigenvalues --    2.19462   2.19910   2.20409   2.21010   2.21369
 Alpha virt. eigenvalues --    2.22051   2.22503   2.22926   2.23043   2.23502
 Alpha virt. eigenvalues --    2.24373   2.25186   2.25429   2.25808   2.27114
 Alpha virt. eigenvalues --    2.27180   2.28041   2.28491   2.28949   2.29637
 Alpha virt. eigenvalues --    2.30185   2.30607   2.32100   2.32449   2.32836
 Alpha virt. eigenvalues --    2.33111   2.33751   2.34281   2.34803   2.35658
 Alpha virt. eigenvalues --    2.36119   2.36477   2.37150   2.37350   2.37676
 Alpha virt. eigenvalues --    2.37842   2.38325   2.39320   2.39713   2.39844
 Alpha virt. eigenvalues --    2.40141   2.41463   2.42257   2.42663   2.42753
 Alpha virt. eigenvalues --    2.44134   2.44778   2.45133   2.45968   2.46394
 Alpha virt. eigenvalues --    2.47083   2.47676   2.48004   2.48531   2.48991
 Alpha virt. eigenvalues --    2.49303   2.50064   2.50751   2.50895   2.51342
 Alpha virt. eigenvalues --    2.51764   2.52175   2.52824   2.53839   2.54388
 Alpha virt. eigenvalues --    2.55530   2.56076   2.56472   2.57681   2.57740
 Alpha virt. eigenvalues --    2.58592   2.58989   2.59735   2.60885   2.62522
 Alpha virt. eigenvalues --    2.63120   2.63376   2.63566   2.63997   2.64566
 Alpha virt. eigenvalues --    2.64772   2.65116   2.65284   2.65428   2.65741
 Alpha virt. eigenvalues --    2.66625   2.66697   2.67246   2.67937   2.68070
 Alpha virt. eigenvalues --    2.68546   2.68937   2.69222   2.70283   2.71408
 Alpha virt. eigenvalues --    2.72084   2.72901   2.73798   2.74468   2.75437
 Alpha virt. eigenvalues --    2.77004   2.78015   2.79006   2.79526   2.79899
 Alpha virt. eigenvalues --    2.81396   2.82867   2.83005   2.83935   2.85482
 Alpha virt. eigenvalues --    2.86085   2.86564   2.87756   2.88886   2.89982
 Alpha virt. eigenvalues --    2.91105   2.93195   2.93392   2.93906   2.94300
 Alpha virt. eigenvalues --    2.94917   2.96092   2.96603   2.96807   2.97735
 Alpha virt. eigenvalues --    2.98441   3.00770   3.01454   3.03690   3.04058
 Alpha virt. eigenvalues --    3.04670   3.07062   3.09192   3.09549   3.10763
 Alpha virt. eigenvalues --    3.12969   3.14223   3.16356   3.16697   3.17554
 Alpha virt. eigenvalues --    3.24777   3.33193   3.45151   3.61352   3.62559
 Alpha virt. eigenvalues --    3.69370   3.77988   3.85162   3.91219   3.93077
 Alpha virt. eigenvalues --    3.94413   3.99419   4.00554   4.01703   4.02690
 Alpha virt. eigenvalues --    4.03041   4.05530   4.06977   4.07529   4.08670
 Alpha virt. eigenvalues --    4.11500   4.11817   4.12909   4.13198   4.13753
 Alpha virt. eigenvalues --    4.14468   4.15477   4.18378   4.18826   4.19146
 Alpha virt. eigenvalues --    4.20952   4.21581   4.23789   4.24551   4.26524
 Alpha virt. eigenvalues --    4.27035   4.27723   4.28887   4.31871   4.32322
 Alpha virt. eigenvalues --    4.33007   4.34012   4.35460   4.37246   4.37761
 Alpha virt. eigenvalues --    4.39360   4.40884   4.44599   4.45444   4.45798
 Alpha virt. eigenvalues --    4.46006   4.49891   4.51073   4.52669   4.55328
 Alpha virt. eigenvalues --    4.57202   4.58006   4.59316   4.59961   4.62700
 Alpha virt. eigenvalues --    4.63340   4.67313   4.75150   4.78535   4.80225
          Condensed to atoms (all electrons):
 Mulliken charges:
               1
     1  N   -0.715180
     2  H    0.430538
     3  H    0.420941
     4  H    0.425126
     5  C   -0.149312
     6  H    0.218902
     7  C    0.634266
     8  C   -0.372543
     9  H    0.187053
    10  H    0.174370
    11  O   -0.530945
    12  C    0.152194
    13  C   -0.182685
    14  H    0.141807
    15  C   -0.195024
    16  H    0.126642
    17  C   -0.125569
    18  H    0.158854
    19  C   -0.114237
    20  H    0.167118
    21  C   -0.107485
    22  H    0.168683
    23  N   -0.588748
    24  H    0.370541
    25  C   -0.050357
    26  H    0.177459
    27  C    0.620392
    28  C   -0.447562
    29  H    0.185148
    30  H    0.180515
    31  H    0.165236
    32  O   -0.516563
    33  N   -0.584398
    34  H    0.334755
    35  C   -0.091662
    36  H    0.189555
    37  C    0.647925
    38  C   -0.457485
    39  H    0.190480
    40  H    0.158724
    41  H    0.156149
    42  O   -0.571579
    43  N   -0.577298
    44  H    0.343344
    45  C   -0.032116
    46  H    0.129281
    47  C    0.654596
    48  C   -0.394311
    49  H    0.200992
    50  H    0.177584
    51  O   -0.547791
    52  C    0.190354
    53  C   -0.190568
    54  H    0.090984
    55  C   -0.144951
    56  H    0.180605
    57  C   -0.171471
    58  H    0.104928
    59  C   -0.221832
    60  H    0.102687
    61  O   -0.660951
    62  H    0.399235
    63  C    0.343649
    64  N   -0.594288
    65  H    0.337170
    66  C   -0.063520
    67  H    0.179802
    68  C    0.622082
    69  C   -0.278499
    70  H    0.145057
    71  H    0.116852
    72  O   -0.587526
    73  C   -0.075325
    74  H    0.147769
    75  C   -0.439951
    76  H    0.125021
    77  H    0.144973
    78  H    0.133023
    79  C   -0.447723
    80  H    0.127291
    81  H    0.174295
    82  H    0.138089
    83  N   -0.601024
    84  H    0.391479
    85  C   -0.078841
    86  H    0.178454
    87  C    0.629424
    88  C   -0.279325
    89  H    0.165315
    90  H    0.160427
    91  O   -0.513325
    92  C   -0.376610
    93  H    0.148973
    94  H    0.116446
    95  C    0.570033
    96  O   -0.591595
    97  O   -0.601349
    98  N   -0.634251
    99  H    0.379009
   100  C   -0.048885
   101  H    0.212632
   102  C    0.586710
   103  C   -0.285087
   104  H    0.167041
   105  H    0.162196
   106  O   -0.451978
   107  C   -0.334286
   108  H    0.182579
   109  H    0.186912
   110  C   -0.166468
   111  H    0.190517
   112  H    0.179929
   113  N   -0.585207
   114  H    0.380864
   115  N   -0.729383
   116  H    0.381529
   117  H    0.396672
   118  N   -0.730231
   119  H    0.375900
   120  H    0.387957
   121  C    0.769394
   122  O   -0.570819
   123  H    0.414695
 Sum of Mulliken charges =   1.00000
 Mulliken charges with hydrogens summed into heavy atoms:
               1
     1  N    0.561426
     5  C    0.069589
     7  C    0.634266
     8  C   -0.011120
    11  O   -0.530945
    12  C    0.152194
    13  C   -0.040877
    15  C   -0.068382
    17  C    0.033284
    19  C    0.052881
    21  C    0.061197
    23  N   -0.218207
    25  C    0.127102
    27  C    0.620392
    28  C    0.083336
    32  O   -0.516563
    33  N   -0.249643
    35  C    0.097893
    37  C    0.647925
    38  C    0.047867
    42  O   -0.571579
    43  N   -0.233954
    45  C    0.097165
    47  C    0.654596
    48  C   -0.015736
    51  O   -0.547791
    52  C    0.190354
    53  C   -0.099584
    55  C    0.035654
    57  C   -0.066543
    59  C   -0.119145
    61  O   -0.261716
    63  C    0.343649
    64  N   -0.257119
    66  C    0.116282
    68  C    0.622082
    69  C   -0.016590
    72  O   -0.587526
    73  C    0.072443
    75  C   -0.036934
    79  C   -0.008049
    83  N   -0.209545
    85  C    0.099613
    87  C    0.629424
    88  C    0.046416
    91  O   -0.513325
    92  C   -0.111190
    95  C    0.570033
    96  O   -0.591595
    97  O   -0.601349
    98  N   -0.255242
   100  C    0.163747
   102  C    0.586710
   103  C    0.044149
   106  O   -0.451978
   107  C    0.035205
   110  C    0.203979
   113  N   -0.204343
   115  N    0.048818
   118  N    0.033627
   121  C    0.769394
   122  O   -0.156125
 Electronic spatial extent (au):  <R**2>=          80167.7017
 Charge=              1.0000 electrons
 Dipole moment (field-independent basis, Debye):
    X=             -1.0056    Y=            -33.6746    Z=             37.5154  Tot=             50.4222
 Quadrupole moment (field-independent basis, Debye-Ang):
   XX=            203.7373   YY=           -267.4602   ZZ=           -162.9182
   XY=           -143.0377   XZ=           -306.7567   YZ=             35.0761
 Traceless Quadrupole moment (field-independent basis, Debye-Ang):
   XX=            279.2843   YY=           -191.9131   ZZ=            -87.3711
   XY=           -143.0377   XZ=           -306.7567   YZ=             35.0761
 Octapole moment (field-independent basis, Debye-Ang**2):
  XXX=            115.8701  YYY=          -1390.4690  ZZZ=            833.1276  XYY=           1081.1988
  XXY=          -1684.3949  XXZ=           2116.5891  XZZ=          -1620.0477  YZZ=           -426.9708
  YYZ=           -157.7229  XYZ=            356.9778
 Hexadecapole moment (field-independent basis, Debye-Ang**3):
 XXXX=         -11442.2267 YYYY=          -8507.8292 ZZZZ=         -18212.1502 XXXY=           -702.6308
 XXXZ=         -11606.6193 YYYX=           1135.2721 YYYZ=            845.1462 ZZZX=          -2066.2348
 ZZZY=          -1274.5108 XXYY=          -3561.6622 XXZZ=           5418.4150 YYZZ=          -7355.2885
 XXYZ=          -1918.7306 YYXZ=           4102.4580 ZZXY=           4275.0062
 N-N= 9.397538899393D+03 E-N=-2.570120570693D+04  KE= 2.948112108183D+03
 Unable to Open any file for archive entry.
 1\1\GINC-AMR-206\SP\RB3LYP\6-31G(d)\C41H61N10O11(1+)\KENGMITH\02-Aug-2
 022\0\\# B3LYP/6-31G* empiricaldispersion=gd3 guess=read geom=check no
 symm integral(ultrafinegrid)\\Candidate Structure: Conf:234 Charge cal
 c in gas phase\\1,1\N,0,-9.18960194,-1.2902166807,7.9759702468\H,0,-9.
 3341199417,-2.2059197664,7.5503527005\H,0,-10.0812107001,-0.9435909964
 ,8.3226846159\H,0,-8.5426356595,-1.4176332718,8.7629713658\C,0,-8.5554
 538972,-0.3385464018,7.0307836932\H,0,-9.0905863266,-0.3514862365,6.07
 73658222\C,0,-7.1049616791,-0.787317166,6.8359916935\C,0,-8.586436428,
 1.0924748908,7.588379286\H,0,-8.0259205395,1.100310296,8.5272652378\H,
 0,-9.6291601559,1.3382510913,7.8176556785\O,0,-6.4988059109,-1.3386715
 019,7.7481474736\C,0,-8.0040340508,2.0858840803,6.614825269\C,0,-6.708
 1475057,2.5741347837,6.7818007709\H,0,-6.1085353951,2.2319494134,7.620
 8145118\C,0,-8.7444993546,2.4927996284,5.504162986\H,0,-9.7455860535,2
 .0928197637,5.3640060638\C,0,-6.1737265784,3.4756888336,5.8614517086\H
 ,0,-5.1632748385,3.8483093976,5.9999918994\C,0,-8.2124398551,3.3943735
 35,4.5847754855\H,0,-8.8048371013,3.7064596625,3.7326496189\C,0,-6.923
 5217599,3.8901640329,4.7639943373\H,0,-6.5051479179,4.5910007052,4.051
 2186149\N,0,-6.5705756014,-0.4965715433,5.6368425\H,0,-7.0736399463,0.
 0863914539,4.9782219199\C,0,-5.1427770149,-0.6131798773,5.3839704904\H
 ,0,-4.6091428596,-0.4654061961,6.3274641262\C,0,-4.8012359737,0.509528
 1888,4.4106689345\C,0,-4.7732037089,-1.9791897328,4.8056276235\H,0,-3.
 6999674875,-2.0268500077,4.6025035923\H,0,-5.3101057511,-2.1439729067,
 3.8687940249\H,0,-5.0395883351,-2.7691401955,5.5106736501\O,0,-5.57905
 95875,0.8390294043,3.5266032289\N,0,-3.5905473736,1.1070659193,4.60035
 70491\H,0,-2.8899359179,0.555911332,5.0725684001\C,0,-3.0651258326,1.9
 7163361,3.555250315\H,0,-3.9146796173,2.5335085947,3.1617325156\C,0,-2
 .4842223071,1.0958662016,2.4374346889\C,0,-2.0165006438,2.9162808046,4
 .1296336579\H,0,-1.6410472594,3.5960340942,3.3616474048\H,0,-1.1727185
 684,2.3469080348,4.5296639612\H,0,-2.4538797294,3.5051688966,4.9391177
 652\O,0,-2.0636078684,-0.0409086652,2.6530310224\N,0,-2.4664485688,1.6
 733067396,1.217482373\H,0,-2.7781494148,2.6219348111,1.1119470232\C,0,
 -1.9429062008,0.9904654908,0.0482207194\H,0,-2.3827110893,-0.008293422
 9,0.0275486833\C,0,-0.4247119828,0.891388037,0.161644293\C,0,-2.293103
 6803,1.7563893028,-1.2352747325\H,0,-1.8034935501,2.7301799213,-1.2136
 932292\H,0,-1.858314392,1.219462595,-2.0859448585\O,0,0.2631430449,1.9
 139516751,0.2340075379\C,0,-3.7640189979,1.9675690961,-1.4532499842\C,
 0,-4.6815929281,0.9174479416,-1.4272781648\H,0,-4.3316733627,-0.093487
 0155,-1.2534213772\C,0,-4.2383609577,3.2546878665,-1.7005520324\H,0,-3
 .5344201033,4.0785290433,-1.7520265806\C,0,-6.040391949,1.1392948207,-
 1.6404522476\H,0,-6.7511720365,0.3213014012,-1.6235948787\C,0,-5.59505
 35944,3.4953746399,-1.9058607525\H,0,-5.9443032595,4.5057314463,-2.098
 0522538\O,0,-7.8452578001,2.6012571912,-2.0698862547\H,0,-8.0220487386
 ,3.534950521,-2.2255880238\C,0,-6.4984626465,2.4335480765,-1.873388879
 8\N,0,0.1300387813,-0.33945107,0.1518030623\H,0,-0.4560139746,-1.15371
 8971,0.0997714878\C,0,1.5742907754,-0.5206302302,0.2997028255\H,0,1.92
 08669903,0.3047886938,0.9275702519\C,0,2.1780758796,-0.3289102292,-1.0
 994144426\C,0,1.9235308573,-1.8551123984,0.9336561992\H,0,1.6561540113
 ,-2.660743004,0.246640964\H,0,3.0112127341,-1.8995774651,1.0500150145\
 O,0,2.5237098748,-1.2657372542,-1.8308711773\C,0,1.2591862284,-2.09835
 86205,2.2933765822\H,0,0.1736910162,-2.127239846,2.1422956526\C,0,1.70
 67538296,-3.4527441176,2.841750254\H,0,2.7859481397,-3.4519027561,3.02
 22730835\H,0,1.2089244559,-3.6821112999,3.7881952701\H,0,1.4816327773,
 -4.2603926584,2.1392736318\C,0,1.5634109258,-0.980965455,3.2900378141\
 H,0,2.6387904513,-0.9313557389,3.493616581\H,0,1.2352941086,-0.0047041
 942,2.9236874392\H,0,1.0497375966,-1.1660118979,4.2388564185\N,0,2.221
 9366485,0.9608786026,-1.4862188602\H,0,1.8066048175,1.6419454017,-0.85
 85226446\C,0,2.352982442,1.3695308094,-2.8808602123\H,0,1.9540643548,0
 .5521486166,-3.4982497201\C,0,3.8191749957,1.5449725761,-3.2869286439\
 C,0,1.5064274457,2.6286131854,-3.0849711449\H,0,1.8527753112,3.4335777
 648,-2.4304736556\H,0,1.6340096599,2.9987097324,-4.1040364552\O,0,4.26
 80237334,2.5487279093,-3.8199145201\C,0,0.0605202684,2.2880623391,-2.7
 54957833\H,0,0.034279677,1.8960868343,-1.7462097512\H,0,-0.3429607221,
 1.5267347451,-3.4274946134\C,0,-0.9445572326,3.4662191951,-2.682866827
 9\O,0,-0.4793854492,4.5774678852,-2.3742761377\O,0,-2.1403570017,3.117
 2183888,-2.8307914398\N,0,4.5831044469,0.4572707545,-2.9813361847\H,0,
 4.0818127367,-0.3892414768,-2.733474287\C,0,5.9327512385,0.3389904521,
 -3.4706952371\H,0,6.3541855644,1.345010088,-3.5356408646\C,0,5.9498370
 851,-0.2424414209,-4.8768195206\C,0,6.7822336949,-0.5130898507,-2.5173
 338543\H,0,6.8006027449,-0.002869434,-1.5504131705\H,0,7.8096374245,-0
 .5300628507,-2.8925815244\O,0,5.0087691733,-0.7330136805,-5.4467239678
 \C,0,6.2586707943,-1.9345798044,-2.3424098112\H,0,6.1514018562,-2.4138
 792134,-3.3195446823\H,0,5.2679273041,-1.9184336105,-1.8815700843\C,0,
 7.1876062924,-2.7776637649,-1.4845802658\H,0,7.302055301,-2.3260984034
 ,-0.4913147609\H,0,8.1780970819,-2.8117690673,-1.9499109956\N,0,6.6535
 486107,-4.1489465971,-1.3808462432\H,0,5.6436718882,-4.203086997,-1.36
 11195777\N,0,8.4946692828,-4.9067133706,-0.1518542797\H,0,9.0605253165
 ,-5.6994184375,0.1088766168\H,0,8.9967637791,-4.0738177059,-0.41356929
 71\N,0,6.6243857929,-6.2824193025,-0.4751702119\H,0,7.1662157199,-7.06
 54380988,-0.1405487779\H,0,5.9041567233,-6.5291634521,-1.1410213393\C,
 0,7.2750089722,-5.1120221788,-0.6813398849\O,0,7.1854803379,-0.1637422
 892,-5.4184434803\H,0,7.1173777313,-0.5456261924,-6.3057002668\\Versio
 n=ES64L-G16RevC.01\HF=-2973.9777798\RMSD=6.034e-09\Dipole=1.4888885,-1
 3.9729408,13.1717906\Quadrupole=207.6410177,-142.682716,-64.9583017,-1
 06.3450225,-228.0660597,26.0781964\PG=C01 [X(C41H61N10O11)]\\@
 The archive entry for this job was punched.


 Children are likely to live up to what you believe of them.
 -- Lady Bird Johnson
 Job cpu time:       0 days  0 hours  3 minutes 38.1 seconds.
 Elapsed time:       0 days  0 hours  0 minutes 55.1 seconds.
 File lengths (MBytes):  RWF=    800 Int=      0 D2E=      0 Chk=    128 Scr=     32
 Normal termination of Gaussian 16 at Tue Aug  2 21:52:24 2022.
