 Entering Gaussian System, Link 0=/opt/software/Gaussian/g16-AVX2-C.01/g16/g16
 Input=charge-conf-607.com
 Output=charge-conf-607.log
 Initial command:
 /opt/software/Gaussian/g16-AVX2-C.01/g16/l1.exe "/mnt/gs18/scratch/users/kengmith/Gau-381.inp" -scrdir="/mnt/gs18/scratch/users/kengmith/"
 Entering Link 1 = /opt/software/Gaussian/g16-AVX2-C.01/g16/l1.exe PID=       392.
  
 Copyright (c) 1988-2019, Gaussian, Inc.  All Rights Reserved.
  
 This is part of the Gaussian(R) 16 program.  It is based on
 the Gaussian(R) 09 system (copyright 2009, Gaussian, Inc.),
 the Gaussian(R) 03 system (copyright 2003, Gaussian, Inc.),
 the Gaussian(R) 98 system (copyright 1998, Gaussian, Inc.),
 the Gaussian(R) 94 system (copyright 1995, Gaussian, Inc.),
 the Gaussian 92(TM) system (copyright 1992, Gaussian, Inc.),
 the Gaussian 90(TM) system (copyright 1990, Gaussian, Inc.),
 the Gaussian 88(TM) system (copyright 1988, Gaussian, Inc.),
 the Gaussian 86(TM) system (copyright 1986, Carnegie Mellon
 University), and the Gaussian 82(TM) system (copyright 1983,
 Carnegie Mellon University). Gaussian is a federally registered
 trademark of Gaussian, Inc.
  
 This software contains proprietary and confidential information,
 including trade secrets, belonging to Gaussian, Inc.
  
 This software is provided under written license and may be
 used, copied, transmitted, or stored only in accord with that
 written license.
  
 The following legend is applicable only to US Government
 contracts under FAR:
  
                    RESTRICTED RIGHTS LEGEND
  
 Use, reproduction and disclosure by the US Government is
 subject to restrictions as set forth in subparagraphs (a)
 and (c) of the Commercial Computer Software - Restricted
 Rights clause in FAR 52.227-19.
  
 Gaussian, Inc.
 340 Quinnipiac St., Bldg. 40, Wallingford CT 06492
  
  
 ---------------------------------------------------------------
 Warning -- This program may not be used in any manner that
 competes with the business of Gaussian, Inc. or will provide
 assistance to any competitor of Gaussian, Inc.  The licensee
 of this program is prohibited from giving any competitor of
 Gaussian, Inc. access to this program.  By using this program,
 the user acknowledges that Gaussian, Inc. is engaged in the
 business of creating and licensing software in the field of
 computational chemistry and represents and warrants to the
 licensee that it is not a competitor of Gaussian, Inc. and that
 it will not use this program in any manner prohibited above.
 ---------------------------------------------------------------
  

 Cite this work as:
 Gaussian 16, Revision C.01,
 M. J. Frisch, G. W. Trucks, H. B. Schlegel, G. E. Scuseria, 
 M. A. Robb, J. R. Cheeseman, G. Scalmani, V. Barone, 
 G. A. Petersson, H. Nakatsuji, X. Li, M. Caricato, A. V. Marenich, 
 J. Bloino, B. G. Janesko, R. Gomperts, B. Mennucci, H. P. Hratchian, 
 J. V. Ortiz, A. F. Izmaylov, J. L. Sonnenberg, D. Williams-Young, 
 F. Ding, F. Lipparini, F. Egidi, J. Goings, B. Peng, A. Petrone, 
 T. Henderson, D. Ranasinghe, V. G. Zakrzewski, J. Gao, N. Rega, 
 G. Zheng, W. Liang, M. Hada, M. Ehara, K. Toyota, R. Fukuda, 
 J. Hasegawa, M. Ishida, T. Nakajima, Y. Honda, O. Kitao, H. Nakai, 
 T. Vreven, K. Throssell, J. A. Montgomery, Jr., J. E. Peralta, 
 F. Ogliaro, M. J. Bearpark, J. J. Heyd, E. N. Brothers, K. N. Kudin, 
 V. N. Staroverov, T. A. Keith, R. Kobayashi, J. Normand, 
 K. Raghavachari, A. P. Rendell, J. C. Burant, S. S. Iyengar, 
 J. Tomasi, M. Cossi, J. M. Millam, M. Klene, C. Adamo, R. Cammi, 
 J. W. Ochterski, R. L. Martin, K. Morokuma, O. Farkas, 
 J. B. Foresman, and D. J. Fox, Gaussian, Inc., Wallingford CT, 2019.
 
 ******************************************
 Gaussian 16:  ES64L-G16RevC.01  3-Jul-2019
                19-Jul-2022 
 ******************************************
 %mem=8gb
 %nproc=4
 Will use up to    4 processors via shared memory.
 %chk=conf-607.chk
 -------------------------------------------------------------------
 # B3LYP/6-31G* guess=read geom=check nosymm integral(ultrafinegrid)
 -------------------------------------------------------------------
 1/29=2,38=1,172=1/1;
 2/12=2,15=1,40=1/2;
 3/5=1,6=6,7=1,11=2,14=-4,25=1,30=1,74=-5,75=-5,116=-2/1,2,3;
 4/5=1/1;
 5/5=2,38=6/2;
 6/7=2,8=2,9=2,10=2,28=1/1;
 99/5=1,9=1/99;
 ------------------------------------------------------
 Candidate Structure: Conf:607 Charge calc in gas phase
 ------------------------------------------------------
 Structure from the checkpoint file:  "conf-607.chk"
 Charge =  1 Multiplicity = 1
 Redundant internal coordinates found in file.  (old form).
 N,0,-0.5770173106,1.5557908291,-4.5679449998
 H,0,0.1581420862,1.2491078631,-3.8831832347
 H,0,-1.4785895393,1.2036272847,-4.2066342569
 H,0,-0.3764602976,1.0154546269,-5.4327312382
 C,0,-0.5842390423,3.0269814828,-4.7705725752
 H,0,-1.3550646242,3.2774151623,-5.505015699
 H,0,0.3886098657,3.3262483093,-5.1677114749
 C,0,-0.9138765916,3.6677113765,-3.4176230283
 O,0,-1.7286494499,3.1363700156,-2.6791881933
 N,0,-0.2555393179,4.8259221888,-3.1128686302
 H,0,0.5579000191,5.0557377996,-3.6688286852
 C,0,-0.2090185744,5.2188578056,-1.7181660964
 H,0,0.2769397889,6.1958344273,-1.6341476539
 H,0,-1.2299963027,5.3141502207,-1.3383324114
 C,0,0.5521949792,4.1493973964,-0.8991879664
 O,0,1.1429338155,3.2355829785,-1.4670614705
 N,0,0.5236508246,4.2865377037,0.4554611808
 H,0,-0.0808275598,5.0097629121,0.8284872076
 C,0,0.7413286774,3.1372137704,1.3459658299
 H,0,-0.1001127553,2.4398262081,1.2906633336
 H,0,0.7994267474,3.5234352702,2.3690108759
 C,0,1.9923981863,2.2952232085,1.0656272209
 O,0,1.9220341007,1.0728965145,1.0503603717
 N,0,3.1708577073,2.9571770157,0.8960493371
 H,0,3.1958755021,3.9658787291,0.9484898534
 C,0,4.4028752665,2.2022421328,0.7053166946
 H,0,5.2334240418,2.9106100581,0.6327268708
 H,0,4.5896145036,1.5379676408,1.5528563546
 C,0,4.3924883256,1.3096812494,-0.5453721355
 O,0,5.0080194685,0.2480375808,-0.5683273178
 N,0,3.7069433809,1.7995359414,-1.6198794425
 H,0,2.99369058,2.5028066473,-1.445224557
 C,0,3.4710499533,0.9373364906,-2.7715734941
 H,0,4.3817709437,0.3667554247,-2.966855914
 H,0,3.2349367047,1.5518430009,-3.6421982563
 C,0,2.2864313059,0.0125999462,-2.4827132784
 O,0,1.1376482249,0.2510382915,-2.8933507126
 N,0,2.5523659944,-1.0391368712,-1.6875618318
 H,0,3.4831519344,-1.077641659,-1.2761093762
 C,0,1.4795188306,-1.7646452718,-1.0144920496
 H,0,1.9264529558,-2.6288414719,-0.5174828663
 H,0,1.0275212167,-1.1223121311,-0.2489944023
 C,0,0.4275096168,-2.3009634995,-1.9935036535
 O,0,0.6868766917,-3.158252956,-2.8340280307
 N,0,-0.8297692384,-1.8080322294,-1.804487354
 H,0,-0.9225773498,-0.93916572,-1.2965064785
 C,0,-1.9225688393,-2.2006406222,-2.6800925995
 H,0,-1.9586894653,-3.2927358823,-2.7204351398
 H,0,-2.8575792414,-1.8315271775,-2.2557849374
 C,0,-1.8114057397,-1.6200501795,-4.10243493
 O,0,-2.3607504469,-0.5614056785,-4.4229395513
 N,0,-1.101064697,-2.3840053742,-4.9707762838
 H,0,-0.5092590453,-3.106498011,-4.5639916544
 C,0,-1.0257237565,-2.0931809248,-6.3903023353
 H,0,-1.0727662082,-3.0265313622,-6.9551048996
 H,0,-1.88590751,-1.468307776,-6.6448402398
 C,0,0.2361912022,-1.3305077907,-6.7880654458
 O,0,0.47757939,-0.1645509641,-6.5143704247
 O,0,1.0765390745,-2.0875003661,-7.4960789336
 H,0,1.8578655063,-1.5467394953,-7.7259962603
 Recover connectivity data from disk.
                           ----------------------------
                           !    Current Parameters    !
                           ! (Angstroms and Degrees)  !
 --------------------------                            --------------------------
 ! Name  Definition              Value                                          !
 --------------------------------------------------------------------------------
 ! R1    R(1,2)                  1.0504                                         !
 ! R2    R(1,3)                  1.0331                                         !
 ! R3    R(1,4)                  1.0393                                         !
 ! R4    R(1,5)                  1.4851                                         !
 ! R5    R(5,6)                  1.0938                                         !
 ! R6    R(5,7)                  1.0926                                         !
 ! R7    R(5,8)                  1.5329                                         !
 ! R8    R(8,9)                  1.2213                                         !
 ! R9    R(8,10)                 1.3667                                         !
 ! R10   R(10,11)                1.0117                                         !
 ! R11   R(10,12)                1.4497                                         !
 ! R12   R(12,13)                1.0944                                         !
 ! R13   R(12,14)                1.0935                                         !
 ! R14   R(12,15)                1.5472                                         !
 ! R15   R(15,16)                1.2274                                         !
 ! R16   R(15,17)                1.3619                                         !
 ! R17   R(17,18)                1.0137                                         !
 ! R18   R(17,19)                1.4701                                         !
 ! R19   R(19,20)                1.0943                                         !
 ! R20   R(19,21)                1.0951                                         !
 ! R21   R(19,22)                1.5339                                         !
 ! R22   R(22,23)                1.2244                                         !
 ! R23   R(22,24)                1.3622                                         !
 ! R24   R(24,25)                1.0104                                         !
 ! R25   R(24,26)                1.4575                                         !
 ! R26   R(26,27)                1.094                                          !
 ! R27   R(26,28)                1.0929                                         !
 ! R28   R(26,29)                1.5366                                         !
 ! R29   R(29,30)                1.2274                                         !
 ! R30   R(29,31)                1.3655                                         !
 ! R31   R(31,32)                1.0168                                         !
 ! R32   R(31,33)                1.4579                                         !
 ! R33   R(33,34)                1.0923                                         !
 ! R34   R(33,35)                1.0915                                         !
 ! R35   R(33,36)                1.5303                                         !
 ! R36   R(36,37)                1.2431                                         !
 ! R37   R(36,38)                1.345                                          !
 ! R38   R(38,39)                1.0184                                         !
 ! R39   R(38,40)                1.4596                                         !
 ! R40   R(40,41)                1.0925                                         !
 ! R41   R(40,42)                1.0968                                         !
 ! R42   R(40,43)                1.5339                                         !
 ! R43   R(43,44)                1.2283                                         !
 ! R44   R(43,45)                1.3636                                         !
 ! R45   R(45,46)                1.0107                                         !
 ! R46   R(45,47)                1.4543                                         !
 ! R47   R(47,48)                1.0934                                         !
 ! R48   R(47,49)                1.0911                                         !
 ! R49   R(47,50)                1.5403                                         !
 ! R50   R(50,51)                1.235                                          !
 ! R51   R(50,52)                1.3573                                         !
 ! R52   R(52,53)                1.0187                                         !
 ! R53   R(52,54)                1.451                                          !
 ! R54   R(54,55)                1.092                                          !
 ! R55   R(54,56)                1.0932                                         !
 ! R56   R(54,57)                1.5272                                         !
 ! R57   R(57,58)                1.2217                                         !
 ! R58   R(57,59)                1.3344                                         !
 ! R59   R(59,60)                0.9776                                         !
 ! A1    A(2,1,3)              106.4535                                         !
 ! A2    A(2,1,4)              104.8086                                         !
 ! A3    A(2,1,5)              112.431                                          !
 ! A4    A(3,1,4)              106.3909                                         !
 ! A5    A(3,1,5)              112.4046                                         !
 ! A6    A(4,1,5)              113.7322                                         !
 ! A7    A(1,5,6)              108.776                                          !
 ! A8    A(1,5,7)              108.4581                                         !
 ! A9    A(1,5,8)              107.1396                                         !
 ! A10   A(6,5,7)              108.7071                                         !
 ! A11   A(6,5,8)              110.207                                          !
 ! A12   A(7,5,8)              113.4417                                         !
 ! A13   A(5,8,9)              119.6891                                         !
 ! A14   A(5,8,10)             116.5816                                         !
 ! A15   A(9,8,10)             123.7292                                         !
 ! A16   A(8,10,11)            117.2113                                         !
 ! A17   A(8,10,12)            117.3668                                         !
 ! A18   A(11,10,12)           116.186                                          !
 ! A19   A(10,12,13)           109.2727                                         !
 ! A20   A(10,12,14)           109.1369                                         !
 ! A21   A(10,12,15)           109.7347                                         !
 ! A22   A(13,12,14)           108.0671                                         !
 ! A23   A(13,12,15)           110.9744                                         !
 ! A24   A(14,12,15)           109.6168                                         !
 ! A25   A(12,15,16)           120.4314                                         !
 ! A26   A(12,15,17)           116.5255                                         !
 ! A27   A(16,15,17)           123.0431                                         !
 ! A28   A(15,17,18)           116.7676                                         !
 ! A29   A(15,17,19)           121.3782                                         !
 ! A30   A(18,17,19)           115.0337                                         !
 ! A31   A(17,19,20)           110.7177                                         !
 ! A32   A(17,19,21)           107.3386                                         !
 ! A33   A(17,19,22)           116.0533                                         !
 ! A34   A(20,19,21)           108.2271                                         !
 ! A35   A(20,19,22)           105.5516                                         !
 ! A36   A(21,19,22)           108.7283                                         !
 ! A37   A(19,22,23)           120.2249                                         !
 ! A38   A(19,22,24)           117.4907                                         !
 ! A39   A(23,22,24)           122.2253                                         !
 ! A40   A(22,24,25)           120.0056                                         !
 ! A41   A(22,24,26)           119.7268                                         !
 ! A42   A(25,24,26)           120.1978                                         !
 ! A43   A(24,26,27)           108.3633                                         !
 ! A44   A(24,26,28)           110.9639                                         !
 ! A45   A(24,26,29)           113.6841                                         !
 ! A46   A(27,26,28)           108.3782                                         !
 ! A47   A(27,26,29)           109.1016                                         !
 ! A48   A(28,26,29)           106.2188                                         !
 ! A49   A(26,29,30)           120.949                                          !
 ! A50   A(26,29,31)           115.8184                                         !
 ! A51   A(30,29,31)           123.1863                                         !
 ! A52   A(29,31,32)           117.72                                           !
 ! A53   A(29,31,33)           119.3877                                         !
 ! A54   A(32,31,33)           115.5469                                         !
 ! A55   A(31,33,34)           108.3763                                         !
 ! A56   A(31,33,35)           109.4002                                         !
 ! A57   A(31,33,36)           109.4819                                         !
 ! A58   A(34,33,35)           109.381                                          !
 ! A59   A(34,33,36)           111.3158                                         !
 ! A60   A(35,33,36)           108.8634                                         !
 ! A61   A(33,36,37)           122.4882                                         !
 ! A62   A(33,36,38)           115.5337                                         !
 ! A63   A(37,36,38)           121.8705                                         !
 ! A64   A(36,38,39)           116.6869                                         !
 ! A65   A(36,38,40)           121.0615                                         !
 ! A66   A(39,38,40)           117.8202                                         !
 ! A67   A(38,40,41)           107.5941                                         !
 ! A68   A(38,40,42)           109.4916                                         !
 ! A69   A(38,40,43)           112.5564                                         !
 ! A70   A(41,40,42)           108.3211                                         !
 ! A71   A(41,40,43)           107.1185                                         !
 ! A72   A(42,40,43)           111.5678                                         !
 ! A73   A(40,43,44)           122.4099                                         !
 ! A74   A(40,43,45)           114.6765                                         !
 ! A75   A(44,43,45)           122.8096                                         !
 ! A76   A(43,45,46)           117.7151                                         !
 ! A77   A(43,45,47)           120.7822                                         !
 ! A78   A(46,45,47)           117.7532                                         !
 ! A79   A(45,47,48)           108.4614                                         !
 ! A80   A(45,47,49)           108.5697                                         !
 ! A81   A(45,47,50)           113.577                                          !
 ! A82   A(48,47,49)           108.8999                                         !
 ! A83   A(48,47,50)           110.1688                                         !
 ! A84   A(49,47,50)           107.0633                                         !
 ! A85   A(47,50,51)           122.0495                                         !
 ! A86   A(47,50,52)           114.6064                                         !
 ! A87   A(51,50,52)           123.3152                                         !
 ! A88   A(50,52,53)           116.6009                                         !
 ! A89   A(50,52,54)           122.7012                                         !
 ! A90   A(53,52,54)           120.1764                                         !
 ! A91   A(52,54,55)           109.419                                          !
 ! A92   A(52,54,56)           107.5473                                         !
 ! A93   A(52,54,57)           113.4414                                         !
 ! A94   A(55,54,56)           109.526                                          !
 ! A95   A(55,54,57)           109.1317                                         !
 ! A96   A(56,54,57)           107.7018                                         !
 ! A97   A(54,57,58)           125.5567                                         !
 ! A98   A(54,57,59)           112.041                                          !
 ! A99   A(58,57,59)           122.4013                                         !
 ! A100  A(57,59,60)           108.3192                                         !
 ! D1    D(2,1,5,6)            178.9252                                         !
 ! D2    D(2,1,5,7)             60.8518                                         !
 ! D3    D(2,1,5,8)            -61.9558                                         !
 ! D4    D(3,1,5,6)            -60.9673                                         !
 ! D5    D(3,1,5,7)           -179.0407                                         !
 ! D6    D(3,1,5,8)             58.1518                                         !
 ! D7    D(4,1,5,6)             60.0083                                         !
 ! D8    D(4,1,5,7)            -58.0651                                         !
 ! D9    D(4,1,5,8)            179.1274                                         !
 ! D10   D(1,5,8,9)            -37.7685                                         !
 ! D11   D(1,5,8,10)           142.1623                                         !
 ! D12   D(6,5,8,9)             80.4236                                         !
 ! D13   D(6,5,8,10)           -99.6456                                         !
 ! D14   D(7,5,8,9)           -157.4285                                         !
 ! D15   D(7,5,8,10)            22.5023                                         !
 ! D16   D(5,8,10,11)          -15.1756                                         !
 ! D17   D(5,8,10,12)         -160.7522                                         !
 ! D18   D(9,8,10,11)          164.7521                                         !
 ! D19   D(9,8,10,12)           19.1755                                         !
 ! D20   D(8,10,12,13)        -175.6086                                         !
 ! D21   D(8,10,12,14)         -57.6331                                         !
 ! D22   D(8,10,12,15)          62.5008                                         !
 ! D23   D(11,10,12,13)         38.4638                                         !
 ! D24   D(11,10,12,14)        156.4392                                         !
 ! D25   D(11,10,12,15)        -83.4268                                         !
 ! D26   D(10,12,15,16)          8.5965                                         !
 ! D27   D(10,12,15,17)       -171.4166                                         !
 ! D28   D(13,12,15,16)       -112.2717                                         !
 ! D29   D(13,12,15,17)         67.7152                                         !
 ! D30   D(14,12,15,16)        128.4379                                         !
 ! D31   D(14,12,15,17)        -51.5752                                         !
 ! D32   D(12,15,17,18)          7.0185                                         !
 ! D33   D(12,15,17,19)        156.6472                                         !
 ! D34   D(16,15,17,18)       -172.995                                          !
 ! D35   D(16,15,17,19)        -23.3663                                         !
 ! D36   D(15,17,19,20)        -69.2796                                         !
 ! D37   D(15,17,19,21)        172.7892                                         !
 ! D38   D(15,17,19,22)         50.9834                                         !
 ! D39   D(18,17,19,20)         80.8377                                         !
 ! D40   D(18,17,19,21)        -37.0935                                         !
 ! D41   D(18,17,19,22)       -158.8993                                         !
 ! D42   D(17,19,22,23)       -134.4154                                         !
 ! D43   D(17,19,22,24)         48.3203                                         !
 ! D44   D(20,19,22,23)        -11.4047                                         !
 ! D45   D(20,19,22,24)        171.331                                          !
 ! D46   D(21,19,22,23)        104.519                                          !
 ! D47   D(21,19,22,24)        -72.7453                                         !
 ! D48   D(19,22,24,25)         -0.5499                                         !
 ! D49   D(19,22,24,26)        176.4179                                         !
 ! D50   D(23,22,24,25)       -177.7556                                         !
 ! D51   D(23,22,24,26)         -0.7878                                         !
 ! D52   D(22,24,26,27)       -177.561                                          !
 ! D53   D(22,24,26,28)        -58.6837                                         !
 ! D54   D(22,24,26,29)         60.9646                                         !
 ! D55   D(25,24,26,27)         -0.5991                                         !
 ! D56   D(25,24,26,28)        118.2782                                         !
 ! D57   D(25,24,26,29)       -122.0735                                         !
 ! D58   D(24,26,29,30)       -148.2451                                         !
 ! D59   D(24,26,29,31)         34.1533                                         !
 ! D60   D(27,26,29,30)         90.6928                                         !
 ! D61   D(27,26,29,31)        -86.9088                                         !
 ! D62   D(28,26,29,30)        -25.9371                                         !
 ! D63   D(28,26,29,31)        156.4613                                         !
 ! D64   D(26,29,31,32)        -21.8852                                         !
 ! D65   D(26,29,31,33)       -170.6491                                         !
 ! D66   D(30,29,31,32)        160.5727                                         !
 ! D67   D(30,29,31,33)         11.8088                                         !
 ! D68   D(29,31,33,34)        -41.4256                                         !
 ! D69   D(29,31,33,35)       -160.6161                                         !
 ! D70   D(29,31,33,36)         80.1634                                         !
 ! D71   D(32,31,33,34)        169.158                                          !
 ! D72   D(32,31,33,35)         49.9674                                         !
 ! D73   D(32,31,33,36)        -69.2531                                         !
 ! D74   D(31,33,36,37)         98.5279                                         !
 ! D75   D(31,33,36,38)        -77.762                                          !
 ! D76   D(34,33,36,37)       -141.6706                                         !
 ! D77   D(34,33,36,38)         42.0394                                         !
 ! D78   D(35,33,36,37)        -21.0233                                         !
 ! D79   D(35,33,36,38)        162.6868                                         !
 ! D80   D(33,36,38,39)          5.8739                                         !
 ! D81   D(33,36,38,40)        161.7323                                         !
 ! D82   D(37,36,38,39)       -170.4411                                         !
 ! D83   D(37,36,38,40)        -14.5827                                         !
 ! D84   D(36,38,40,41)        174.2105                                         !
 ! D85   D(36,38,40,42)        -68.2696                                         !
 ! D86   D(36,38,40,43)         56.4298                                         !
 ! D87   D(39,38,40,41)        -30.1944                                         !
 ! D88   D(39,38,40,42)         87.3255                                         !
 ! D89   D(39,38,40,43)       -147.975                                          !
 ! D90   D(38,40,43,44)         65.0048                                         !
 ! D91   D(38,40,43,45)       -118.6079                                         !
 ! D92   D(41,40,43,44)        -53.0564                                         !
 ! D93   D(41,40,43,45)        123.3309                                         !
 ! D94   D(42,40,43,44)       -171.4431                                         !
 ! D95   D(42,40,43,45)          4.9442                                         !
 ! D96   D(40,43,45,46)         20.6922                                         !
 ! D97   D(40,43,45,47)        178.3937                                         !
 ! D98   D(44,43,45,46)       -162.9367                                         !
 ! D99   D(44,43,45,47)         -5.2352                                         !
 ! D100  D(43,45,47,48)         52.3511                                         !
 ! D101  D(43,45,47,49)        170.5413                                         !
 ! D102  D(43,45,47,50)        -70.4889                                         !
 ! D103  D(46,45,47,48)       -149.9556                                         !
 ! D104  D(46,45,47,49)        -31.7654                                         !
 ! D105  D(46,45,47,50)         87.2044                                         !
 ! D106  D(45,47,50,51)        -93.4559                                         !
 ! D107  D(45,47,50,52)         88.4411                                         !
 ! D108  D(48,47,50,51)        144.6483                                         !
 ! D109  D(48,47,50,52)        -33.4547                                         !
 ! D110  D(49,47,50,51)         26.3732                                         !
 ! D111  D(49,47,50,52)       -151.7299                                         !
 ! D112  D(47,50,52,53)        -16.2166                                         !
 ! D113  D(47,50,52,54)        172.0653                                         !
 ! D114  D(51,50,52,53)        165.7075                                         !
 ! D115  D(51,50,52,54)         -6.0107                                         !
 ! D116  D(50,52,54,55)       -140.2129                                         !
 ! D117  D(50,52,54,56)        -21.3208                                         !
 ! D118  D(50,52,54,57)         97.6717                                         !
 ! D119  D(53,52,54,55)         48.3552                                         !
 ! D120  D(53,52,54,56)        167.2473                                         !
 ! D121  D(53,52,54,57)        -73.7601                                         !
 ! D122  D(52,54,57,58)        -70.5161                                         !
 ! D123  D(52,54,57,59)        109.8532                                         !
 ! D124  D(55,54,57,58)        167.2089                                         !
 ! D125  D(55,54,57,59)        -12.4217                                         !
 ! D126  D(56,54,57,58)         48.3876                                         !
 ! D127  D(56,54,57,59)       -131.243                                          !
 ! D128  D(54,57,59,60)        179.6008                                         !
 ! D129  D(58,57,59,60)         -0.0433                                         !
 --------------------------------------------------------------------------------
 Symmetry turned off by external request.
 Stoichiometry    C16H27N8O9(1+)
 Framework group  C1[X(C16H27N8O9)]
 Deg. of freedom   174
 Full point group                 C1      NOp   1
                          Input orientation:                          
 ---------------------------------------------------------------------
 Center     Atomic      Atomic             Coordinates (Angstroms)
 Number     Number       Type             X           Y           Z
 ---------------------------------------------------------------------
      1          7           0       -0.577017    1.555791   -4.567945
      2          1           0        0.158142    1.249108   -3.883183
      3          1           0       -1.478590    1.203627   -4.206634
      4          1           0       -0.376460    1.015455   -5.432731
      5          6           0       -0.584239    3.026981   -4.770573
      6          1           0       -1.355065    3.277415   -5.505016
      7          1           0        0.388610    3.326248   -5.167711
      8          6           0       -0.913877    3.667711   -3.417623
      9          8           0       -1.728649    3.136370   -2.679188
     10          7           0       -0.255539    4.825922   -3.112869
     11          1           0        0.557900    5.055738   -3.668829
     12          6           0       -0.209019    5.218858   -1.718166
     13          1           0        0.276940    6.195834   -1.634148
     14          1           0       -1.229996    5.314150   -1.338332
     15          6           0        0.552195    4.149397   -0.899188
     16          8           0        1.142934    3.235583   -1.467061
     17          7           0        0.523651    4.286538    0.455461
     18          1           0       -0.080828    5.009763    0.828487
     19          6           0        0.741329    3.137214    1.345966
     20          1           0       -0.100113    2.439826    1.290663
     21          1           0        0.799427    3.523435    2.369011
     22          6           0        1.992398    2.295223    1.065627
     23          8           0        1.922034    1.072897    1.050360
     24          7           0        3.170858    2.957177    0.896049
     25          1           0        3.195876    3.965879    0.948490
     26          6           0        4.402875    2.202242    0.705317
     27          1           0        5.233424    2.910610    0.632727
     28          1           0        4.589615    1.537968    1.552856
     29          6           0        4.392488    1.309681   -0.545372
     30          8           0        5.008019    0.248038   -0.568327
     31          7           0        3.706943    1.799536   -1.619879
     32          1           0        2.993691    2.502807   -1.445225
     33          6           0        3.471050    0.937336   -2.771573
     34          1           0        4.381771    0.366755   -2.966856
     35          1           0        3.234937    1.551843   -3.642198
     36          6           0        2.286431    0.012600   -2.482713
     37          8           0        1.137648    0.251038   -2.893351
     38          7           0        2.552366   -1.039137   -1.687562
     39          1           0        3.483152   -1.077642   -1.276109
     40          6           0        1.479519   -1.764645   -1.014492
     41          1           0        1.926453   -2.628841   -0.517483
     42          1           0        1.027521   -1.122312   -0.248994
     43          6           0        0.427510   -2.300963   -1.993504
     44          8           0        0.686877   -3.158253   -2.834028
     45          7           0       -0.829769   -1.808032   -1.804487
     46          1           0       -0.922577   -0.939166   -1.296506
     47          6           0       -1.922569   -2.200641   -2.680093
     48          1           0       -1.958689   -3.292736   -2.720435
     49          1           0       -2.857579   -1.831527   -2.255785
     50          6           0       -1.811406   -1.620050   -4.102435
     51          8           0       -2.360750   -0.561406   -4.422940
     52          7           0       -1.101065   -2.384005   -4.970776
     53          1           0       -0.509259   -3.106498   -4.563992
     54          6           0       -1.025724   -2.093181   -6.390302
     55          1           0       -1.072766   -3.026531   -6.955105
     56          1           0       -1.885908   -1.468308   -6.644840
     57          6           0        0.236191   -1.330508   -6.788065
     58          8           0        0.477579   -0.164551   -6.514370
     59          8           0        1.076539   -2.087500   -7.496079
     60          1           0        1.857866   -1.546739   -7.725996
 ---------------------------------------------------------------------
 Rotational constants (GHZ):           0.1707753           0.0954214           0.0789340
 Standard basis: 6-31G(d) (6D, 7F)
   549 basis functions,  1032 primitive gaussians,   549 cartesian basis functions
   125 alpha electrons      125 beta electrons
       nuclear repulsion energy      3890.0673639849 Hartrees.
 NAtoms=   60 NActive=   60 NUniq=   60 SFac= 1.00D+00 NAtFMM=   60 NAOKFM=T Big=T
 Integral buffers will be    131072 words long.
 Raffenetti 2 integral format.
 Two-electron integral symmetry is turned off.
 One-electron integrals computed using PRISM.
 NBasis=   549 RedAO= T EigKep=  2.47D-03  NBF=   549
 NBsUse=   549 1.00D-06 EigRej= -1.00D+00 NBFU=   549
 Initial guess from the checkpoint file:  "conf-607.chk"
 B after Tr=     0.000000    0.000000    0.000000
         Rot=    1.000000    0.000000    0.000000    0.000000 Ang=   0.00 deg.
 Requested convergence on RMS density matrix=1.00D-08 within 128 cycles.
 Requested convergence on MAX density matrix=1.00D-06.
 Requested convergence on             energy=1.00D-06.
 No special actions if energy rises.
 SCF Done:  E(RB3LYP) =  -1740.92830241     A.U. after    2 cycles
            NFock=  2  Conv=0.86D-08     -V/T= 2.0092

 **********************************************************************

            Population analysis using the SCF Density.

 **********************************************************************

 Alpha  occ. eigenvalues --  -19.31693 -19.26760 -19.25090 -19.24606 -19.23380
 Alpha  occ. eigenvalues --  -19.22723 -19.22081 -19.21498 -19.21021 -14.53154
 Alpha  occ. eigenvalues --  -14.49310 -14.49081 -14.46945 -14.46919 -14.46204
 Alpha  occ. eigenvalues --  -14.46191 -14.45211 -10.44589 -10.42037 -10.42027
 Alpha  occ. eigenvalues --  -10.39711 -10.39677 -10.39596 -10.38741 -10.38284
 Alpha  occ. eigenvalues --  -10.37480 -10.35825 -10.34639 -10.34344 -10.32806
 Alpha  occ. eigenvalues --  -10.32771 -10.32689 -10.32345  -1.22920  -1.17575
 Alpha  occ. eigenvalues --   -1.16327  -1.14826  -1.14371  -1.14152  -1.13714
 Alpha  occ. eigenvalues --   -1.13065  -1.12701  -1.08776  -1.05354  -1.05134
 Alpha  occ. eigenvalues --   -1.03190  -1.03061  -1.02583  -1.02106  -1.01037
 Alpha  occ. eigenvalues --   -0.88902  -0.87361  -0.86545  -0.85411  -0.83459
 Alpha  occ. eigenvalues --   -0.81947  -0.80407  -0.78550  -0.73851  -0.72597
 Alpha  occ. eigenvalues --   -0.71302  -0.70535  -0.69487  -0.69224  -0.68923
 Alpha  occ. eigenvalues --   -0.67828  -0.67590  -0.66936  -0.65838  -0.64093
 Alpha  occ. eigenvalues --   -0.63601  -0.62982  -0.62861  -0.62065  -0.61636
 Alpha  occ. eigenvalues --   -0.60505  -0.60199  -0.59995  -0.59495  -0.58568
 Alpha  occ. eigenvalues --   -0.58139  -0.57714  -0.57231  -0.56752  -0.56245
 Alpha  occ. eigenvalues --   -0.55670  -0.55048  -0.54680  -0.54189  -0.53768
 Alpha  occ. eigenvalues --   -0.52913  -0.52737  -0.52419  -0.52197  -0.51672
 Alpha  occ. eigenvalues --   -0.51539  -0.51286  -0.50336  -0.50301  -0.50094
 Alpha  occ. eigenvalues --   -0.49748  -0.49021  -0.48735  -0.48414  -0.47895
 Alpha  occ. eigenvalues --   -0.47713  -0.47674  -0.46424  -0.45700  -0.43944
 Alpha  occ. eigenvalues --   -0.41296  -0.40085  -0.39275  -0.38675  -0.38508
 Alpha  occ. eigenvalues --   -0.38252  -0.37874  -0.37308  -0.37111  -0.36323
 Alpha  occ. eigenvalues --   -0.35904  -0.35124  -0.34651  -0.34007  -0.33861
 Alpha virt. eigenvalues --   -0.12038  -0.11898  -0.10764  -0.09510  -0.09381
 Alpha virt. eigenvalues --   -0.08734  -0.07779  -0.07065  -0.05409  -0.03711
 Alpha virt. eigenvalues --   -0.02924  -0.01885  -0.01148  -0.00513   0.00734
 Alpha virt. eigenvalues --    0.01115   0.02003   0.02289   0.02811   0.03040
 Alpha virt. eigenvalues --    0.03558   0.04210   0.04525   0.05195   0.05243
 Alpha virt. eigenvalues --    0.05650   0.05710   0.06073   0.06557   0.07280
 Alpha virt. eigenvalues --    0.07557   0.07678   0.08335   0.08589   0.08777
 Alpha virt. eigenvalues --    0.09222   0.09388   0.09800   0.10076   0.10898
 Alpha virt. eigenvalues --    0.11559   0.11788   0.12175   0.12445   0.12901
 Alpha virt. eigenvalues --    0.14272   0.14431   0.16023   0.16246   0.16726
 Alpha virt. eigenvalues --    0.17732   0.19158   0.20215   0.21980   0.22107
 Alpha virt. eigenvalues --    0.22658   0.23372   0.24080   0.25762   0.26483
 Alpha virt. eigenvalues --    0.27045   0.28025   0.28923   0.29299   0.30083
 Alpha virt. eigenvalues --    0.32487   0.32576   0.36826   0.38205   0.39486
 Alpha virt. eigenvalues --    0.40461   0.40478   0.41130   0.41450   0.41577
 Alpha virt. eigenvalues --    0.42214   0.42605   0.42967   0.43204   0.43639
 Alpha virt. eigenvalues --    0.43986   0.44417   0.45043   0.45510   0.45789
 Alpha virt. eigenvalues --    0.46689   0.47258   0.47834   0.48497   0.48709
 Alpha virt. eigenvalues --    0.49109   0.49909   0.50070   0.50515   0.50801
 Alpha virt. eigenvalues --    0.51342   0.51895   0.52366   0.53379   0.53804
 Alpha virt. eigenvalues --    0.54498   0.54969   0.55748   0.56102   0.56764
 Alpha virt. eigenvalues --    0.57296   0.57677   0.58558   0.58843   0.59410
 Alpha virt. eigenvalues --    0.59842   0.60527   0.61032   0.61700   0.62199
 Alpha virt. eigenvalues --    0.63684   0.64778   0.65791   0.66220   0.67401
 Alpha virt. eigenvalues --    0.67727   0.67960   0.69121   0.69348   0.70562
 Alpha virt. eigenvalues --    0.70933   0.71482   0.71674   0.72391   0.72603
 Alpha virt. eigenvalues --    0.72810   0.73430   0.73726   0.74046   0.74435
 Alpha virt. eigenvalues --    0.74876   0.75272   0.75691   0.76324   0.77023
 Alpha virt. eigenvalues --    0.77778   0.78060   0.78262   0.78894   0.79353
 Alpha virt. eigenvalues --    0.79371   0.79857   0.80218   0.80544   0.80771
 Alpha virt. eigenvalues --    0.81288   0.81640   0.82085   0.82473   0.83140
 Alpha virt. eigenvalues --    0.83243   0.84633   0.84869   0.85360   0.86510
 Alpha virt. eigenvalues --    0.87574   0.88320   0.89084   0.89841   0.89901
 Alpha virt. eigenvalues --    0.91190   0.91715   0.92133   0.92723   0.93637
 Alpha virt. eigenvalues --    0.93794   0.94843   0.95268   0.96598   0.97066
 Alpha virt. eigenvalues --    0.98840   0.99441   1.00739   1.01829   1.02729
 Alpha virt. eigenvalues --    1.03452   1.04900   1.05884   1.07278   1.07611
 Alpha virt. eigenvalues --    1.07987   1.08442   1.09847   1.10204   1.11749
 Alpha virt. eigenvalues --    1.12055   1.12364   1.13233   1.14287   1.15626
 Alpha virt. eigenvalues --    1.16280   1.17620   1.18434   1.19187   1.20149
 Alpha virt. eigenvalues --    1.21055   1.21928   1.22885   1.23998   1.24329
 Alpha virt. eigenvalues --    1.25293   1.26305   1.27392   1.28041   1.28491
 Alpha virt. eigenvalues --    1.29556   1.30804   1.31196   1.31792   1.32592
 Alpha virt. eigenvalues --    1.32747   1.33208   1.34472   1.35390   1.36737
 Alpha virt. eigenvalues --    1.37754   1.38706   1.39328   1.39887   1.41062
 Alpha virt. eigenvalues --    1.41359   1.42156   1.44515   1.46152   1.46626
 Alpha virt. eigenvalues --    1.49564   1.51170   1.52641   1.53135   1.54065
 Alpha virt. eigenvalues --    1.55866   1.57270   1.57674   1.58384   1.58783
 Alpha virt. eigenvalues --    1.60020   1.60592   1.61253   1.62475   1.62728
 Alpha virt. eigenvalues --    1.63774   1.64212   1.64561   1.65304   1.65708
 Alpha virt. eigenvalues --    1.66373   1.66955   1.68349   1.69379   1.69995
 Alpha virt. eigenvalues --    1.70234   1.70933   1.71302   1.71549   1.71753
 Alpha virt. eigenvalues --    1.72109   1.73371   1.73633   1.74426   1.74771
 Alpha virt. eigenvalues --    1.75516   1.75814   1.76361   1.77298   1.77469
 Alpha virt. eigenvalues --    1.77587   1.78066   1.79072   1.79915   1.80183
 Alpha virt. eigenvalues --    1.80731   1.81152   1.81803   1.82164   1.83410
 Alpha virt. eigenvalues --    1.84298   1.84617   1.84735   1.85699   1.85888
 Alpha virt. eigenvalues --    1.86414   1.86964   1.88381   1.88798   1.89893
 Alpha virt. eigenvalues --    1.90718   1.90983   1.91254   1.92409   1.93141
 Alpha virt. eigenvalues --    1.93451   1.93759   1.95463   1.96955   1.98133
 Alpha virt. eigenvalues --    1.98571   1.99434   2.00223   2.01522   2.02259
 Alpha virt. eigenvalues --    2.05211   2.05676   2.06237   2.06547   2.08048
 Alpha virt. eigenvalues --    2.09397   2.10297   2.14000   2.14503   2.15062
 Alpha virt. eigenvalues --    2.15488   2.17126   2.20504   2.20559   2.20842
 Alpha virt. eigenvalues --    2.21602   2.21857   2.23198   2.24252   2.24922
 Alpha virt. eigenvalues --    2.25833   2.26265   2.26659   2.28751   2.29126
 Alpha virt. eigenvalues --    2.30105   2.30187   2.30519   2.31263   2.32703
 Alpha virt. eigenvalues --    2.34395   2.35149   2.36089   2.36668   2.37433
 Alpha virt. eigenvalues --    2.37477   2.38407   2.39978   2.40646   2.42273
 Alpha virt. eigenvalues --    2.42678   2.43760   2.46353   2.47374   2.48808
 Alpha virt. eigenvalues --    2.49683   2.52184   2.52992   2.53703   2.54586
 Alpha virt. eigenvalues --    2.55828   2.56388   2.57502   2.57924   2.58523
 Alpha virt. eigenvalues --    2.59480   2.60922   2.61365   2.62408   2.63342
 Alpha virt. eigenvalues --    2.65095   2.66012   2.71797   2.73278   2.76889
 Alpha virt. eigenvalues --    2.77515   2.78710   2.79768   2.80352   2.83745
 Alpha virt. eigenvalues --    2.86918   2.87866   2.88466   2.89988   2.91069
 Alpha virt. eigenvalues --    2.91614   2.92778   2.93109   2.94893   3.00453
 Alpha virt. eigenvalues --    3.01128   3.03073   3.03590   3.03765   3.05270
 Alpha virt. eigenvalues --    3.06257   3.72155   3.77616   3.80671   3.84343
 Alpha virt. eigenvalues --    3.85525   3.88330   3.89167   3.90736   3.92199
 Alpha virt. eigenvalues --    3.93920   3.98083   4.04392   4.05926   4.06235
 Alpha virt. eigenvalues --    4.08211   4.09123   4.10312   4.13890   4.15940
 Alpha virt. eigenvalues --    4.19322   4.22073   4.23240   4.24509   4.26720
 Alpha virt. eigenvalues --    4.31478   4.34871   4.38383   4.40235   4.44316
 Alpha virt. eigenvalues --    4.44863   4.45453   4.51658   4.53723
          Condensed to atoms (all electrons):
 Mulliken charges:
               1
     1  N   -0.796893
     2  H    0.434083
     3  H    0.427122
     4  H    0.430943
     5  C   -0.264599
     6  H    0.234144
     7  H    0.195080
     8  C    0.635865
     9  O   -0.493658
    10  N   -0.562803
    11  H    0.343849
    12  C   -0.261696
    13  H    0.203709
    14  H    0.220154
    15  C    0.621489
    16  O   -0.519445
    17  N   -0.603137
    18  H    0.350886
    19  C   -0.234403
    20  H    0.205726
    21  H    0.197690
    22  C    0.618201
    23  O   -0.507082
    24  N   -0.602025
    25  H    0.342635
    26  C   -0.214167
    27  H    0.192516
    28  H    0.214904
    29  C    0.607483
    30  O   -0.523317
    31  N   -0.595845
    32  H    0.386668
    33  C   -0.234609
    34  H    0.208757
    35  H    0.161694
    36  C    0.622713
    37  O   -0.576639
    38  N   -0.561125
    39  H    0.386125
    40  C   -0.231135
    41  H    0.204740
    42  H    0.198166
    43  C    0.620990
    44  O   -0.522446
    45  N   -0.566515
    46  H    0.347918
    47  C   -0.231947
    48  H    0.199810
    49  H    0.198105
    50  C    0.598471
    51  O   -0.551619
    52  N   -0.572092
    53  H    0.384941
    54  C   -0.216146
    55  H    0.209666
    56  H    0.216520
    57  C    0.601653
    58  O   -0.489325
    59  O   -0.520887
    60  H    0.430138
 Sum of Mulliken charges =   1.00000
 Mulliken charges with hydrogens summed into heavy atoms:
               1
     1  N    0.495256
     5  C    0.164625
     8  C    0.635865
     9  O   -0.493658
    10  N   -0.218954
    12  C    0.162166
    15  C    0.621489
    16  O   -0.519445
    17  N   -0.252251
    19  C    0.169013
    22  C    0.618201
    23  O   -0.507082
    24  N   -0.259389
    26  C    0.193253
    29  C    0.607483
    30  O   -0.523317
    31  N   -0.209177
    33  C    0.135842
    36  C    0.622713
    37  O   -0.576639
    38  N   -0.175000
    40  C    0.171772
    43  C    0.620990
    44  O   -0.522446
    45  N   -0.218598
    47  C    0.165967
    50  C    0.598471
    51  O   -0.551619
    52  N   -0.187150
    54  C    0.210039
    57  C    0.601653
    58  O   -0.489325
    59  O   -0.090749
 Electronic spatial extent (au):  <R**2>=          21052.3852
 Charge=              1.0000 electrons
 Dipole moment (field-independent basis, Debye):
    X=              2.5875    Y=             12.7755    Z=            -14.0949  Tot=             19.1983
 Quadrupole moment (field-independent basis, Debye-Ang):
   XX=           -177.2695   YY=           -105.1125   ZZ=            -82.5437
   XY=             23.6182   XZ=             -4.8608   YZ=             -3.3784
 Traceless Quadrupole moment (field-independent basis, Debye-Ang):
   XX=            -55.6276   YY=             16.5294   ZZ=             39.0982
   XY=             23.6182   XZ=             -4.8608   YZ=             -3.3784
 Octapole moment (field-independent basis, Debye-Ang**2):
  XXX=           -446.6821  YYY=            -97.7471  ZZZ=            711.9463  XYY=           -107.1487
  XXY=           -111.1364  XXZ=            434.8851  XZZ=            -98.9170  YZZ=           -110.2586
  YYZ=            353.6703  XYZ=            -17.1543
 Hexadecapole moment (field-independent basis, Debye-Ang**3):
 XXXX=          -5407.1488 YYYY=          -5829.6597 ZZZZ=          -8801.5261 XXXY=           -448.2035
 XXXZ=           -245.2399 YYYX=           -420.6112 YYYZ=           -634.4503 ZZZX=           -555.5938
 ZZZY=           -153.2717 XXYY=          -1897.4536 XXZZ=          -2759.0278 YYZZ=          -2751.6857
 XXYZ=             28.2682 YYXZ=             31.6863 ZZXY=           -184.2057
 N-N= 3.890067363985D+03 E-N=-1.182196916344D+04  KE= 1.725099245737D+03
 Unable to Open any file for archive entry.
 1\1\GINC-NVL-003\SP\RB3LYP\6-31G(d)\C16H27N8O9(1+)\KENGMITH\19-Jul-202
 2\0\\# B3LYP/6-31G* guess=read geom=check nosymm integral(ultrafinegri
 d)\\Candidate Structure: Conf:607 Charge calc in gas phase\\1,1\N,0,-0
 .5770173106,1.5557908291,-4.5679449998\H,0,0.1581420862,1.2491078631,-
 3.8831832347\H,0,-1.4785895393,1.2036272847,-4.2066342569\H,0,-0.37646
 02976,1.0154546269,-5.4327312382\C,0,-0.5842390423,3.0269814828,-4.770
 5725752\H,0,-1.3550646242,3.2774151623,-5.505015699\H,0,0.3886098657,3
 .3262483093,-5.1677114749\C,0,-0.9138765916,3.6677113765,-3.4176230283
 \O,0,-1.7286494499,3.1363700156,-2.6791881933\N,0,-0.2555393179,4.8259
 221888,-3.1128686302\H,0,0.5579000191,5.0557377996,-3.6688286852\C,0,-
 0.2090185744,5.2188578056,-1.7181660964\H,0,0.2769397889,6.1958344273,
 -1.6341476539\H,0,-1.2299963027,5.3141502207,-1.3383324114\C,0,0.55219
 49792,4.1493973964,-0.8991879664\O,0,1.1429338155,3.2355829785,-1.4670
 614705\N,0,0.5236508246,4.2865377037,0.4554611808\H,0,-0.0808275598,5.
 0097629121,0.8284872076\C,0,0.7413286774,3.1372137704,1.3459658299\H,0
 ,-0.1001127553,2.4398262081,1.2906633336\H,0,0.7994267474,3.5234352702
 ,2.3690108759\C,0,1.9923981863,2.2952232085,1.0656272209\O,0,1.9220341
 007,1.0728965145,1.0503603717\N,0,3.1708577073,2.9571770157,0.89604933
 71\H,0,3.1958755021,3.9658787291,0.9484898534\C,0,4.4028752665,2.20224
 21328,0.7053166946\H,0,5.2334240418,2.9106100581,0.6327268708\H,0,4.58
 96145036,1.5379676408,1.5528563546\C,0,4.3924883256,1.3096812494,-0.54
 53721355\O,0,5.0080194685,0.2480375808,-0.5683273178\N,0,3.7069433809,
 1.7995359414,-1.6198794425\H,0,2.99369058,2.5028066473,-1.445224557\C,
 0,3.4710499533,0.9373364906,-2.7715734941\H,0,4.3817709437,0.366755424
 7,-2.966855914\H,0,3.2349367047,1.5518430009,-3.6421982563\C,0,2.28643
 13059,0.0125999462,-2.4827132784\O,0,1.1376482249,0.2510382915,-2.8933
 507126\N,0,2.5523659944,-1.0391368712,-1.6875618318\H,0,3.4831519344,-
 1.077641659,-1.2761093762\C,0,1.4795188306,-1.7646452718,-1.0144920496
 \H,0,1.9264529558,-2.6288414719,-0.5174828663\H,0,1.0275212167,-1.1223
 121311,-0.2489944023\C,0,0.4275096168,-2.3009634995,-1.9935036535\O,0,
 0.6868766917,-3.158252956,-2.8340280307\N,0,-0.8297692384,-1.808032229
 4,-1.804487354\H,0,-0.9225773498,-0.93916572,-1.2965064785\C,0,-1.9225
 688393,-2.2006406222,-2.6800925995\H,0,-1.9586894653,-3.2927358823,-2.
 7204351398\H,0,-2.8575792414,-1.8315271775,-2.2557849374\C,0,-1.811405
 7397,-1.6200501795,-4.10243493\O,0,-2.3607504469,-0.5614056785,-4.4229
 395513\N,0,-1.101064697,-2.3840053742,-4.9707762838\H,0,-0.5092590453,
 -3.106498011,-4.5639916544\C,0,-1.0257237565,-2.0931809248,-6.39030233
 53\H,0,-1.0727662082,-3.0265313622,-6.9551048996\H,0,-1.88590751,-1.46
 8307776,-6.6448402398\C,0,0.2361912022,-1.3305077907,-6.7880654458\O,0
 ,0.47757939,-0.1645509641,-6.5143704247\O,0,1.0765390745,-2.0875003661
 ,-7.4960789336\H,0,1.8578655063,-1.5467394953,-7.7259962603\\Version=E
 S64L-G16RevC.01\HF=-1740.9283024\RMSD=8.605e-09\Dipole=-0.5675505,3.47
 96723,-0.8646999\Quadrupole=-41.3577647,12.2892262,29.0685385,17.55955
 63,-3.613854,-2.5117372\PG=C01 [X(C16H27N8O9)]\\@
 The archive entry for this job was punched.


 TOM, TOM, THE BURGLAR'S SON
 STOLE A MACHINE AND AWAY HE RUN
 THE JOB WAS NEAT, BUT TOM GOT BEAT
 BY THE TIME HE GOT HOME IT WAS OBSOLETE.
 Job cpu time:       0 days  0 hours  2 minutes  2.0 seconds.
 Elapsed time:       0 days  0 hours  0 minutes 31.0 seconds.
 File lengths (MBytes):  RWF=    272 Int=      0 D2E=      0 Chk=     40 Scr=     16
 Normal termination of Gaussian 16 at Tue Jul 19 19:38:12 2022.
