 Entering Gaussian System, Link 0=/opt/software/Gaussian/g16-AVX2-C.01/g16/g16
 Input=charge-conf-302.com
 Output=charge-conf-302.log
 Initial command:
 /opt/software/Gaussian/g16-AVX2-C.01/g16/l1.exe "/mnt/gs18/scratch/users/kengmith/Gau-14363.inp" -scrdir="/mnt/gs18/scratch/users/kengmith/"
 Entering Link 1 = /opt/software/Gaussian/g16-AVX2-C.01/g16/l1.exe PID=     14373.
  
 Copyright (c) 1988-2019, Gaussian, Inc.  All Rights Reserved.
  
 This is part of the Gaussian(R) 16 program.  It is based on
 the Gaussian(R) 09 system (copyright 2009, Gaussian, Inc.),
 the Gaussian(R) 03 system (copyright 2003, Gaussian, Inc.),
 the Gaussian(R) 98 system (copyright 1998, Gaussian, Inc.),
 the Gaussian(R) 94 system (copyright 1995, Gaussian, Inc.),
 the Gaussian 92(TM) system (copyright 1992, Gaussian, Inc.),
 the Gaussian 90(TM) system (copyright 1990, Gaussian, Inc.),
 the Gaussian 88(TM) system (copyright 1988, Gaussian, Inc.),
 the Gaussian 86(TM) system (copyright 1986, Carnegie Mellon
 University), and the Gaussian 82(TM) system (copyright 1983,
 Carnegie Mellon University). Gaussian is a federally registered
 trademark of Gaussian, Inc.
  
 This software contains proprietary and confidential information,
 including trade secrets, belonging to Gaussian, Inc.
  
 This software is provided under written license and may be
 used, copied, transmitted, or stored only in accord with that
 written license.
  
 The following legend is applicable only to US Government
 contracts under FAR:
  
                    RESTRICTED RIGHTS LEGEND
  
 Use, reproduction and disclosure by the US Government is
 subject to restrictions as set forth in subparagraphs (a)
 and (c) of the Commercial Computer Software - Restricted
 Rights clause in FAR 52.227-19.
  
 Gaussian, Inc.
 340 Quinnipiac St., Bldg. 40, Wallingford CT 06492
  
  
 ---------------------------------------------------------------
 Warning -- This program may not be used in any manner that
 competes with the business of Gaussian, Inc. or will provide
 assistance to any competitor of Gaussian, Inc.  The licensee
 of this program is prohibited from giving any competitor of
 Gaussian, Inc. access to this program.  By using this program,
 the user acknowledges that Gaussian, Inc. is engaged in the
 business of creating and licensing software in the field of
 computational chemistry and represents and warrants to the
 licensee that it is not a competitor of Gaussian, Inc. and that
 it will not use this program in any manner prohibited above.
 ---------------------------------------------------------------
  

 Cite this work as:
 Gaussian 16, Revision C.01,
 M. J. Frisch, G. W. Trucks, H. B. Schlegel, G. E. Scuseria, 
 M. A. Robb, J. R. Cheeseman, G. Scalmani, V. Barone, 
 G. A. Petersson, H. Nakatsuji, X. Li, M. Caricato, A. V. Marenich, 
 J. Bloino, B. G. Janesko, R. Gomperts, B. Mennucci, H. P. Hratchian, 
 J. V. Ortiz, A. F. Izmaylov, J. L. Sonnenberg, D. Williams-Young, 
 F. Ding, F. Lipparini, F. Egidi, J. Goings, B. Peng, A. Petrone, 
 T. Henderson, D. Ranasinghe, V. G. Zakrzewski, J. Gao, N. Rega, 
 G. Zheng, W. Liang, M. Hada, M. Ehara, K. Toyota, R. Fukuda, 
 J. Hasegawa, M. Ishida, T. Nakajima, Y. Honda, O. Kitao, H. Nakai, 
 T. Vreven, K. Throssell, J. A. Montgomery, Jr., J. E. Peralta, 
 F. Ogliaro, M. J. Bearpark, J. J. Heyd, E. N. Brothers, K. N. Kudin, 
 V. N. Staroverov, T. A. Keith, R. Kobayashi, J. Normand, 
 K. Raghavachari, A. P. Rendell, J. C. Burant, S. S. Iyengar, 
 J. Tomasi, M. Cossi, J. M. Millam, M. Klene, C. Adamo, R. Cammi, 
 J. W. Ochterski, R. L. Martin, K. Morokuma, O. Farkas, 
 J. B. Foresman, and D. J. Fox, Gaussian, Inc., Wallingford CT, 2019.
 
 ******************************************
 Gaussian 16:  ES64L-G16RevC.01  3-Jul-2019
                19-Jul-2022 
 ******************************************
 %mem=8gb
 %nproc=4
 Will use up to    4 processors via shared memory.
 %chk=conf-302.chk
 -------------------------------------------------------------------
 # B3LYP/6-31G* guess=read geom=check nosymm integral(ultrafinegrid)
 -------------------------------------------------------------------
 1/29=2,38=1,172=1/1;
 2/12=2,15=1,40=1/2;
 3/5=1,6=6,7=1,11=2,14=-4,25=1,30=1,74=-5,75=-5,116=-2/1,2,3;
 4/5=1/1;
 5/5=2,38=6/2;
 6/7=2,8=2,9=2,10=2,28=1/1;
 99/5=1,9=1/99;
 ------------------------------------------------------
 Candidate Structure: Conf:302 Charge calc in gas phase
 ------------------------------------------------------
 Structure from the checkpoint file:  "conf-302.chk"
 Charge =  1 Multiplicity = 1
 Redundant internal coordinates found in file.  (old form).
 N,0,-5.511595622,11.5576274804,0.6742512404
 H,0,-5.3600377204,12.5650918993,0.5753203615
 H,0,-5.6885942282,11.1121602242,-0.2904299341
 H,0,-6.3202581616,11.4111520707,1.2844556026
 C,0,-4.2846831021,10.8019850268,1.105892356
 H,0,-4.4905211942,10.261718417,2.0314980813
 H,0,-3.4613242686,11.4987888461,1.2718542076
 C,0,-4.0135345234,9.8437901057,-0.08701405
 O,0,-4.8017845138,9.9117794867,-1.0437656091
 N,0,-2.9709841989,9.0411551105,0.0178725098
 H,0,-2.3416999457,9.0157668376,0.8296301526
 C,0,-2.560326707,8.0780771451,-0.9932802079
 H,0,-3.3579992597,7.3514587242,-1.1834024917
 H,0,-2.3319209795,8.5821421084,-1.9388853628
 C,0,-1.3071466468,7.3927871349,-0.4077783123
 O,0,-0.8962016757,7.7346374326,0.7054346249
 N,0,-0.7481655946,6.4544574398,-1.1752282502
 H,0,-1.1077972609,6.188979535,-2.0929790243
 C,0,0.4318330028,5.7032169533,-0.7939766505
 H,0,0.2586035296,5.1498959106,0.1369217742
 H,0,1.2826787319,6.3733251257,-0.621315361
 C,0,0.7240638706,4.7383939672,-1.9566706856
 O,0,-0.0002578799,4.7296868794,-2.9540369296
 N,0,1.7919225616,3.9434088083,-1.7924360192
 H,0,2.3788910538,3.960935622,-0.9602765142
 C,0,2.2141378974,2.9733216504,-2.7802598152
 H,0,1.4157204659,2.2485429609,-2.983266047
 H,0,2.4532513312,3.462631646,-3.732907172
 C,0,3.453581297,2.2668462803,-2.2104360407
 O,0,3.9009709604,2.5729758853,-1.10464046
 N,0,3.9904837748,1.3170184075,-2.9972267934
 H,0,3.6106333661,1.0688782898,-3.9075624156
 C,0,5.1559518007,0.5525845935,-2.6114928055
 H,0,4.9773385917,0.013403439,-1.6722695182
 H,0,6.0180498113,1.2103872993,-2.4411902061
 C,0,5.4516087969,-0.4337697428,-3.7483715998
 O,0,4.7532912431,-0.4681756868,-4.7610674538
 N,0,6.515113335,-1.2394617671,-3.553464933
 H,0,7.0795418641,-1.2168627074,-2.7087808749
 C,0,6.9155844748,-2.2322260887,-4.5234982862
 H,0,6.1057403698,-2.9524106648,-4.7038906935
 H,0,7.1421863741,-1.7650828228,-5.4909808236
 C,0,8.1499615354,-2.9541217045,-3.9710933434
 O,0,8.6055101933,-2.678619857,-2.8673217094
 N,0,8.6902534892,-3.8908038481,-4.802773573
 H,0,8.1907797226,-4.1231978259,-5.6526340452
 C,0,9.7677253139,-4.7811442061,-4.3877972959
 H,0,10.0738360811,-4.4647765145,-3.3865734194
 H,0,9.4210783887,-5.8168657359,-4.3232772569
 C,0,10.9946094388,-4.7816848533,-5.3079964945
 O,0,11.7270082044,-5.7578744883,-5.3598788094
 N,0,11.2149352991,-3.6228999721,-5.9967495255
 H,0,10.5027085427,-2.9077190494,-5.9580337897
 C,0,12.2567378815,-3.521026921,-6.990974655
 H,0,12.9042462661,-2.6554618357,-6.8116673967
 H,0,12.8786382214,-4.4170887585,-6.8970733351
 C,0,11.7794652782,-3.4334372781,-8.4347984619
 O,0,12.5139908972,-3.2171024788,-9.3683160138
 O,0,10.4417070799,-3.6201488795,-8.5685032906
 H,0,10.2637253445,-3.5601416863,-9.5267936044
 Recover connectivity data from disk.
                           ----------------------------
                           !    Current Parameters    !
                           ! (Angstroms and Degrees)  !
 --------------------------                            --------------------------
 ! Name  Definition              Value                                          !
 --------------------------------------------------------------------------------
 ! R1    R(1,2)                  1.0236                                         !
 ! R2    R(1,3)                  1.0772                                         !
 ! R3    R(1,4)                  1.0236                                         !
 ! R4    R(1,5)                  1.5042                                         !
 ! R5    R(5,6)                  1.0913                                         !
 ! R6    R(5,7)                  1.0913                                         !
 ! R7    R(5,8)                  1.5539                                         !
 ! R8    R(8,9)                  1.2415                                         !
 ! R9    R(8,10)                 1.3199                                         !
 ! R10   R(10,11)                1.0274                                         !
 ! R11   R(10,12)                1.4555                                         !
 ! R12   R(12,13)                1.0956                                         !
 ! R13   R(12,14)                1.0956                                         !
 ! R14   R(12,15)                1.5437                                         !
 ! R15   R(15,16)                1.2349                                         !
 ! R16   R(15,17)                1.3349                                         !
 ! R17   R(17,18)                1.0208                                         !
 ! R18   R(17,19)                1.4499                                         !
 ! R19   R(19,20)                1.0967                                         !
 ! R20   R(19,21)                1.0967                                         !
 ! R21   R(19,22)                1.5389                                         !
 ! R22   R(22,23)                1.2327                                         !
 ! R23   R(22,24)                1.3414                                         !
 ! R24   R(24,25)                1.0185                                         !
 ! R25   R(24,26)                1.4475                                         !
 ! R26   R(26,27)                1.0973                                         !
 ! R27   R(26,28)                1.0973                                         !
 ! R28   R(26,29)                1.5362                                         !
 ! R29   R(29,30)                1.2315                                         !
 ! R30   R(29,31)                1.3452                                         !
 ! R31   R(31,32)                1.0171                                         !
 ! R32   R(31,33)                1.4462                                         !
 ! R33   R(33,34)                1.0976                                         !
 ! R34   R(33,35)                1.0977                                         !
 ! R35   R(33,36)                1.5339                                         !
 ! R36   R(36,37)                1.2306                                         !
 ! R37   R(36,38)                1.3484                                         !
 ! R38   R(38,39)                1.0162                                         !
 ! R39   R(38,40)                1.4446                                         !
 ! R40   R(40,41)                1.0987                                         !
 ! R41   R(40,42)                1.098                                          !
 ! R42   R(40,43)                1.533                                          !
 ! R43   R(43,44)                1.2255                                         !
 ! R44   R(43,45)                1.3642                                         !
 ! R45   R(45,46)                1.0128                                         !
 ! R46   R(45,47)                1.458                                          !
 ! R47   R(47,48)                1.0937                                         !
 ! R48   R(47,49)                1.0941                                         !
 ! R49   R(47,50)                1.5336                                         !
 ! R50   R(50,51)                1.2215                                         !
 ! R51   R(50,52)                1.3659                                         !
 ! R52   R(52,53)                1.0101                                         !
 ! R53   R(52,54)                1.4437                                         !
 ! R54   R(54,55)                1.0957                                         !
 ! R55   R(54,56)                1.0948                                         !
 ! R56   R(54,57)                1.5232                                         !
 ! R57   R(57,58)                1.2074                                         !
 ! R58   R(57,59)                1.3573                                         !
 ! R59   R(59,60)                0.9765                                         !
 ! A1    A(2,1,3)              110.1694                                         !
 ! A2    A(2,1,4)              108.3872                                         !
 ! A3    A(2,1,5)              113.666                                          !
 ! A4    A(3,1,4)              110.1744                                         !
 ! A5    A(3,1,5)              100.5597                                         !
 ! A6    A(4,1,5)              113.668                                          !
 ! A7    A(1,5,6)              109.7691                                         !
 ! A8    A(1,5,7)              109.7713                                         !
 ! A9    A(1,5,8)              103.4033                                         !
 ! A10   A(6,5,7)              109.2327                                         !
 ! A11   A(6,5,8)              112.2559                                         !
 ! A12   A(7,5,8)              112.2598                                         !
 ! A13   A(5,8,9)              116.554                                          !
 ! A14   A(5,8,10)             116.859                                          !
 ! A15   A(9,8,10)             126.587                                          !
 ! A16   A(8,10,11)            124.1665                                         !
 ! A17   A(8,10,12)            124.7507                                         !
 ! A18   A(11,10,12)           111.0829                                         !
 ! A19   A(10,12,13)           110.7294                                         !
 ! A20   A(10,12,14)           110.7305                                         !
 ! A21   A(10,12,15)           105.0278                                         !
 ! A22   A(13,12,14)           107.886                                          !
 ! A23   A(13,12,15)           111.2506                                         !
 ! A24   A(14,12,15)           111.245                                          !
 ! A25   A(12,15,16)           119.2867                                         !
 ! A26   A(12,15,17)           115.7182                                         !
 ! A27   A(16,15,17)           124.9951                                         !
 ! A28   A(15,17,18)           123.5149                                         !
 ! A29   A(15,17,19)           123.6315                                         !
 ! A30   A(18,17,19)           112.8536                                         !
 ! A31   A(17,19,20)           110.859                                          !
 ! A32   A(17,19,21)           110.8677                                         !
 ! A33   A(17,19,22)           106.3041                                         !
 ! A34   A(20,19,21)           107.2887                                         !
 ! A35   A(20,19,22)           110.7931                                         !
 ! A36   A(21,19,22)           110.7755                                         !
 ! A37   A(19,22,23)           120.2761                                         !
 ! A38   A(19,22,24)           115.4834                                         !
 ! A39   A(23,22,24)           124.2405                                         !
 ! A40   A(22,24,25)           123.2733                                         !
 ! A41   A(22,24,26)           123.0835                                         !
 ! A42   A(25,24,26)           113.6423                                         !
 ! A43   A(24,26,27)           110.8978                                         !
 ! A44   A(24,26,28)           110.9274                                         !
 ! A45   A(24,26,29)           106.8826                                         !
 ! A46   A(27,26,28)           107.0063                                         !
 ! A47   A(27,26,29)           110.6054                                         !
 ! A48   A(28,26,29)           110.5651                                         !
 ! A49   A(26,29,30)           120.7861                                         !
 ! A50   A(26,29,31)           115.4542                                         !
 ! A51   A(30,29,31)           123.7597                                         !
 ! A52   A(29,31,32)           123.1401                                         !
 ! A53   A(29,31,33)           122.6078                                         !
 ! A54   A(32,31,33)           114.2503                                         !
 ! A55   A(31,33,34)           110.9007                                         !
 ! A56   A(31,33,35)           110.9496                                         !
 ! A57   A(31,33,36)           107.3104                                         !
 ! A58   A(34,33,35)           106.8232                                         !
 ! A59   A(34,33,36)           110.4692                                         !
 ! A60   A(35,33,36)           110.4238                                         !
 ! A61   A(33,36,37)           121.234                                          !
 ! A62   A(33,36,38)           115.4118                                         !
 ! A63   A(37,36,38)           123.3541                                         !
 ! A64   A(36,38,39)           123.0221                                         !
 ! A65   A(36,38,40)           122.1548                                         !
 ! A66   A(39,38,40)           114.8013                                         !
 ! A67   A(38,40,41)           110.8786                                         !
 ! A68   A(38,40,42)           110.8854                                         !
 ! A69   A(38,40,43)           107.7505                                         !
 ! A70   A(41,40,42)           106.6388                                         !
 ! A71   A(41,40,43)           110.1222                                         !
 ! A72   A(42,40,43)           110.5907                                         !
 ! A73   A(40,43,44)           121.2004                                         !
 ! A74   A(40,43,45)           114.9968                                         !
 ! A75   A(44,43,45)           123.7973                                         !
 ! A76   A(43,45,46)           118.282                                          !
 ! A77   A(43,45,47)           122.5783                                         !
 ! A78   A(46,45,47)           117.5909                                         !
 ! A79   A(45,47,48)           106.9021                                         !
 ! A80   A(45,47,49)           111.1439                                         !
 ! A81   A(45,47,50)           114.8742                                         !
 ! A82   A(48,47,49)           107.9697                                         !
 ! A83   A(48,47,50)           108.9941                                         !
 ! A84   A(49,47,50)           106.769                                          !
 ! A85   A(47,50,51)           120.3602                                         !
 ! A86   A(47,50,52)           115.5499                                         !
 ! A87   A(51,50,52)           124.0459                                         !
 ! A88   A(50,52,53)           117.8796                                         !
 ! A89   A(50,52,54)           121.5691                                         !
 ! A90   A(53,52,54)           119.0302                                         !
 ! A91   A(52,54,55)           111.6839                                         !
 ! A92   A(52,54,56)           107.0441                                         !
 ! A93   A(52,54,57)           115.5143                                         !
 ! A94   A(55,54,56)           107.2679                                         !
 ! A95   A(55,54,57)           107.1488                                         !
 ! A96   A(56,54,57)           107.8406                                         !
 ! A97   A(54,57,58)           123.5434                                         !
 ! A98   A(54,57,59)           113.2214                                         !
 ! A99   A(58,57,59)           123.235                                          !
 ! A100  A(57,59,60)           105.5362                                         !
 ! D1    D(2,1,5,6)            122.3643                                         !
 ! D2    D(2,1,5,7)              2.2877                                         !
 ! D3    D(2,1,5,8)           -117.6768                                         !
 ! D4    D(3,1,5,6)           -119.9487                                         !
 ! D5    D(3,1,5,7)            119.9747                                         !
 ! D6    D(3,1,5,8)              0.0102                                         !
 ! D7    D(4,1,5,6)             -2.255                                          !
 ! D8    D(4,1,5,7)           -122.3315                                         !
 ! D9    D(4,1,5,8)            117.7039                                         !
 ! D10   D(1,5,8,9)             -0.0077                                         !
 ! D11   D(1,5,8,10)           179.9898                                         !
 ! D12   D(6,5,8,9)            118.2349                                         !
 ! D13   D(6,5,8,10)           -61.7675                                         !
 ! D14   D(7,5,8,9)           -118.2549                                         !
 ! D15   D(7,5,8,10)            61.7427                                         !
 ! D16   D(5,8,10,11)            0.0289                                         !
 ! D17   D(5,8,10,12)          179.9836                                         !
 ! D18   D(9,8,10,11)         -179.9738                                         !
 ! D19   D(9,8,10,12)           -0.0191                                         !
 ! D20   D(8,10,12,13)         -59.7332                                         !
 ! D21   D(8,10,12,14)          59.8938                                         !
 ! D22   D(8,10,12,15)        -179.9227                                         !
 ! D23   D(11,10,12,13)        120.2266                                         !
 ! D24   D(11,10,12,14)       -120.1464                                         !
 ! D25   D(11,10,12,15)          0.0371                                         !
 ! D26   D(10,12,15,16)         -0.0389                                         !
 ! D27   D(10,12,15,17)        179.9601                                         !
 ! D28   D(13,12,15,16)       -119.8824                                         !
 ! D29   D(13,12,15,17)         60.1166                                         !
 ! D30   D(14,12,15,16)        119.8028                                         !
 ! D31   D(14,12,15,17)        -60.1982                                         !
 ! D32   D(12,15,17,18)         -0.0474                                         !
 ! D33   D(12,15,17,19)       -179.9548                                         !
 ! D34   D(16,15,17,18)        179.9515                                         !
 ! D35   D(16,15,17,19)          0.0442                                         !
 ! D36   D(15,17,19,20)         59.3448                                         !
 ! D37   D(15,17,19,21)        -59.7081                                         !
 ! D38   D(15,17,19,22)        179.8265                                         !
 ! D39   D(18,17,19,20)       -120.5714                                         !
 ! D40   D(18,17,19,21)        120.3758                                         !
 ! D41   D(18,17,19,22)         -0.0896                                         !
 ! D42   D(17,19,22,23)          0.1135                                         !
 ! D43   D(17,19,22,24)       -179.897                                          !
 ! D44   D(20,19,22,23)        120.6378                                         !
 ! D45   D(20,19,22,24)        -59.3727                                         !
 ! D46   D(21,19,22,23)       -120.4115                                         !
 ! D47   D(21,19,22,24)         59.578                                          !
 ! D48   D(19,22,24,25)          0.2124                                         !
 ! D49   D(19,22,24,26)        179.8584                                         !
 ! D50   D(23,22,24,25)       -179.7986                                         !
 ! D51   D(23,22,24,26)         -0.1526                                         !
 ! D52   D(22,24,26,27)        -58.8283                                         !
 ! D53   D(22,24,26,28)         59.9351                                         !
 ! D54   D(22,24,26,29)       -179.4626                                         !
 ! D55   D(25,24,26,27)        120.8486                                         !
 ! D56   D(25,24,26,28)       -120.388                                          !
 ! D57   D(25,24,26,29)          0.2144                                         !
 ! D58   D(24,26,29,30)         -0.2102                                         !
 ! D59   D(24,26,29,31)        179.8085                                         !
 ! D60   D(27,26,29,30)       -121.0308                                         !
 ! D61   D(27,26,29,31)         58.9879                                         !
 ! D62   D(28,26,29,30)        120.6231                                         !
 ! D63   D(28,26,29,31)        -59.3582                                         !
 ! D64   D(26,29,31,32)         -0.2965                                         !
 ! D65   D(26,29,31,33)       -179.7854                                         !
 ! D66   D(30,29,31,32)        179.7228                                         !
 ! D67   D(30,29,31,33)          0.2339                                         !
 ! D68   D(29,31,33,34)         58.5294                                         !
 ! D69   D(29,31,33,35)        -60.0214                                         !
 ! D70   D(29,31,33,36)        179.2674                                         !
 ! D71   D(32,31,33,34)       -121.0012                                         !
 ! D72   D(32,31,33,35)        120.448                                          !
 ! D73   D(32,31,33,36)         -0.2632                                         !
 ! D74   D(31,33,36,37)          0.3392                                         !
 ! D75   D(31,33,36,38)       -179.7659                                         !
 ! D76   D(34,33,36,37)        121.3497                                         !
 ! D77   D(34,33,36,38)        -58.7554                                         !
 ! D78   D(35,33,36,37)       -120.704                                          !
 ! D79   D(35,33,36,38)         59.1909                                         !
 ! D80   D(33,36,38,39)          1.1058                                         !
 ! D81   D(33,36,38,40)        179.317                                          !
 ! D82   D(37,36,38,39)       -179.0017                                         !
 ! D83   D(37,36,38,40)         -0.7906                                         !
 ! D84   D(36,38,40,41)        -59.3627                                         !
 ! D85   D(36,38,40,42)         58.9027                                         !
 ! D86   D(36,38,40,43)       -179.9404                                         !
 ! D87   D(39,38,40,41)        118.985                                          !
 ! D88   D(39,38,40,42)       -122.7496                                         !
 ! D89   D(39,38,40,43)         -1.5926                                         !
 ! D90   D(38,40,43,44)          1.9144                                         !
 ! D91   D(38,40,43,45)       -177.2612                                         !
 ! D92   D(41,40,43,44)       -119.1375                                         !
 ! D93   D(41,40,43,45)         61.6869                                         !
 ! D94   D(42,40,43,44)        123.2552                                         !
 ! D95   D(42,40,43,45)        -55.9204                                         !
 ! D96   D(40,43,45,46)         -7.3106                                         !
 ! D97   D(40,43,45,47)       -172.7644                                         !
 ! D98   D(44,43,45,46)        173.5379                                         !
 ! D99   D(44,43,45,47)          8.0842                                         !
 ! D100  D(43,45,47,48)         -5.6026                                         !
 ! D101  D(43,45,47,49)        111.9935                                         !
 ! D102  D(43,45,47,50)       -126.6554                                         !
 ! D103  D(46,45,47,48)       -171.1511                                         !
 ! D104  D(46,45,47,49)        -53.555                                          !
 ! D105  D(46,45,47,50)         67.7961                                         !
 ! D106  D(45,47,50,51)       -154.4757                                         !
 ! D107  D(45,47,50,52)         27.84                                           !
 ! D108  D(48,47,50,51)         85.623                                          !
 ! D109  D(48,47,50,52)        -92.0613                                         !
 ! D110  D(49,47,50,51)        -30.7678                                         !
 ! D111  D(49,47,50,52)        151.5479                                         !
 ! D112  D(47,50,52,53)         -8.3598                                         !
 ! D113  D(47,50,52,54)       -174.1511                                         !
 ! D114  D(51,50,52,53)        174.0518                                         !
 ! D115  D(51,50,52,54)          8.2605                                         !
 ! D116  D(50,52,54,55)       -128.1929                                         !
 ! D117  D(50,52,54,56)        -11.0624                                         !
 ! D118  D(50,52,54,57)        109.0298                                         !
 ! D119  D(53,52,54,55)         66.1746                                         !
 ! D120  D(53,52,54,56)       -176.6949                                         !
 ! D121  D(53,52,54,57)        -56.6027                                         !
 ! D122  D(52,54,57,58)        172.71                                           !
 ! D123  D(52,54,57,59)         -7.1445                                         !
 ! D124  D(55,54,57,58)         47.5587                                         !
 ! D125  D(55,54,57,59)       -132.2958                                         !
 ! D126  D(56,54,57,58)        -67.6335                                         !
 ! D127  D(56,54,57,59)        112.512                                          !
 ! D128  D(54,57,59,60)       -178.8607                                         !
 ! D129  D(58,57,59,60)          1.2843                                         !
 --------------------------------------------------------------------------------
 Symmetry turned off by external request.
 Stoichiometry    C16H27N8O9(1+)
 Framework group  C1[X(C16H27N8O9)]
 Deg. of freedom   174
 Full point group                 C1      NOp   1
                          Input orientation:                          
 ---------------------------------------------------------------------
 Center     Atomic      Atomic             Coordinates (Angstroms)
 Number     Number       Type             X           Y           Z
 ---------------------------------------------------------------------
      1          7           0       -5.511596   11.557627    0.674251
      2          1           0       -5.360038   12.565092    0.575320
      3          1           0       -5.688594   11.112160   -0.290430
      4          1           0       -6.320258   11.411152    1.284456
      5          6           0       -4.284683   10.801985    1.105892
      6          1           0       -4.490521   10.261718    2.031498
      7          1           0       -3.461324   11.498789    1.271854
      8          6           0       -4.013535    9.843790   -0.087014
      9          8           0       -4.801785    9.911779   -1.043766
     10          7           0       -2.970984    9.041155    0.017873
     11          1           0       -2.341700    9.015767    0.829630
     12          6           0       -2.560327    8.078077   -0.993280
     13          1           0       -3.357999    7.351459   -1.183402
     14          1           0       -2.331921    8.582142   -1.938885
     15          6           0       -1.307147    7.392787   -0.407778
     16          8           0       -0.896202    7.734637    0.705435
     17          7           0       -0.748166    6.454457   -1.175228
     18          1           0       -1.107797    6.188980   -2.092979
     19          6           0        0.431833    5.703217   -0.793977
     20          1           0        0.258604    5.149896    0.136922
     21          1           0        1.282679    6.373325   -0.621315
     22          6           0        0.724064    4.738394   -1.956671
     23          8           0       -0.000258    4.729687   -2.954037
     24          7           0        1.791923    3.943409   -1.792436
     25          1           0        2.378891    3.960936   -0.960277
     26          6           0        2.214138    2.973322   -2.780260
     27          1           0        1.415720    2.248543   -2.983266
     28          1           0        2.453251    3.462632   -3.732907
     29          6           0        3.453581    2.266846   -2.210436
     30          8           0        3.900971    2.572976   -1.104640
     31          7           0        3.990484    1.317018   -2.997227
     32          1           0        3.610633    1.068878   -3.907562
     33          6           0        5.155952    0.552585   -2.611493
     34          1           0        4.977339    0.013403   -1.672270
     35          1           0        6.018050    1.210387   -2.441190
     36          6           0        5.451609   -0.433770   -3.748372
     37          8           0        4.753291   -0.468176   -4.761067
     38          7           0        6.515113   -1.239462   -3.553465
     39          1           0        7.079542   -1.216863   -2.708781
     40          6           0        6.915584   -2.232226   -4.523498
     41          1           0        6.105740   -2.952411   -4.703891
     42          1           0        7.142186   -1.765083   -5.490981
     43          6           0        8.149962   -2.954122   -3.971093
     44          8           0        8.605510   -2.678620   -2.867322
     45          7           0        8.690253   -3.890804   -4.802774
     46          1           0        8.190780   -4.123198   -5.652634
     47          6           0        9.767725   -4.781144   -4.387797
     48          1           0       10.073836   -4.464777   -3.386573
     49          1           0        9.421078   -5.816866   -4.323277
     50          6           0       10.994609   -4.781685   -5.307996
     51          8           0       11.727008   -5.757874   -5.359879
     52          7           0       11.214935   -3.622900   -5.996750
     53          1           0       10.502709   -2.907719   -5.958034
     54          6           0       12.256738   -3.521027   -6.990975
     55          1           0       12.904246   -2.655462   -6.811667
     56          1           0       12.878638   -4.417089   -6.897073
     57          6           0       11.779465   -3.433437   -8.434798
     58          8           0       12.513991   -3.217102   -9.368316
     59          8           0       10.441707   -3.620149   -8.568503
     60          1           0       10.263725   -3.560142   -9.526794
 ---------------------------------------------------------------------
 Rotational constants (GHZ):           0.4844217           0.0161157           0.0158409
 Standard basis: 6-31G(d) (6D, 7F)
   549 basis functions,  1032 primitive gaussians,   549 cartesian basis functions
   125 alpha electrons      125 beta electrons
       nuclear repulsion energy      2939.1241584394 Hartrees.
 NAtoms=   60 NActive=   60 NUniq=   60 SFac= 1.00D+00 NAtFMM=   60 NAOKFM=T Big=T
 Integral buffers will be    131072 words long.
 Raffenetti 2 integral format.
 Two-electron integral symmetry is turned off.
 One-electron integrals computed using PRISM.
 NBasis=   549 RedAO= T EigKep=  1.87D-03  NBF=   549
 NBsUse=   549 1.00D-06 EigRej= -1.00D+00 NBFU=   549
 Initial guess from the checkpoint file:  "conf-302.chk"
 B after Tr=     0.000000    0.000000    0.000000
         Rot=    1.000000    0.000000    0.000000    0.000000 Ang=   0.00 deg.
 Requested convergence on RMS density matrix=1.00D-08 within 128 cycles.
 Requested convergence on MAX density matrix=1.00D-06.
 Requested convergence on             energy=1.00D-06.
 No special actions if energy rises.
 SCF Done:  E(RB3LYP) =  -1740.88678105     A.U. after    1 cycles
            NFock=  1  Conv=0.72D-08     -V/T= 2.0091

 **********************************************************************

            Population analysis using the SCF Density.

 **********************************************************************

 Alpha  occ. eigenvalues --  -19.28679 -19.25065 -19.22777 -19.20099 -19.19558
 Alpha  occ. eigenvalues --  -19.18919 -19.18744 -19.18742 -19.16330 -14.62113
 Alpha  occ. eigenvalues --  -14.50994 -14.46141 -14.44051 -14.43851 -14.42900
 Alpha  occ. eigenvalues --  -14.42897 -14.41547 -10.45489 -10.42587 -10.40024
 Alpha  occ. eigenvalues --  -10.37381 -10.37190 -10.36847 -10.36201 -10.36012
 Alpha  occ. eigenvalues --  -10.35465 -10.34012 -10.32096 -10.30498 -10.30438
 Alpha  occ. eigenvalues --  -10.29935 -10.28755 -10.28469  -1.21145  -1.15734
 Alpha  occ. eigenvalues --   -1.15657  -1.14720  -1.12116  -1.11704  -1.10998
 Alpha  occ. eigenvalues --   -1.10283  -1.08483  -1.07500  -1.06594  -1.02637
 Alpha  occ. eigenvalues --   -1.00358  -1.00169  -0.99537  -0.99147  -0.97576
 Alpha  occ. eigenvalues --   -0.92019  -0.86671  -0.84303  -0.83186  -0.81406
 Alpha  occ. eigenvalues --   -0.79651  -0.77497  -0.76038  -0.75894  -0.75265
 Alpha  occ. eigenvalues --   -0.73439  -0.69556  -0.68076  -0.67490  -0.67073
 Alpha  occ. eigenvalues --   -0.66730  -0.65897  -0.65226  -0.64839  -0.64255
 Alpha  occ. eigenvalues --   -0.62988  -0.62509  -0.61394  -0.59976  -0.59341
 Alpha  occ. eigenvalues --   -0.59033  -0.57845  -0.56630  -0.56543  -0.55604
 Alpha  occ. eigenvalues --   -0.55528  -0.54992  -0.54636  -0.54478  -0.53838
 Alpha  occ. eigenvalues --   -0.53392  -0.53148  -0.53001  -0.52585  -0.52374
 Alpha  occ. eigenvalues --   -0.51874  -0.50789  -0.50681  -0.50004  -0.49829
 Alpha  occ. eigenvalues --   -0.48314  -0.47983  -0.47758  -0.47415  -0.46526
 Alpha  occ. eigenvalues --   -0.46337  -0.45739  -0.45584  -0.44913  -0.44489
 Alpha  occ. eigenvalues --   -0.43857  -0.43777  -0.43282  -0.41985  -0.41655
 Alpha  occ. eigenvalues --   -0.40930  -0.37440  -0.36747  -0.36049  -0.34696
 Alpha  occ. eigenvalues --   -0.34413  -0.34106  -0.33867  -0.33820  -0.33340
 Alpha  occ. eigenvalues --   -0.32860  -0.32298  -0.31695  -0.30105  -0.29864
 Alpha virt. eigenvalues --   -0.13708  -0.13341  -0.08364  -0.07694  -0.06245
 Alpha virt. eigenvalues --   -0.05642  -0.05309  -0.04548  -0.03919  -0.03591
 Alpha virt. eigenvalues --   -0.02767  -0.02652  -0.01859   0.00238   0.00386
 Alpha virt. eigenvalues --    0.01204   0.01663   0.02584   0.02924   0.03089
 Alpha virt. eigenvalues --    0.03294   0.03672   0.04960   0.05251   0.05503
 Alpha virt. eigenvalues --    0.06356   0.06825   0.06996   0.07180   0.08603
 Alpha virt. eigenvalues --    0.08973   0.09601   0.09648   0.10400   0.10842
 Alpha virt. eigenvalues --    0.10913   0.11564   0.12281   0.12373   0.12852
 Alpha virt. eigenvalues --    0.14085   0.14127   0.14404   0.15024   0.15272
 Alpha virt. eigenvalues --    0.16581   0.17242   0.17991   0.19107   0.20653
 Alpha virt. eigenvalues --    0.21190   0.22934   0.23895   0.24494   0.25271
 Alpha virt. eigenvalues --    0.25484   0.25952   0.27119   0.27825   0.28773
 Alpha virt. eigenvalues --    0.28856   0.29465   0.31184   0.32821   0.33002
 Alpha virt. eigenvalues --    0.33705   0.34876   0.35828   0.36661   0.38196
 Alpha virt. eigenvalues --    0.41341   0.42809   0.42834   0.44366   0.45039
 Alpha virt. eigenvalues --    0.45479   0.45709   0.45868   0.46395   0.46969
 Alpha virt. eigenvalues --    0.47029   0.47611   0.47847   0.47956   0.48193
 Alpha virt. eigenvalues --    0.48704   0.49243   0.49830   0.49965   0.50834
 Alpha virt. eigenvalues --    0.50978   0.51687   0.52301   0.53408   0.54167
 Alpha virt. eigenvalues --    0.55154   0.56032   0.56234   0.56878   0.57823
 Alpha virt. eigenvalues --    0.58398   0.58539   0.59255   0.59641   0.60809
 Alpha virt. eigenvalues --    0.61192   0.61534   0.62460   0.62731   0.63048
 Alpha virt. eigenvalues --    0.63220   0.63467   0.63670   0.64466   0.64643
 Alpha virt. eigenvalues --    0.65605   0.65746   0.66617   0.67039   0.67174
 Alpha virt. eigenvalues --    0.67410   0.68807   0.69482   0.70118   0.70241
 Alpha virt. eigenvalues --    0.71838   0.72137   0.72278   0.72632   0.73197
 Alpha virt. eigenvalues --    0.73282   0.73764   0.74265   0.74670   0.75109
 Alpha virt. eigenvalues --    0.75483   0.75946   0.76089   0.76643   0.77025
 Alpha virt. eigenvalues --    0.77271   0.77729   0.78154   0.78418   0.78773
 Alpha virt. eigenvalues --    0.79276   0.79773   0.80220   0.80297   0.80620
 Alpha virt. eigenvalues --    0.81176   0.81377   0.82205   0.82449   0.83016
 Alpha virt. eigenvalues --    0.83061   0.83711   0.84492   0.84650   0.85163
 Alpha virt. eigenvalues --    0.85569   0.85575   0.86388   0.86723   0.87684
 Alpha virt. eigenvalues --    0.88536   0.89317   0.90195   0.91277   0.91640
 Alpha virt. eigenvalues --    0.93024   0.94268   0.94652   0.94711   0.96660
 Alpha virt. eigenvalues --    0.97208   0.98587   0.98886   1.00340   1.00774
 Alpha virt. eigenvalues --    1.01143   1.01265   1.01851   1.01978   1.03538
 Alpha virt. eigenvalues --    1.04263   1.04837   1.07965   1.10192   1.11568
 Alpha virt. eigenvalues --    1.12317   1.13339   1.14361   1.15112   1.16265
 Alpha virt. eigenvalues --    1.18010   1.18424   1.19222   1.19785   1.21130
 Alpha virt. eigenvalues --    1.21637   1.22293   1.22719   1.23141   1.23379
 Alpha virt. eigenvalues --    1.24386   1.24477   1.25361   1.26150   1.26576
 Alpha virt. eigenvalues --    1.29485   1.29773   1.30666   1.32720   1.34105
 Alpha virt. eigenvalues --    1.34305   1.34857   1.36031   1.36400   1.36862
 Alpha virt. eigenvalues --    1.37276   1.38211   1.38582   1.40914   1.41674
 Alpha virt. eigenvalues --    1.42537   1.43561   1.45573   1.45641   1.47902
 Alpha virt. eigenvalues --    1.48599   1.50020   1.50803   1.52588   1.55843
 Alpha virt. eigenvalues --    1.56080   1.56523   1.60333   1.61476   1.62256
 Alpha virt. eigenvalues --    1.63223   1.63539   1.64680   1.66005   1.66451
 Alpha virt. eigenvalues --    1.66727   1.67601   1.67862   1.67912   1.68382
 Alpha virt. eigenvalues --    1.68789   1.68977   1.69426   1.69936   1.70154
 Alpha virt. eigenvalues --    1.70333   1.71028   1.71975   1.72889   1.73327
 Alpha virt. eigenvalues --    1.74175   1.75493   1.75564   1.76289   1.76509
 Alpha virt. eigenvalues --    1.77298   1.77842   1.78585   1.78846   1.79055
 Alpha virt. eigenvalues --    1.79139   1.79453   1.79999   1.80618   1.80859
 Alpha virt. eigenvalues --    1.81830   1.82144   1.82447   1.83466   1.84224
 Alpha virt. eigenvalues --    1.84447   1.84503   1.85220   1.86304   1.86839
 Alpha virt. eigenvalues --    1.87395   1.89397   1.89515   1.89809   1.90638
 Alpha virt. eigenvalues --    1.92170   1.93157   1.94421   1.94693   1.94973
 Alpha virt. eigenvalues --    1.95650   1.96954   1.97787   1.98630   1.99360
 Alpha virt. eigenvalues --    1.99768   2.00134   2.01259   2.01642   2.03046
 Alpha virt. eigenvalues --    2.03292   2.03718   2.04294   2.07202   2.07874
 Alpha virt. eigenvalues --    2.08263   2.11268   2.12457   2.14261   2.14398
 Alpha virt. eigenvalues --    2.15560   2.16371   2.17323   2.18615   2.19721
 Alpha virt. eigenvalues --    2.20403   2.20863   2.23216   2.24184   2.24345
 Alpha virt. eigenvalues --    2.26149   2.27149   2.27749   2.27959   2.28638
 Alpha virt. eigenvalues --    2.30529   2.31015   2.31369   2.32807   2.33069
 Alpha virt. eigenvalues --    2.34875   2.35653   2.36570   2.36881   2.38951
 Alpha virt. eigenvalues --    2.39179   2.40007   2.41883   2.42995   2.43873
 Alpha virt. eigenvalues --    2.45641   2.46108   2.47220   2.51379   2.51974
 Alpha virt. eigenvalues --    2.53850   2.55862   2.56335   2.57135   2.58102
 Alpha virt. eigenvalues --    2.59019   2.59759   2.60662   2.62419   2.63085
 Alpha virt. eigenvalues --    2.65091   2.65736   2.66590   2.67495   2.69444
 Alpha virt. eigenvalues --    2.71840   2.74138   2.74190   2.77249   2.77953
 Alpha virt. eigenvalues --    2.80265   2.80765   2.82857   2.84665   2.85892
 Alpha virt. eigenvalues --    2.87387   2.88003   2.89183   2.89975   2.91526
 Alpha virt. eigenvalues --    2.92998   2.94367   2.96715   3.02345   3.04036
 Alpha virt. eigenvalues --    3.05937   3.08656   3.10387   3.12355   3.14862
 Alpha virt. eigenvalues --    3.15964   3.60887   3.72493   3.87005   3.89814
 Alpha virt. eigenvalues --    3.91460   3.92614   3.93219   3.93975   3.94762
 Alpha virt. eigenvalues --    3.97492   3.99191   4.00486   4.00810   4.02831
 Alpha virt. eigenvalues --    4.03710   4.05430   4.08615   4.09884   4.11461
 Alpha virt. eigenvalues --    4.16833   4.18375   4.20189   4.21575   4.22078
 Alpha virt. eigenvalues --    4.25909   4.31340   4.38871   4.40893   4.44024
 Alpha virt. eigenvalues --    4.47560   4.48159   4.51040   4.54193
          Condensed to atoms (all electrons):
 Mulliken charges:
               1
     1  N   -0.750792
     2  H    0.423730
     3  H    0.441241
     4  H    0.423735
     5  C   -0.276964
     6  H    0.249869
     7  H    0.249857
     8  C    0.640429
     9  O   -0.524204
    10  N   -0.605133
    11  H    0.381844
    12  C   -0.212020
    13  H    0.216038
    14  H    0.216045
    15  C    0.620652
    16  O   -0.534571
    17  N   -0.621821
    18  H    0.369584
    19  C   -0.200471
    20  H    0.202060
    21  H    0.202091
    22  C    0.612690
    23  O   -0.533290
    24  N   -0.623490
    25  H    0.364677
    26  C   -0.195002
    27  H    0.197150
    28  H    0.196999
    29  C    0.609482
    30  O   -0.531655
    31  N   -0.624448
    32  H    0.362390
    33  C   -0.192240
    34  H    0.196607
    35  H    0.196217
    36  C    0.607782
    37  O   -0.530098
    38  N   -0.625105
    39  H    0.363861
    40  C   -0.193340
    41  H    0.195843
    42  H    0.192120
    43  C    0.593753
    44  O   -0.504240
    45  N   -0.627730
    46  H    0.346307
    47  C   -0.228482
    48  H    0.230313
    49  H    0.197006
    50  C    0.589539
    51  O   -0.498012
    52  N   -0.577803
    53  H    0.335214
    54  C   -0.231580
    55  H    0.198883
    56  H    0.239845
    57  C    0.576797
    58  O   -0.442579
    59  O   -0.572611
    60  H    0.417026
 Sum of Mulliken charges =   1.00000
 Mulliken charges with hydrogens summed into heavy atoms:
               1
     1  N    0.537915
     5  C    0.222762
     8  C    0.640429
     9  O   -0.524204
    10  N   -0.223289
    12  C    0.220063
    15  C    0.620652
    16  O   -0.534571
    17  N   -0.252237
    19  C    0.203680
    22  C    0.612690
    23  O   -0.533290
    24  N   -0.258813
    26  C    0.199146
    29  C    0.609482
    30  O   -0.531655
    31  N   -0.262058
    33  C    0.200585
    36  C    0.607782
    37  O   -0.530098
    38  N   -0.261245
    40  C    0.194623
    43  C    0.593753
    44  O   -0.504240
    45  N   -0.281423
    47  C    0.198837
    50  C    0.589539
    51  O   -0.498012
    52  N   -0.242589
    54  C    0.207148
    57  C    0.576797
    58  O   -0.442579
    59  O   -0.155585
 Electronic spatial extent (au):  <R**2>=          87651.0664
 Charge=              1.0000 electrons
 Dipole moment (field-independent basis, Debye):
    X=            -15.5447    Y=             43.3409    Z=             -1.1061  Tot=             46.0575
 Quadrupole moment (field-independent basis, Debye-Ang):
   XX=            -99.6482   YY=            308.6743   ZZ=           -166.8711
   XY=           -207.9573   XZ=            -43.3001   YZ=             47.9809
 Traceless Quadrupole moment (field-independent basis, Debye-Ang):
   XX=           -113.6999   YY=            294.6226   ZZ=           -180.9228
   XY=           -207.9573   XZ=            -43.3001   YZ=             47.9809
 Octapole moment (field-independent basis, Debye-Ang**2):
  XXX=          -3449.2209  YYY=           4804.5882  ZZZ=           1686.8052  XYY=          -3490.9569
  XXY=           1145.7597  XXZ=            864.2505  XZZ=           -770.9087  YZZ=           -392.2911
  YYZ=           1083.2599  XYZ=           -325.5714
 Hexadecapole moment (field-independent basis, Debye-Ang**3):
 XXXX=         -62091.5129 YYYY=          31296.4369 ZZZZ=         -19039.9251 XXXY=          10995.7294
 XXXZ=          19393.9512 YYYX=         -16815.4954 YYYZ=           1688.3985 ZZZX=          15709.3759
 ZZZY=          -2990.3249 XXYY=          -3928.1497 XXZZ=         -14821.9608 YYZZ=          -8798.3102
 XXYZ=          -1718.7221 YYXZ=           2746.0397 ZZXY=           4155.0992
 N-N= 2.939124158439D+03 E-N=-9.925470387154D+03  KE= 1.725114138688D+03
 Unable to Open any file for archive entry.
 1\1\GINC-SKL-154\SP\RB3LYP\6-31G(d)\C16H27N8O9(1+)\KENGMITH\19-Jul-202
 2\0\\# B3LYP/6-31G* guess=read geom=check nosymm integral(ultrafinegri
 d)\\Candidate Structure: Conf:302 Charge calc in gas phase\\1,1\N,0,-5
 .511595622,11.5576274804,0.6742512404\H,0,-5.3600377204,12.5650918993,
 0.5753203615\H,0,-5.6885942282,11.1121602242,-0.2904299341\H,0,-6.3202
 581616,11.4111520707,1.2844556026\C,0,-4.2846831021,10.8019850268,1.10
 5892356\H,0,-4.4905211942,10.261718417,2.0314980813\H,0,-3.4613242686,
 11.4987888461,1.2718542076\C,0,-4.0135345234,9.8437901057,-0.08701405\
 O,0,-4.8017845138,9.9117794867,-1.0437656091\N,0,-2.9709841989,9.04115
 51105,0.0178725098\H,0,-2.3416999457,9.0157668376,0.8296301526\C,0,-2.
 560326707,8.0780771451,-0.9932802079\H,0,-3.3579992597,7.3514587242,-1
 .1834024917\H,0,-2.3319209795,8.5821421084,-1.9388853628\C,0,-1.307146
 6468,7.3927871349,-0.4077783123\O,0,-0.8962016757,7.7346374326,0.70543
 46249\N,0,-0.7481655946,6.4544574398,-1.1752282502\H,0,-1.1077972609,6
 .188979535,-2.0929790243\C,0,0.4318330028,5.7032169533,-0.7939766505\H
 ,0,0.2586035296,5.1498959106,0.1369217742\H,0,1.2826787319,6.373325125
 7,-0.621315361\C,0,0.7240638706,4.7383939672,-1.9566706856\O,0,-0.0002
 578799,4.7296868794,-2.9540369296\N,0,1.7919225616,3.9434088083,-1.792
 4360192\H,0,2.3788910538,3.960935622,-0.9602765142\C,0,2.2141378974,2.
 9733216504,-2.7802598152\H,0,1.4157204659,2.2485429609,-2.983266047\H,
 0,2.4532513312,3.462631646,-3.732907172\C,0,3.453581297,2.2668462803,-
 2.2104360407\O,0,3.9009709604,2.5729758853,-1.10464046\N,0,3.990483774
 8,1.3170184075,-2.9972267934\H,0,3.6106333661,1.0688782898,-3.90756241
 56\C,0,5.1559518007,0.5525845935,-2.6114928055\H,0,4.9773385917,0.0134
 03439,-1.6722695182\H,0,6.0180498113,1.2103872993,-2.4411902061\C,0,5.
 4516087969,-0.4337697428,-3.7483715998\O,0,4.7532912431,-0.4681756868,
 -4.7610674538\N,0,6.515113335,-1.2394617671,-3.553464933\H,0,7.0795418
 641,-1.2168627074,-2.7087808749\C,0,6.9155844748,-2.2322260887,-4.5234
 982862\H,0,6.1057403698,-2.9524106648,-4.7038906935\H,0,7.1421863741,-
 1.7650828228,-5.4909808236\C,0,8.1499615354,-2.9541217045,-3.971093343
 4\O,0,8.6055101933,-2.678619857,-2.8673217094\N,0,8.6902534892,-3.8908
 038481,-4.802773573\H,0,8.1907797226,-4.1231978259,-5.6526340452\C,0,9
 .7677253139,-4.7811442061,-4.3877972959\H,0,10.0738360811,-4.464776514
 5,-3.3865734194\H,0,9.4210783887,-5.8168657359,-4.3232772569\C,0,10.99
 46094388,-4.7816848533,-5.3079964945\O,0,11.7270082044,-5.7578744883,-
 5.3598788094\N,0,11.2149352991,-3.6228999721,-5.9967495255\H,0,10.5027
 085427,-2.9077190494,-5.9580337897\C,0,12.2567378815,-3.521026921,-6.9
 90974655\H,0,12.9042462661,-2.6554618357,-6.8116673967\H,0,12.87863822
 14,-4.4170887585,-6.8970733351\C,0,11.7794652782,-3.4334372781,-8.4347
 984619\O,0,12.5139908972,-3.2171024788,-9.3683160138\O,0,10.4417070799
 ,-3.6201488795,-8.5685032906\H,0,10.2637253445,-3.5601416863,-9.526793
 6044\\Version=ES64L-G16RevC.01\HF=-1740.886781\RMSD=7.168e-09\Dipole=-
 13.6748921,13.3063527,5.4350807\Quadrupole=-84.5330667,219.0446992,-13
 4.5116325,-154.6111373,-32.1925853,35.6726601\PG=C01 [X(C16H27N8O9)]\\
 @
 The archive entry for this job was punched.


 We're simply so accustomed to the marvels of everyday thought
 that we never wonder about it.
 -- Marvin Minsky in "Why people think computers are smart"
 Job cpu time:       0 days  0 hours  0 minutes 36.3 seconds.
 Elapsed time:       0 days  0 hours  0 minutes  9.5 seconds.
 File lengths (MBytes):  RWF=    272 Int=      0 D2E=      0 Chk=     40 Scr=     16
 Normal termination of Gaussian 16 at Tue Jul 19 19:37:50 2022.
