 Entering Gaussian System, Link 0=/opt/software/Gaussian/g16-AVX2-C.01/g16/g16
 Input=charge-conf-288.com
 Output=charge-conf-288.log
 Initial command:
 /opt/software/Gaussian/g16-AVX2-C.01/g16/l1.exe "/mnt/gs18/scratch/users/kengmith/Gau-37651.inp" -scrdir="/mnt/gs18/scratch/users/kengmith/"
 Entering Link 1 = /opt/software/Gaussian/g16-AVX2-C.01/g16/l1.exe PID=     37669.
  
 Copyright (c) 1988-2019, Gaussian, Inc.  All Rights Reserved.
  
 This is part of the Gaussian(R) 16 program.  It is based on
 the Gaussian(R) 09 system (copyright 2009, Gaussian, Inc.),
 the Gaussian(R) 03 system (copyright 2003, Gaussian, Inc.),
 the Gaussian(R) 98 system (copyright 1998, Gaussian, Inc.),
 the Gaussian(R) 94 system (copyright 1995, Gaussian, Inc.),
 the Gaussian 92(TM) system (copyright 1992, Gaussian, Inc.),
 the Gaussian 90(TM) system (copyright 1990, Gaussian, Inc.),
 the Gaussian 88(TM) system (copyright 1988, Gaussian, Inc.),
 the Gaussian 86(TM) system (copyright 1986, Carnegie Mellon
 University), and the Gaussian 82(TM) system (copyright 1983,
 Carnegie Mellon University). Gaussian is a federally registered
 trademark of Gaussian, Inc.
  
 This software contains proprietary and confidential information,
 including trade secrets, belonging to Gaussian, Inc.
  
 This software is provided under written license and may be
 used, copied, transmitted, or stored only in accord with that
 written license.
  
 The following legend is applicable only to US Government
 contracts under FAR:
  
                    RESTRICTED RIGHTS LEGEND
  
 Use, reproduction and disclosure by the US Government is
 subject to restrictions as set forth in subparagraphs (a)
 and (c) of the Commercial Computer Software - Restricted
 Rights clause in FAR 52.227-19.
  
 Gaussian, Inc.
 340 Quinnipiac St., Bldg. 40, Wallingford CT 06492
  
  
 ---------------------------------------------------------------
 Warning -- This program may not be used in any manner that
 competes with the business of Gaussian, Inc. or will provide
 assistance to any competitor of Gaussian, Inc.  The licensee
 of this program is prohibited from giving any competitor of
 Gaussian, Inc. access to this program.  By using this program,
 the user acknowledges that Gaussian, Inc. is engaged in the
 business of creating and licensing software in the field of
 computational chemistry and represents and warrants to the
 licensee that it is not a competitor of Gaussian, Inc. and that
 it will not use this program in any manner prohibited above.
 ---------------------------------------------------------------
  

 Cite this work as:
 Gaussian 16, Revision C.01,
 M. J. Frisch, G. W. Trucks, H. B. Schlegel, G. E. Scuseria, 
 M. A. Robb, J. R. Cheeseman, G. Scalmani, V. Barone, 
 G. A. Petersson, H. Nakatsuji, X. Li, M. Caricato, A. V. Marenich, 
 J. Bloino, B. G. Janesko, R. Gomperts, B. Mennucci, H. P. Hratchian, 
 J. V. Ortiz, A. F. Izmaylov, J. L. Sonnenberg, D. Williams-Young, 
 F. Ding, F. Lipparini, F. Egidi, J. Goings, B. Peng, A. Petrone, 
 T. Henderson, D. Ranasinghe, V. G. Zakrzewski, J. Gao, N. Rega, 
 G. Zheng, W. Liang, M. Hada, M. Ehara, K. Toyota, R. Fukuda, 
 J. Hasegawa, M. Ishida, T. Nakajima, Y. Honda, O. Kitao, H. Nakai, 
 T. Vreven, K. Throssell, J. A. Montgomery, Jr., J. E. Peralta, 
 F. Ogliaro, M. J. Bearpark, J. J. Heyd, E. N. Brothers, K. N. Kudin, 
 V. N. Staroverov, T. A. Keith, R. Kobayashi, J. Normand, 
 K. Raghavachari, A. P. Rendell, J. C. Burant, S. S. Iyengar, 
 J. Tomasi, M. Cossi, J. M. Millam, M. Klene, C. Adamo, R. Cammi, 
 J. W. Ochterski, R. L. Martin, K. Morokuma, O. Farkas, 
 J. B. Foresman, and D. J. Fox, Gaussian, Inc., Wallingford CT, 2019.
 
 ******************************************
 Gaussian 16:  ES64L-G16RevC.01  3-Jul-2019
                27-May-2022 
 ******************************************
 %mem=8gb
 %nproc=4
 Will use up to    4 processors via shared memory.
 %chk=conf-288.chk
 -------------------------------------------------------------------
 # B3LYP/6-31G* guess=read geom=check nosymm integral(ultrafinegrid)
 -------------------------------------------------------------------
 1/29=2,38=1,172=1/1;
 2/12=2,15=1,40=1/2;
 3/5=1,6=6,7=1,11=2,14=-4,25=1,30=1,74=-5,75=-5,116=-2/1,2,3;
 4/5=1/1;
 5/5=2,38=6/2;
 6/7=2,8=2,9=2,10=2,28=1/1;
 99/5=1,9=1/99;
 ------------------------------------------------------
 Candidate Structure: Conf:288 Charge calc in gas phase
 ------------------------------------------------------
 Structure from the checkpoint file:  "conf-288.chk"
 Charge =  1 Multiplicity = 1
 Redundant internal coordinates found in file.  (old form).
 N,0,-3.1440051629,-2.8564291499,3.5875275262
 H,0,-2.9393917436,-3.6208403452,2.9468624839
 H,0,-2.2544885884,-2.5933267207,4.0067028023
 C,0,-3.7040796873,-1.7438228939,2.8523730315
 H,0,-3.8688790498,-0.9000336199,3.5350229687
 H,0,-4.6974909009,-2.0287821165,2.4777626338
 C,0,-2.8864375588,-1.2696608755,1.6415591645
 O,0,-1.9912961438,-1.9676433793,1.1463601383
 N,0,-3.2118816472,-0.0532584032,1.128495127
 H,0,-3.9442647539,0.4820889745,1.5782557087
 C,0,-2.7532081079,0.4184196294,-0.183957032
 H,0,-2.6837989389,-0.4658817069,-0.8296196957
 C,0,-1.3239402848,1.0016403246,-0.0976825802
 C,0,-3.736861741,1.4349085118,-0.7756883589
 H,0,-3.7941841279,2.2988335574,-0.1002873562
 H,0,-3.3003482057,1.8196925817,-1.7046038695
 O,0,-1.0614911065,2.17943561,-0.3722338398
 C,0,-5.1534485402,0.8951336409,-1.0655165136
 H,0,-5.5771783849,0.4982135614,-0.1304587438
 C,0,-6.055815863,2.0497434618,-1.5273496269
 H,0,-5.6900945138,2.4818327402,-2.4672904253
 H,0,-7.079449038,1.7005570339,-1.6986781135
 H,0,-6.0953196921,2.8535686018,-0.7830869295
 C,0,-5.1508993463,-0.2416796193,-2.0987855875
 H,0,-4.712749377,0.0926406177,-3.0481311659
 H,0,-4.590128214,-1.1201318899,-1.7585231052
 H,0,-6.173317853,-0.5738271893,-2.3073040402
 N,0,-0.361290518,0.1088600347,0.2622501713
 H,0,-0.6713536876,-0.8408661029,0.507017619
 C,0,0.9991362863,0.5536179361,0.56900873
 H,0,0.9288954577,1.5300257352,1.0670054519
 C,0,1.6686122324,0.8198679201,-0.7696112756
 C,0,1.7931743506,-0.4221871023,1.4671470844
 H,0,1.9886793582,-1.3336735935,0.8874608152
 O,0,2.5661190773,0.0090100492,-1.2919717167
 C,0,3.1380555495,0.2098644959,1.867837732
 H,0,2.975571707,1.0772861875,2.5201401387
 H,0,3.7312743394,-0.5170722769,2.4308454529
 H,0,3.7359171387,0.5341907564,1.0102296483
 C,0,0.9886770816,-0.799548986,2.7215712152
 H,0,0.6935647004,0.0946428414,3.2846375075
 H,0,1.6150715396,-1.4109550107,3.3785169154
 H,0,0.0904226515,-1.3787363179,2.4916028084
 N,0,1.3515830328,1.8200065117,-1.5442891432
 H,0,0.536710621,2.3997540799,-1.28888882
 C,0,2.0464736081,1.7510462187,-2.8340011832
 H,0,1.3174507838,1.4778987843,-3.6103424993
 C,0,2.948533027,0.549181446,-2.5960676401
 C,0,2.7868260448,3.0310001023,-3.2560695182
 H,0,3.535022323,3.2661425417,-2.4934752352
 H,0,3.3310916887,2.7762295173,-4.1739529184
 O,0,3.7960074722,0.0380919939,-3.238873923
 C,0,1.8315447855,4.2027107765,-3.5118954655
 H,0,1.3089900115,4.4716739485,-2.5816542908
 H,0,1.0589274135,3.918944861,-4.2365331858
 C,0,2.5554493137,5.4447958603,-4.0483181578
 H,0,3.2729741349,5.8189697273,-3.3058278645
 H,0,3.1441081051,5.1677883871,-4.9353855074
 C,0,1.5871292666,6.5749490628,-4.4234500402
 H,0,0.9927040405,6.848024947,-3.5421402749
 H,0,2.1750686009,7.4679577471,-4.6942171678
 N,0,0.6555717109,6.1327674321,-5.4685481861
 H,0,-0.0899284445,6.8169736218,-5.5817873574
 H,0,1.1383042501,6.0959941559,-6.3659467857
 O,0,4.7907093047,1.8953114668,-0.8458833028
 H,0,5.2220778092,2.5925143922,-0.3277005709
 H,0,5.5227292329,1.3437887138,-1.1648949212
 Recover connectivity data from disk.
                           ----------------------------
                           !    Current Parameters    !
                           ! (Angstroms and Degrees)  !
 --------------------------                            --------------------------
 ! Name  Definition              Value                                          !
 --------------------------------------------------------------------------------
 ! R1    R(1,2)                  1.0182                                         !
 ! R2    R(1,3)                  1.0179                                         !
 ! R3    R(1,4)                  1.4464                                         !
 ! R4    R(4,5)                  1.0978                                         !
 ! R5    R(4,6)                  1.0993                                         !
 ! R6    R(4,7)                  1.536                                          !
 ! R7    R(7,8)                  1.2384                                         !
 ! R8    R(7,9)                  1.3597                                         !
 ! R9    R(9,10)                 1.0126                                         !
 ! R10   R(9,11)                 1.4681                                         !
 ! R11   R(11,12)                1.0971                                         !
 ! R12   R(11,13)                1.5461                                         !
 ! R13   R(11,14)                1.5333                                         !
 ! R14   R(13,17)                1.2375                                         !
 ! R15   R(13,28)                1.3614                                         !
 ! R16   R(14,15)                1.0981                                         !
 ! R17   R(14,16)                1.0961                                         !
 ! R18   R(14,18)                1.5434                                         !
 ! R19   R(18,19)                1.1006                                         !
 ! R20   R(18,20)                1.5365                                         !
 ! R21   R(18,24)                1.5362                                         !
 ! R22   R(20,21)                1.0972                                         !
 ! R23   R(20,22)                1.095                                          !
 ! R24   R(20,23)                1.0962                                         !
 ! R25   R(24,25)                1.0977                                         !
 ! R26   R(24,26)                1.0963                                         !
 ! R27   R(24,27)                1.0951                                         !
 ! R28   R(28,29)                1.0286                                         !
 ! R29   R(28,30)                1.4638                                         !
 ! R30   R(30,31)                1.0983                                         !
 ! R31   R(30,32)                1.5202                                         !
 ! R32   R(30,33)                1.5458                                         !
 ! R33   R(32,35)                1.3175                                         !
 ! R34   R(32,44)                1.3042                                         !
 ! R35   R(33,34)                1.0978                                         !
 ! R36   R(33,36)                1.5391                                         !
 ! R37   R(33,40)                1.5373                                         !
 ! R38   R(36,37)                1.0974                                         !
 ! R39   R(36,38)                1.0942                                         !
 ! R40   R(36,39)                1.0946                                         !
 ! R41   R(40,41)                1.0971                                         !
 ! R42   R(40,42)                1.0944                                         !
 ! R43   R(40,43)                1.0933                                         !
 ! R44   R(44,45)                1.0322                                         !
 ! R45   R(44,46)                1.4666                                         !
 ! R46   R(46,47)                1.0994                                         !
 ! R47   R(46,48)                1.5214                                         !
 ! R48   R(46,49)                1.5377                                         !
 ! R49   R(48,52)                1.1801                                         !
 ! R50   R(48,65)                2.8756                                         !
 ! R51   R(49,50)                1.0939                                         !
 ! R52   R(49,51)                1.0971                                         !
 ! R53   R(49,53)                1.5333                                         !
 ! R54   R(53,54)                1.1003                                         !
 ! R55   R(53,55)                1.0966                                         !
 ! R56   R(53,56)                1.5345                                         !
 ! R57   R(56,57)                1.0982                                         !
 ! R58   R(56,58)                1.1001                                         !
 ! R59   R(56,59)                1.5348                                         !
 ! R60   R(59,60)                1.0976                                         !
 ! R61   R(59,61)                1.1029                                         !
 ! R62   R(59,62)                1.4682                                         !
 ! R63   R(62,63)                1.0182                                         !
 ! R64   R(62,64)                1.0197                                         !
 ! R65   R(65,66)                0.9699                                         !
 ! R66   R(65,67)                0.9705                                         !
 ! A1    A(2,1,3)              106.1145                                         !
 ! A2    A(2,1,4)              109.6041                                         !
 ! A3    A(3,1,4)              110.4174                                         !
 ! A4    A(1,4,5)              109.4703                                         !
 ! A5    A(1,4,6)              108.8891                                         !
 ! A6    A(1,4,7)              115.5937                                         !
 ! A7    A(5,4,6)              105.9915                                         !
 ! A8    A(5,4,7)              109.4398                                         !
 ! A9    A(6,4,7)              107.0039                                         !
 ! A10   A(4,7,8)              121.7338                                         !
 ! A11   A(4,7,9)              116.4996                                         !
 ! A12   A(8,7,9)              121.7579                                         !
 ! A13   A(7,9,10)             118.5878                                         !
 ! A14   A(7,9,11)             123.3648                                         !
 ! A15   A(10,9,11)            116.949                                          !
 ! A16   A(9,11,12)            106.6731                                         !
 ! A17   A(9,11,13)            111.1078                                         !
 ! A18   A(9,11,14)            110.9507                                         !
 ! A19   A(12,11,13)           106.1649                                         !
 ! A20   A(12,11,14)           110.3537                                         !
 ! A21   A(13,11,14)           111.3777                                         !
 ! A22   A(11,13,17)           122.8669                                         !
 ! A23   A(11,13,28)           114.9018                                         !
 ! A24   A(17,13,28)           122.1977                                         !
 ! A25   A(11,14,15)           108.5235                                         !
 ! A26   A(11,14,16)           107.7157                                         !
 ! A27   A(11,14,18)           115.432                                          !
 ! A28   A(15,14,16)           105.4173                                         !
 ! A29   A(15,14,18)           110.0438                                         !
 ! A30   A(16,14,18)           109.2168                                         !
 ! A31   A(14,18,19)           108.6592                                         !
 ! A32   A(14,18,20)           109.4316                                         !
 ! A33   A(14,18,24)           112.5559                                         !
 ! A34   A(19,18,20)           107.4733                                         !
 ! A35   A(19,18,24)           107.7694                                         !
 ! A36   A(20,18,24)           110.7872                                         !
 ! A37   A(18,20,21)           110.957                                          !
 ! A38   A(18,20,22)           110.8797                                         !
 ! A39   A(18,20,23)           111.6007                                         !
 ! A40   A(21,20,22)           107.6451                                         !
 ! A41   A(21,20,23)           107.75                                           !
 ! A42   A(22,20,23)           107.8409                                         !
 ! A43   A(18,24,25)           110.9145                                         !
 ! A44   A(18,24,26)           112.6462                                         !
 ! A45   A(18,24,27)           110.5474                                         !
 ! A46   A(25,24,26)           107.9559                                         !
 ! A47   A(25,24,27)           107.4796                                         !
 ! A48   A(26,24,27)           107.0757                                         !
 ! A49   A(13,28,29)           117.0822                                         !
 ! A50   A(13,28,30)           120.8866                                         !
 ! A51   A(29,28,30)           120.7189                                         !
 ! A52   A(28,30,31)           107.8002                                         !
 ! A53   A(28,30,32)           106.1393                                         !
 ! A54   A(28,30,33)           114.04                                           !
 ! A55   A(31,30,32)           105.7668                                         !
 ! A56   A(31,30,33)           109.3059                                         !
 ! A57   A(32,30,33)           113.327                                          !
 ! A58   A(30,32,35)           122.7737                                         !
 ! A59   A(30,32,44)           123.3878                                         !
 ! A60   A(35,32,44)           113.7065                                         !
 ! A61   A(30,33,34)           107.9885                                         !
 ! A62   A(30,33,36)           109.9316                                         !
 ! A63   A(30,33,40)           111.1165                                         !
 ! A64   A(34,33,36)           108.8349                                         !
 ! A65   A(34,33,40)           108.6802                                         !
 ! A66   A(36,33,40)           110.2223                                         !
 ! A67   A(33,36,37)           110.4857                                         !
 ! A68   A(33,36,38)           109.5642                                         !
 ! A69   A(33,36,39)           113.2649                                         !
 ! A70   A(37,36,38)           107.4302                                         !
 ! A71   A(37,36,39)           108.2027                                         !
 ! A72   A(38,36,39)           107.6897                                         !
 ! A73   A(33,40,41)           111.0686                                         !
 ! A74   A(33,40,42)           109.1129                                         !
 ! A75   A(33,40,43)           112.854                                          !
 ! A76   A(41,40,42)           107.53                                           !
 ! A77   A(41,40,43)           108.5864                                         !
 ! A78   A(42,40,43)           107.4915                                         !
 ! A79   A(32,44,45)           118.4029                                         !
 ! A80   A(32,44,46)           111.784                                          !
 ! A81   A(45,44,46)           128.1749                                         !
 ! A82   A(44,46,47)           108.5695                                         !
 ! A83   A(44,46,48)           100.401                                          !
 ! A84   A(44,46,49)           115.4898                                         !
 ! A85   A(47,46,48)           107.8972                                         !
 ! A86   A(47,46,49)           109.4043                                         !
 ! A87   A(48,46,49)           114.5194                                         !
 ! A88   A(46,48,52)           133.0564                                         !
 ! A89   A(46,48,65)            96.0395                                         !
 ! A90   A(52,48,65)            94.2558                                         !
 ! A91   A(46,49,50)           108.4745                                         !
 ! A92   A(46,49,51)           105.9737                                         !
 ! A93   A(46,49,53)           112.4528                                         !
 ! A94   A(50,49,51)           107.0887                                         !
 ! A95   A(50,49,53)           112.2212                                         !
 ! A96   A(51,49,53)           110.3009                                         !
 ! A97   A(49,53,54)           109.9756                                         !
 ! A98   A(49,53,55)           110.577                                          !
 ! A99   A(49,53,56)           112.5187                                         !
 ! A100  A(54,53,55)           106.6966                                         !
 ! A101  A(54,53,56)           108.7672                                         !
 ! A102  A(55,53,56)           108.1098                                         !
 ! A103  A(53,56,57)           110.3445                                         !
 ! A104  A(53,56,58)           109.3                                            !
 ! A105  A(53,56,59)           112.5725                                         !
 ! A106  A(57,56,58)           106.3408                                         !
 ! A107  A(57,56,59)           109.0604                                         !
 ! A108  A(58,56,59)           109.0223                                         !
 ! A109  A(56,59,60)           109.1863                                         !
 ! A110  A(56,59,61)           108.6561                                         !
 ! A111  A(56,59,62)           110.6417                                         !
 ! A112  A(60,59,61)           106.5222                                         !
 ! A113  A(60,59,62)           107.6307                                         !
 ! A114  A(61,59,62)           114.0374                                         !
 ! A115  A(59,62,63)           109.9589                                         !
 ! A116  A(59,62,64)           109.6915                                         !
 ! A117  A(63,62,64)           105.8419                                         !
 ! A118  A(48,65,66)           161.195                                          !
 ! A119  A(48,65,67)            90.9806                                         !
 ! A120  A(66,65,67)           104.3989                                         !
 ! D1    D(2,1,4,5)           -176.6958                                         !
 ! D2    D(2,1,4,6)             67.8492                                         !
 ! D3    D(2,1,4,7)            -52.5884                                         !
 ! D4    D(3,1,4,5)            -60.1465                                         !
 ! D5    D(3,1,4,6)           -175.6016                                         !
 ! D6    D(3,1,4,7)             63.9608                                         !
 ! D7    D(1,4,7,8)             15.98                                           !
 ! D8    D(1,4,7,9)           -165.072                                          !
 ! D9    D(5,4,7,8)            140.1033                                         !
 ! D10   D(5,4,7,9)            -40.9488                                         !
 ! D11   D(6,4,7,8)           -105.476                                          !
 ! D12   D(6,4,7,9)             73.472                                          !
 ! D13   D(4,7,9,10)             1.7845                                         !
 ! D14   D(4,7,9,11)          -165.8526                                         !
 ! D15   D(8,7,9,10)          -179.2678                                         !
 ! D16   D(8,7,9,11)            13.095                                          !
 ! D17   D(7,9,11,12)           32.8758                                         !
 ! D18   D(7,9,11,13)          -82.4103                                         !
 ! D19   D(7,9,11,14)          153.1047                                         !
 ! D20   D(10,9,11,12)        -134.949                                          !
 ! D21   D(10,9,11,13)         109.7649                                         !
 ! D22   D(10,9,11,14)         -14.7202                                         !
 ! D23   D(9,11,13,17)        -118.5862                                         !
 ! D24   D(9,11,13,28)          63.4844                                         !
 ! D25   D(12,11,13,17)        125.813                                          !
 ! D26   D(12,11,13,28)        -52.1164                                         !
 ! D27   D(14,11,13,17)          5.6571                                         !
 ! D28   D(14,11,13,28)       -172.2723                                         !
 ! D29   D(9,11,14,15)          61.1713                                         !
 ! D30   D(9,11,14,16)         174.8345                                         !
 ! D31   D(9,11,14,18)         -62.855                                          !
 ! D32   D(12,11,14,15)        179.1874                                         !
 ! D33   D(12,11,14,16)        -67.1494                                         !
 ! D34   D(12,11,14,18)         55.1611                                         !
 ! D35   D(13,11,14,15)        -63.1606                                         !
 ! D36   D(13,11,14,16)         50.5027                                         !
 ! D37   D(13,11,14,18)        172.8131                                         !
 ! D38   D(11,13,28,29)         -4.2319                                         !
 ! D39   D(11,13,28,30)       -171.2421                                         !
 ! D40   D(17,13,28,29)        177.8233                                         !
 ! D41   D(17,13,28,30)         10.8131                                         !
 ! D42   D(11,14,18,19)         57.6884                                         !
 ! D43   D(11,14,18,20)        174.7655                                         !
 ! D44   D(11,14,18,24)        -61.5903                                         !
 ! D45   D(15,14,18,19)        -65.538                                          !
 ! D46   D(15,14,18,20)         51.5391                                         !
 ! D47   D(15,14,18,24)        175.1832                                         !
 ! D48   D(16,14,18,19)        179.1938                                         !
 ! D49   D(16,14,18,20)        -63.7291                                         !
 ! D50   D(16,14,18,24)         59.915                                          !
 ! D51   D(14,18,20,21)         62.8567                                         !
 ! D52   D(14,18,20,22)       -177.5721                                         !
 ! D53   D(14,18,20,23)        -57.3264                                         !
 ! D54   D(19,18,20,21)       -179.3214                                         !
 ! D55   D(19,18,20,22)        -59.7502                                         !
 ! D56   D(19,18,20,23)         60.4955                                         !
 ! D57   D(24,18,20,21)        -61.8231                                         !
 ! D58   D(24,18,20,22)         57.748                                          !
 ! D59   D(24,18,20,23)        177.9937                                         !
 ! D60   D(14,18,24,25)        -58.7606                                         !
 ! D61   D(14,18,24,26)         62.3731                                         !
 ! D62   D(14,18,24,27)       -177.8805                                         !
 ! D63   D(19,18,24,25)       -178.5561                                         !
 ! D64   D(19,18,24,26)        -57.4224                                         !
 ! D65   D(19,18,24,27)         62.324                                          !
 ! D66   D(20,18,24,25)         64.127                                          !
 ! D67   D(20,18,24,26)       -174.7393                                         !
 ! D68   D(20,18,24,27)        -54.9929                                         !
 ! D69   D(13,28,30,31)         35.4926                                         !
 ! D70   D(13,28,30,32)        -77.4621                                         !
 ! D71   D(13,28,30,33)        157.0552                                         !
 ! D72   D(29,28,30,31)       -131.0456                                         !
 ! D73   D(29,28,30,32)        115.9997                                         !
 ! D74   D(29,28,30,33)         -9.483                                          !
 ! D75   D(28,30,32,35)       -105.2578                                         !
 ! D76   D(28,30,32,44)         70.3004                                         !
 ! D77   D(31,30,32,35)        140.3873                                         !
 ! D78   D(31,30,32,44)        -44.0544                                         !
 ! D79   D(33,30,32,35)         20.6601                                         !
 ! D80   D(33,30,32,44)       -163.7817                                         !
 ! D81   D(28,30,33,34)         68.1532                                         !
 ! D82   D(28,30,33,36)       -173.2396                                         !
 ! D83   D(28,30,33,40)        -50.95                                           !
 ! D84   D(31,30,33,34)       -171.1205                                         !
 ! D85   D(31,30,33,36)        -52.5133                                         !
 ! D86   D(31,30,33,40)         69.7763                                         !
 ! D87   D(32,30,33,34)        -53.4359                                         !
 ! D88   D(32,30,33,36)         65.1714                                         !
 ! D89   D(32,30,33,40)       -172.5391                                         !
 ! D90   D(30,32,44,45)         -7.0169                                         !
 ! D91   D(30,32,44,46)       -173.622                                          !
 ! D92   D(35,32,44,45)        168.9048                                         !
 ! D93   D(35,32,44,46)          2.2998                                         !
 ! D94   D(30,33,36,37)         66.6548                                         !
 ! D95   D(30,33,36,38)       -175.1726                                         !
 ! D96   D(30,33,36,39)        -54.9199                                         !
 ! D97   D(34,33,36,37)       -175.2602                                         !
 ! D98   D(34,33,36,38)        -57.0876                                         !
 ! D99   D(34,33,36,39)         63.1651                                         !
 ! D100  D(40,33,36,37)        -56.1632                                         !
 ! D101  D(40,33,36,38)         62.0094                                         !
 ! D102  D(40,33,36,39)       -177.7379                                         !
 ! D103  D(30,33,40,41)        -56.22                                           !
 ! D104  D(30,33,40,42)       -174.5865                                         !
 ! D105  D(30,33,40,43)         65.9906                                         !
 ! D106  D(34,33,40,41)       -174.9079                                         !
 ! D107  D(34,33,40,42)         66.7255                                         !
 ! D108  D(34,33,40,43)        -52.6973                                         !
 ! D109  D(36,33,40,41)         65.9009                                         !
 ! D110  D(36,33,40,42)        -52.4657                                         !
 ! D111  D(36,33,40,43)       -171.8885                                         !
 ! D112  D(32,44,46,47)        107.9932                                         !
 ! D113  D(32,44,46,48)         -5.0401                                         !
 ! D114  D(32,44,46,49)       -128.747                                          !
 ! D115  D(45,44,46,47)        -56.9833                                         !
 ! D116  D(45,44,46,48)       -170.0166                                         !
 ! D117  D(45,44,46,49)         66.2765                                         !
 ! D118  D(44,46,48,52)       -175.406                                          !
 ! D119  D(44,46,48,65)        -73.8114                                         !
 ! D120  D(47,46,48,52)         71.0462                                         !
 ! D121  D(47,46,48,65)        172.6407                                         !
 ! D122  D(49,46,48,52)        -51.0291                                         !
 ! D123  D(49,46,48,65)         50.5655                                         !
 ! D124  D(44,46,49,50)         59.4282                                         !
 ! D125  D(44,46,49,51)        174.1301                                         !
 ! D126  D(44,46,49,53)        -65.2874                                         !
 ! D127  D(47,46,49,50)       -177.7536                                         !
 ! D128  D(47,46,49,51)        -63.0517                                         !
 ! D129  D(47,46,49,53)         57.5307                                         !
 ! D130  D(48,46,49,50)        -56.5032                                         !
 ! D131  D(48,46,49,51)         58.1987                                         !
 ! D132  D(48,46,49,53)        178.7811                                         !
 ! D133  D(46,48,65,66)         -2.7037                                         !
 ! D134  D(46,48,65,67)       -147.9706                                         !
 ! D135  D(52,48,65,66)        131.4271                                         !
 ! D136  D(52,48,65,67)        -13.8397                                         !
 ! D137  D(46,49,53,54)         63.4896                                         !
 ! D138  D(46,49,53,55)        -54.0904                                         !
 ! D139  D(46,49,53,56)       -175.0927                                         !
 ! D140  D(50,49,53,54)        -59.1399                                         !
 ! D141  D(50,49,53,55)       -176.72                                           !
 ! D142  D(50,49,53,56)         62.2777                                         !
 ! D143  D(51,49,53,54)       -178.4526                                         !
 ! D144  D(51,49,53,55)         63.9674                                         !
 ! D145  D(51,49,53,56)        -57.0349                                         !
 ! D146  D(49,53,56,57)        -63.0424                                         !
 ! D147  D(49,53,56,58)         53.5594                                         !
 ! D148  D(49,53,56,59)        174.8627                                         !
 ! D149  D(54,53,56,57)         59.0616                                         !
 ! D150  D(54,53,56,58)        175.6634                                         !
 ! D151  D(54,53,56,59)        -63.0333                                         !
 ! D152  D(55,53,56,57)        174.553                                          !
 ! D153  D(55,53,56,58)        -68.8452                                         !
 ! D154  D(55,53,56,59)         52.4581                                         !
 ! D155  D(53,56,59,60)         58.0914                                         !
 ! D156  D(53,56,59,61)        173.8955                                         !
 ! D157  D(53,56,59,62)        -60.1883                                         !
 ! D158  D(57,56,59,60)        -64.7266                                         !
 ! D159  D(57,56,59,61)         51.0775                                         !
 ! D160  D(57,56,59,62)        176.9938                                         !
 ! D161  D(58,56,59,60)        179.5529                                         !
 ! D162  D(58,56,59,61)        -64.643                                          !
 ! D163  D(58,56,59,62)         61.2732                                         !
 ! D164  D(56,59,62,63)        169.055                                          !
 ! D165  D(56,59,62,64)        -74.9409                                         !
 ! D166  D(60,59,62,63)         49.8317                                         !
 ! D167  D(60,59,62,64)        165.8357                                         !
 ! D168  D(61,59,62,63)        -68.1043                                         !
 ! D169  D(61,59,62,64)         47.8998                                         !
 --------------------------------------------------------------------------------
 Symmetry turned off by external request.
 Stoichiometry    C19H38N5O5(1+)
 Framework group  C1[X(C19H38N5O5)]
 Deg. of freedom   195
 Full point group                 C1      NOp   1
                          Input orientation:                          
 ---------------------------------------------------------------------
 Center     Atomic      Atomic             Coordinates (Angstroms)
 Number     Number       Type             X           Y           Z
 ---------------------------------------------------------------------
      1          7           0       -3.144005   -2.856429    3.587528
      2          1           0       -2.939392   -3.620840    2.946862
      3          1           0       -2.254489   -2.593327    4.006703
      4          6           0       -3.704080   -1.743823    2.852373
      5          1           0       -3.868879   -0.900034    3.535023
      6          1           0       -4.697491   -2.028782    2.477763
      7          6           0       -2.886438   -1.269661    1.641559
      8          8           0       -1.991296   -1.967643    1.146360
      9          7           0       -3.211882   -0.053258    1.128495
     10          1           0       -3.944265    0.482089    1.578256
     11          6           0       -2.753208    0.418420   -0.183957
     12          1           0       -2.683799   -0.465882   -0.829620
     13          6           0       -1.323940    1.001640   -0.097683
     14          6           0       -3.736862    1.434909   -0.775688
     15          1           0       -3.794184    2.298834   -0.100287
     16          1           0       -3.300348    1.819693   -1.704604
     17          8           0       -1.061491    2.179436   -0.372234
     18          6           0       -5.153449    0.895134   -1.065517
     19          1           0       -5.577178    0.498214   -0.130459
     20          6           0       -6.055816    2.049743   -1.527350
     21          1           0       -5.690095    2.481833   -2.467290
     22          1           0       -7.079449    1.700557   -1.698678
     23          1           0       -6.095320    2.853569   -0.783087
     24          6           0       -5.150899   -0.241680   -2.098786
     25          1           0       -4.712749    0.092641   -3.048131
     26          1           0       -4.590128   -1.120132   -1.758523
     27          1           0       -6.173318   -0.573827   -2.307304
     28          7           0       -0.361291    0.108860    0.262250
     29          1           0       -0.671354   -0.840866    0.507018
     30          6           0        0.999136    0.553618    0.569009
     31          1           0        0.928895    1.530026    1.067005
     32          6           0        1.668612    0.819868   -0.769611
     33          6           0        1.793174   -0.422187    1.467147
     34          1           0        1.988679   -1.333674    0.887461
     35          8           0        2.566119    0.009010   -1.291972
     36          6           0        3.138056    0.209864    1.867838
     37          1           0        2.975572    1.077286    2.520140
     38          1           0        3.731274   -0.517072    2.430845
     39          1           0        3.735917    0.534191    1.010230
     40          6           0        0.988677   -0.799549    2.721571
     41          1           0        0.693565    0.094643    3.284638
     42          1           0        1.615072   -1.410955    3.378517
     43          1           0        0.090423   -1.378736    2.491603
     44          7           0        1.351583    1.820007   -1.544289
     45          1           0        0.536711    2.399754   -1.288889
     46          6           0        2.046474    1.751046   -2.834001
     47          1           0        1.317451    1.477899   -3.610342
     48          6           0        2.948533    0.549181   -2.596068
     49          6           0        2.786826    3.031000   -3.256070
     50          1           0        3.535022    3.266143   -2.493475
     51          1           0        3.331092    2.776230   -4.173953
     52          8           0        3.796007    0.038092   -3.238874
     53          6           0        1.831545    4.202711   -3.511895
     54          1           0        1.308990    4.471674   -2.581654
     55          1           0        1.058927    3.918945   -4.236533
     56          6           0        2.555449    5.444796   -4.048318
     57          1           0        3.272974    5.818970   -3.305828
     58          1           0        3.144108    5.167788   -4.935386
     59          6           0        1.587129    6.574949   -4.423450
     60          1           0        0.992704    6.848025   -3.542140
     61          1           0        2.175069    7.467958   -4.694217
     62          7           0        0.655572    6.132767   -5.468548
     63          1           0       -0.089928    6.816974   -5.581787
     64          1           0        1.138304    6.095994   -6.365947
     65          8           0        4.790709    1.895311   -0.845883
     66          1           0        5.222078    2.592514   -0.327701
     67          1           0        5.522729    1.343789   -1.164895
 ---------------------------------------------------------------------
 Rotational constants (GHZ):           0.1718751           0.0890490           0.0644414
 Standard basis: 6-31G(d) (6D, 7F)
   511 basis functions,   964 primitive gaussians,   511 cartesian basis functions
   113 alpha electrons      113 beta electrons
       nuclear repulsion energy      3037.2001481296 Hartrees.
 NAtoms=   67 NActive=   67 NUniq=   67 SFac= 1.00D+00 NAtFMM=   60 NAOKFM=T Big=T
 Integral buffers will be    131072 words long.
 Raffenetti 2 integral format.
 Two-electron integral symmetry is turned off.
 One-electron integrals computed using PRISM.
 NBasis=   511 RedAO= T EigKep=  1.34D-03  NBF=   511
 NBsUse=   511 1.00D-06 EigRej= -1.00D+00 NBFU=   511
 Initial guess from the checkpoint file:  "conf-288.chk"
 B after Tr=     0.000000    0.000000    0.000000
         Rot=    1.000000    0.000000    0.000000    0.000000 Ang=   0.00 deg.
 Requested convergence on RMS density matrix=1.00D-08 within 128 cycles.
 Requested convergence on MAX density matrix=1.00D-06.
 Requested convergence on             energy=1.00D-06.
 No special actions if energy rises.
 SCF Done:  E(RB3LYP) =  -1396.61215954     A.U. after    1 cycles
            NFock=  1  Conv=0.65D-08     -V/T= 2.0095

 **********************************************************************

            Population analysis using the SCF Density.

 **********************************************************************

 Alpha  occ. eigenvalues --  -19.37848 -19.31256 -19.27423 -19.25556 -19.23424
 Alpha  occ. eigenvalues --  -14.55088 -14.48894 -14.47779 -14.40008 -14.39098
 Alpha  occ. eigenvalues --  -10.48502 -10.48280 -10.41878 -10.40089 -10.39666
 Alpha  occ. eigenvalues --  -10.38677 -10.35013 -10.32009 -10.31502 -10.31489
 Alpha  occ. eigenvalues --  -10.28903 -10.28681 -10.28673 -10.28248 -10.28175
 Alpha  occ. eigenvalues --  -10.28156 -10.27332 -10.25832 -10.25363  -1.29978
 Alpha  occ. eigenvalues --   -1.21696  -1.17152  -1.14815  -1.12948  -1.12039
 Alpha  occ. eigenvalues --   -1.05937  -1.03856  -0.97164  -0.96075  -0.95595
 Alpha  occ. eigenvalues --   -0.92644  -0.90658  -0.88365  -0.86104  -0.84304
 Alpha  occ. eigenvalues --   -0.80882  -0.79689  -0.79096  -0.78657  -0.76870
 Alpha  occ. eigenvalues --   -0.76629  -0.74885  -0.72825  -0.71295  -0.69973
 Alpha  occ. eigenvalues --   -0.69313  -0.68243  -0.67211  -0.66056  -0.65795
 Alpha  occ. eigenvalues --   -0.64895  -0.64265  -0.62944  -0.62000  -0.60880
 Alpha  occ. eigenvalues --   -0.60410  -0.59583  -0.59155  -0.58385  -0.57585
 Alpha  occ. eigenvalues --   -0.57034  -0.56189  -0.55441  -0.55292  -0.55083
 Alpha  occ. eigenvalues --   -0.54401  -0.53866  -0.53593  -0.53212  -0.52687
 Alpha  occ. eigenvalues --   -0.51717  -0.51598  -0.51133  -0.51039  -0.50703
 Alpha  occ. eigenvalues --   -0.50095  -0.49985  -0.48803  -0.48601  -0.47859
 Alpha  occ. eigenvalues --   -0.47833  -0.46643  -0.46320  -0.46132  -0.45758
 Alpha  occ. eigenvalues --   -0.45685  -0.45168  -0.45094  -0.44809  -0.44395
 Alpha  occ. eigenvalues --   -0.43402  -0.42775  -0.42253  -0.42018  -0.41850
 Alpha  occ. eigenvalues --   -0.41562  -0.41438  -0.40299  -0.39363  -0.37438
 Alpha  occ. eigenvalues --   -0.36479  -0.32514  -0.31437
 Alpha virt. eigenvalues --   -0.19356  -0.14305  -0.11587  -0.08957  -0.06457
 Alpha virt. eigenvalues --   -0.03942  -0.02666  -0.02213  -0.01436  -0.01241
 Alpha virt. eigenvalues --   -0.00699  -0.00232   0.00215   0.01233   0.01808
 Alpha virt. eigenvalues --    0.02318   0.02918   0.03094   0.03512   0.03931
 Alpha virt. eigenvalues --    0.04352   0.04403   0.05078   0.05241   0.05509
 Alpha virt. eigenvalues --    0.05859   0.06224   0.06359   0.06572   0.06697
 Alpha virt. eigenvalues --    0.07233   0.07450   0.07902   0.08108   0.08291
 Alpha virt. eigenvalues --    0.08913   0.09292   0.09442   0.09787   0.10221
 Alpha virt. eigenvalues --    0.10441   0.10807   0.11300   0.11404   0.11471
 Alpha virt. eigenvalues --    0.11974   0.12221   0.12508   0.12579   0.12884
 Alpha virt. eigenvalues --    0.13937   0.14270   0.14818   0.15299   0.15689
 Alpha virt. eigenvalues --    0.16123   0.16245   0.16750   0.16875   0.18299
 Alpha virt. eigenvalues --    0.18874   0.19631   0.19836   0.21525   0.22999
 Alpha virt. eigenvalues --    0.24281   0.25573   0.25810   0.29291   0.31425
 Alpha virt. eigenvalues --    0.35550   0.36326   0.37028   0.37681   0.39338
 Alpha virt. eigenvalues --    0.40079   0.40439   0.40618   0.41168   0.42075
 Alpha virt. eigenvalues --    0.42453   0.42945   0.43225   0.43363   0.44593
 Alpha virt. eigenvalues --    0.45659   0.46081   0.46470   0.47258   0.47776
 Alpha virt. eigenvalues --    0.48048   0.48659   0.49267   0.49699   0.50272
 Alpha virt. eigenvalues --    0.51014   0.51676   0.52195   0.52570   0.53649
 Alpha virt. eigenvalues --    0.54182   0.54766   0.55170   0.55945   0.56861
 Alpha virt. eigenvalues --    0.57213   0.58037   0.58274   0.58579   0.58929
 Alpha virt. eigenvalues --    0.59932   0.60840   0.61796   0.62829   0.63165
 Alpha virt. eigenvalues --    0.63883   0.64609   0.65412   0.65651   0.65795
 Alpha virt. eigenvalues --    0.66467   0.67519   0.67858   0.68418   0.69010
 Alpha virt. eigenvalues --    0.69308   0.70361   0.70631   0.71583   0.71749
 Alpha virt. eigenvalues --    0.72344   0.73069   0.73419   0.73784   0.74507
 Alpha virt. eigenvalues --    0.75167   0.75584   0.76263   0.76704   0.76960
 Alpha virt. eigenvalues --    0.77132   0.77734   0.78208   0.78765   0.79014
 Alpha virt. eigenvalues --    0.79558   0.79827   0.80568   0.80938   0.81268
 Alpha virt. eigenvalues --    0.81937   0.82204   0.82462   0.82721   0.82805
 Alpha virt. eigenvalues --    0.83072   0.83332   0.83741   0.83919   0.84779
 Alpha virt. eigenvalues --    0.85184   0.85410   0.85631   0.85884   0.86230
 Alpha virt. eigenvalues --    0.86545   0.86788   0.87365   0.87683   0.88556
 Alpha virt. eigenvalues --    0.88945   0.89097   0.89721   0.90068   0.90553
 Alpha virt. eigenvalues --    0.91145   0.91793   0.92558   0.93039   0.94056
 Alpha virt. eigenvalues --    0.94777   0.95978   0.97145   0.97636   0.99031
 Alpha virt. eigenvalues --    0.99500   1.00988   1.01854   1.03076   1.03947
 Alpha virt. eigenvalues --    1.06653   1.06881   1.08369   1.09451   1.09633
 Alpha virt. eigenvalues --    1.12373   1.12991   1.15545   1.16091   1.17065
 Alpha virt. eigenvalues --    1.18830   1.20807   1.21976   1.22882   1.24192
 Alpha virt. eigenvalues --    1.24952   1.25151   1.26576   1.27646   1.28165
 Alpha virt. eigenvalues --    1.29250   1.31274   1.31601   1.32963   1.34278
 Alpha virt. eigenvalues --    1.34750   1.36118   1.37072   1.37752   1.38299
 Alpha virt. eigenvalues --    1.39695   1.43054   1.43462   1.44953   1.45563
 Alpha virt. eigenvalues --    1.46585   1.47660   1.48970   1.49129   1.49762
 Alpha virt. eigenvalues --    1.51402   1.53797   1.54492   1.56338   1.56626
 Alpha virt. eigenvalues --    1.57130   1.58283   1.58628   1.59347   1.60661
 Alpha virt. eigenvalues --    1.61616   1.62105   1.63243   1.63683   1.65214
 Alpha virt. eigenvalues --    1.65977   1.67236   1.67473   1.67957   1.69070
 Alpha virt. eigenvalues --    1.69538   1.69854   1.70624   1.71013   1.72544
 Alpha virt. eigenvalues --    1.73651   1.73973   1.75202   1.75874   1.76438
 Alpha virt. eigenvalues --    1.77266   1.77706   1.78485   1.79689   1.80481
 Alpha virt. eigenvalues --    1.80671   1.80980   1.81726   1.82439   1.83437
 Alpha virt. eigenvalues --    1.83743   1.85158   1.85874   1.86005   1.88773
 Alpha virt. eigenvalues --    1.89389   1.89918   1.90277   1.91625   1.91924
 Alpha virt. eigenvalues --    1.93012   1.93478   1.93520   1.94406   1.95126
 Alpha virt. eigenvalues --    1.95669   1.95962   1.97618   1.97964   1.99064
 Alpha virt. eigenvalues --    1.99149   1.99759   1.99997   2.00275   2.01994
 Alpha virt. eigenvalues --    2.02805   2.04374   2.04978   2.06495   2.07312
 Alpha virt. eigenvalues --    2.08634   2.10641   2.10936   2.13741   2.14225
 Alpha virt. eigenvalues --    2.14640   2.15625   2.15981   2.16470   2.16917
 Alpha virt. eigenvalues --    2.17949   2.18409   2.19744   2.21292   2.21789
 Alpha virt. eigenvalues --    2.22451   2.24876   2.25456   2.26698   2.27888
 Alpha virt. eigenvalues --    2.29236   2.30646   2.31268   2.31494   2.34604
 Alpha virt. eigenvalues --    2.35164   2.35657   2.36011   2.37918   2.39290
 Alpha virt. eigenvalues --    2.39523   2.40182   2.41881   2.42405   2.43527
 Alpha virt. eigenvalues --    2.44308   2.45408   2.47029   2.48208   2.50667
 Alpha virt. eigenvalues --    2.51577   2.52397   2.52967   2.54082   2.55167
 Alpha virt. eigenvalues --    2.56468   2.58089   2.58242   2.61572   2.62125
 Alpha virt. eigenvalues --    2.64137   2.64406   2.66014   2.66897   2.68181
 Alpha virt. eigenvalues --    2.70084   2.71953   2.73432   2.75448   2.81471
 Alpha virt. eigenvalues --    2.82255   2.85059   2.88144   2.92135   2.92765
 Alpha virt. eigenvalues --    2.95626   3.02798   3.05918   3.09515   3.55862
 Alpha virt. eigenvalues --    3.69974   3.71263   3.87930   3.90839   3.91235
 Alpha virt. eigenvalues --    3.96523   4.00116   4.04173   4.07194   4.08362
 Alpha virt. eigenvalues --    4.11114   4.13244   4.17534   4.20483   4.20709
 Alpha virt. eigenvalues --    4.20894   4.24823   4.26719   4.28199   4.34604
 Alpha virt. eigenvalues --    4.38640   4.39987   4.40950   4.44862   4.46711
 Alpha virt. eigenvalues --    4.52539   4.57740   4.61292
          Condensed to atoms (all electrons):
 Mulliken charges:
               1
     1  N   -0.675556
     2  H    0.321004
     3  H    0.307940
     4  C   -0.248617
     5  H    0.171753
     6  H    0.195684
     7  C    0.592974
     8  O   -0.544398
     9  N   -0.591044
    10  H    0.349828
    11  C   -0.066587
    12  H    0.193119
    13  C    0.639336
    14  C   -0.285941
    15  H    0.157713
    16  H    0.159262
    17  O   -0.553116
    18  C   -0.080788
    19  H    0.120454
    20  C   -0.445353
    21  H    0.150675
    22  H    0.162221
    23  H    0.148859
    24  C   -0.455464
    25  H    0.147590
    26  H    0.145586
    27  H    0.167412
    28  N   -0.639986
    29  H    0.407343
    30  C   -0.036469
    31  H    0.204922
    32  C    0.699663
    33  C   -0.117242
    34  H    0.169085
    35  O   -0.447894
    36  C   -0.487428
    37  H    0.155626
    38  H    0.178293
    39  H    0.175431
    40  C   -0.477750
    41  H    0.154169
    42  H    0.177473
    43  H    0.173065
    44  N   -0.592399
    45  H    0.427586
    46  C   -0.065147
    47  H    0.240143
    48  C    0.644032
    49  C   -0.271342
    50  H    0.183604
    51  H    0.186074
    52  O   -0.371476
    53  C   -0.275554
    54  H    0.133718
    55  H    0.178470
    56  C   -0.259590
    57  H    0.140732
    58  H    0.141761
    59  C   -0.145291
    60  H    0.144325
    61  H    0.138827
    62  N   -0.722746
    63  H    0.312206
    64  H    0.303271
    65  O   -0.781970
    66  H    0.417541
    67  H    0.420377
 Sum of Mulliken charges =   1.00000
 Mulliken charges with hydrogens summed into heavy atoms:
               1
     1  N   -0.046612
     4  C    0.118820
     7  C    0.592974
     8  O   -0.544398
     9  N   -0.241216
    11  C    0.126532
    13  C    0.639336
    14  C    0.031034
    17  O   -0.553116
    18  C    0.039667
    20  C    0.016403
    24  C    0.005123
    28  N   -0.232643
    30  C    0.168453
    32  C    0.699663
    33  C    0.051843
    35  O   -0.447894
    36  C    0.021921
    40  C    0.026956
    44  N   -0.164813
    46  C    0.174997
    48  C    0.644032
    49  C    0.098336
    52  O   -0.371476
    53  C    0.036634
    56  C    0.022903
    59  C    0.137861
    62  N   -0.107268
    65  O    0.055948
 Electronic spatial extent (au):  <R**2>=          18478.3792
 Charge=              1.0000 electrons
 Dipole moment (field-independent basis, Debye):
    X=              3.6849    Y=              9.2163    Z=             -4.2650  Tot=             10.8032
 Quadrupole moment (field-independent basis, Debye-Ang):
   XX=           -109.6265   YY=           -137.1283   ZZ=           -140.2969
   XY=             19.3791   XZ=             -7.3704   YZ=            -29.1656
 Traceless Quadrupole moment (field-independent basis, Debye-Ang):
   XX=             19.3907   YY=             -8.1111   ZZ=            -11.2796
   XY=             19.3791   XZ=             -7.3704   YZ=            -29.1656
 Octapole moment (field-independent basis, Debye-Ang**2):
  XXX=            184.6926  YYY=           -357.3345  ZZZ=            255.5998  XYY=            133.4823
  XXY=            -77.8351  XXZ=            109.1762  XZZ=             94.9357  YZZ=            -19.4918
  YYZ=            -56.6765  XYZ=            -75.0844
 Hexadecapole moment (field-independent basis, Debye-Ang**3):
 XXXX=          -8120.9768 YYYY=          -5487.7192 ZZZZ=          -5823.4694 XXXY=           -736.3327
 XXXZ=           1062.0808 YYYX=           -789.0992 YYYZ=           1566.6921 ZZZX=            973.2922
 ZZZY=           1970.0798 XXYY=          -2607.7855 XXZZ=          -2751.3080 YYZZ=          -1284.0410
 XXYZ=            881.1469 YYXZ=            189.5141 ZZXY=           -241.5562
 N-N= 3.037200148130D+03 E-N=-9.300221017253D+03  KE= 1.383516358822D+03
 Unable to Open any file for archive entry.
 1\1\GINC-VIM-000\SP\RB3LYP\6-31G(d)\C19H38N5O5(1+)\KENGMITH\27-May-202
 2\0\\# B3LYP/6-31G* guess=read geom=check nosymm integral(ultrafinegri
 d)\\Candidate Structure: Conf:288 Charge calc in gas phase\\1,1\N,0,-3
 .1440051629,-2.8564291499,3.5875275262\H,0,-2.9393917436,-3.6208403452
 ,2.9468624839\H,0,-2.2544885884,-2.5933267207,4.0067028023\C,0,-3.7040
 796873,-1.7438228939,2.8523730315\H,0,-3.8688790498,-0.9000336199,3.53
 50229687\H,0,-4.6974909009,-2.0287821165,2.4777626338\C,0,-2.886437558
 8,-1.2696608755,1.6415591645\O,0,-1.9912961438,-1.9676433793,1.1463601
 383\N,0,-3.2118816472,-0.0532584032,1.128495127\H,0,-3.9442647539,0.48
 20889745,1.5782557087\C,0,-2.7532081079,0.4184196294,-0.183957032\H,0,
 -2.6837989389,-0.4658817069,-0.8296196957\C,0,-1.3239402848,1.00164032
 46,-0.0976825802\C,0,-3.736861741,1.4349085118,-0.7756883589\H,0,-3.79
 41841279,2.2988335574,-0.1002873562\H,0,-3.3003482057,1.8196925817,-1.
 7046038695\O,0,-1.0614911065,2.17943561,-0.3722338398\C,0,-5.153448540
 2,0.8951336409,-1.0655165136\H,0,-5.5771783849,0.4982135614,-0.1304587
 438\C,0,-6.055815863,2.0497434618,-1.5273496269\H,0,-5.6900945138,2.48
 18327402,-2.4672904253\H,0,-7.079449038,1.7005570339,-1.6986781135\H,0
 ,-6.0953196921,2.8535686018,-0.7830869295\C,0,-5.1508993463,-0.2416796
 193,-2.0987855875\H,0,-4.712749377,0.0926406177,-3.0481311659\H,0,-4.5
 90128214,-1.1201318899,-1.7585231052\H,0,-6.173317853,-0.5738271893,-2
 .3073040402\N,0,-0.361290518,0.1088600347,0.2622501713\H,0,-0.67135368
 76,-0.8408661029,0.507017619\C,0,0.9991362863,0.5536179361,0.56900873\
 H,0,0.9288954577,1.5300257352,1.0670054519\C,0,1.6686122324,0.81986792
 01,-0.7696112756\C,0,1.7931743506,-0.4221871023,1.4671470844\H,0,1.988
 6793582,-1.3336735935,0.8874608152\O,0,2.5661190773,0.0090100492,-1.29
 19717167\C,0,3.1380555495,0.2098644959,1.867837732\H,0,2.975571707,1.0
 772861875,2.5201401387\H,0,3.7312743394,-0.5170722769,2.4308454529\H,0
 ,3.7359171387,0.5341907564,1.0102296483\C,0,0.9886770816,-0.799548986,
 2.7215712152\H,0,0.6935647004,0.0946428414,3.2846375075\H,0,1.61507153
 96,-1.4109550107,3.3785169154\H,0,0.0904226515,-1.3787363179,2.4916028
 084\N,0,1.3515830328,1.8200065117,-1.5442891432\H,0,0.536710621,2.3997
 540799,-1.28888882\C,0,2.0464736081,1.7510462187,-2.8340011832\H,0,1.3
 174507838,1.4778987843,-3.6103424993\C,0,2.948533027,0.549181446,-2.59
 60676401\C,0,2.7868260448,3.0310001023,-3.2560695182\H,0,3.535022323,3
 .2661425417,-2.4934752352\H,0,3.3310916887,2.7762295173,-4.1739529184\
 O,0,3.7960074722,0.0380919939,-3.238873923\C,0,1.8315447855,4.20271077
 65,-3.5118954655\H,0,1.3089900115,4.4716739485,-2.5816542908\H,0,1.058
 9274135,3.918944861,-4.2365331858\C,0,2.5554493137,5.4447958603,-4.048
 3181578\H,0,3.2729741349,5.8189697273,-3.3058278645\H,0,3.1441081051,5
 .1677883871,-4.9353855074\C,0,1.5871292666,6.5749490628,-4.4234500402\
 H,0,0.9927040405,6.848024947,-3.5421402749\H,0,2.1750686009,7.46795774
 71,-4.6942171678\N,0,0.6555717109,6.1327674321,-5.4685481861\H,0,-0.08
 99284445,6.8169736218,-5.5817873574\H,0,1.1383042501,6.0959941559,-6.3
 659467857\O,0,4.7907093047,1.8953114668,-0.8458833028\H,0,5.2220778092
 ,2.5925143922,-0.3277005709\H,0,5.5227292329,1.3437887138,-1.164894921
 2\\Version=ES64L-G16RevC.01\HF=-1396.6121595\RMSD=6.514e-09\Dipole=1.7
 706237,1.468206,-0.1921254\Quadrupole=14.4165406,-6.0304024,-8.3861382
 ,14.4078563,-5.4797427,-21.6838766\PG=C01 [X(C19H38N5O5)]\\@
 The archive entry for this job was punched.


 DO YOU KNOW THAT THE LETTERS IN "EPISCOPAL", WHEN
 REARRANGED, SPELL "PEPSI COLA"?
 Job cpu time:       0 days  0 hours  1 minutes 30.7 seconds.
 Elapsed time:       0 days  0 hours  0 minutes 24.0 seconds.
 File lengths (MBytes):  RWF=   5032 Int=      0 D2E=      0 Chk=     40 Scr=     16
 Normal termination of Gaussian 16 at Fri May 27 02:43:53 2022.
