 Entering Gaussian System, Link 0=/opt/software/Gaussian/g16-AVX2-C.01/g16/g16
 Input=charge-conf-578.com
 Output=charge-conf-578.log
 Initial command:
 /opt/software/Gaussian/g16-AVX2-C.01/g16/l1.exe "/mnt/gs18/scratch/users/kengmith/Gau-61170.inp" -scrdir="/mnt/gs18/scratch/users/kengmith/"
 Entering Link 1 = /opt/software/Gaussian/g16-AVX2-C.01/g16/l1.exe PID=     61208.
  
 Copyright (c) 1988-2019, Gaussian, Inc.  All Rights Reserved.
  
 This is part of the Gaussian(R) 16 program.  It is based on
 the Gaussian(R) 09 system (copyright 2009, Gaussian, Inc.),
 the Gaussian(R) 03 system (copyright 2003, Gaussian, Inc.),
 the Gaussian(R) 98 system (copyright 1998, Gaussian, Inc.),
 the Gaussian(R) 94 system (copyright 1995, Gaussian, Inc.),
 the Gaussian 92(TM) system (copyright 1992, Gaussian, Inc.),
 the Gaussian 90(TM) system (copyright 1990, Gaussian, Inc.),
 the Gaussian 88(TM) system (copyright 1988, Gaussian, Inc.),
 the Gaussian 86(TM) system (copyright 1986, Carnegie Mellon
 University), and the Gaussian 82(TM) system (copyright 1983,
 Carnegie Mellon University). Gaussian is a federally registered
 trademark of Gaussian, Inc.
  
 This software contains proprietary and confidential information,
 including trade secrets, belonging to Gaussian, Inc.
  
 This software is provided under written license and may be
 used, copied, transmitted, or stored only in accord with that
 written license.
  
 The following legend is applicable only to US Government
 contracts under FAR:
  
                    RESTRICTED RIGHTS LEGEND
  
 Use, reproduction and disclosure by the US Government is
 subject to restrictions as set forth in subparagraphs (a)
 and (c) of the Commercial Computer Software - Restricted
 Rights clause in FAR 52.227-19.
  
 Gaussian, Inc.
 340 Quinnipiac St., Bldg. 40, Wallingford CT 06492
  
  
 ---------------------------------------------------------------
 Warning -- This program may not be used in any manner that
 competes with the business of Gaussian, Inc. or will provide
 assistance to any competitor of Gaussian, Inc.  The licensee
 of this program is prohibited from giving any competitor of
 Gaussian, Inc. access to this program.  By using this program,
 the user acknowledges that Gaussian, Inc. is engaged in the
 business of creating and licensing software in the field of
 computational chemistry and represents and warrants to the
 licensee that it is not a competitor of Gaussian, Inc. and that
 it will not use this program in any manner prohibited above.
 ---------------------------------------------------------------
  

 Cite this work as:
 Gaussian 16, Revision C.01,
 M. J. Frisch, G. W. Trucks, H. B. Schlegel, G. E. Scuseria, 
 M. A. Robb, J. R. Cheeseman, G. Scalmani, V. Barone, 
 G. A. Petersson, H. Nakatsuji, X. Li, M. Caricato, A. V. Marenich, 
 J. Bloino, B. G. Janesko, R. Gomperts, B. Mennucci, H. P. Hratchian, 
 J. V. Ortiz, A. F. Izmaylov, J. L. Sonnenberg, D. Williams-Young, 
 F. Ding, F. Lipparini, F. Egidi, J. Goings, B. Peng, A. Petrone, 
 T. Henderson, D. Ranasinghe, V. G. Zakrzewski, J. Gao, N. Rega, 
 G. Zheng, W. Liang, M. Hada, M. Ehara, K. Toyota, R. Fukuda, 
 J. Hasegawa, M. Ishida, T. Nakajima, Y. Honda, O. Kitao, H. Nakai, 
 T. Vreven, K. Throssell, J. A. Montgomery, Jr., J. E. Peralta, 
 F. Ogliaro, M. J. Bearpark, J. J. Heyd, E. N. Brothers, K. N. Kudin, 
 V. N. Staroverov, T. A. Keith, R. Kobayashi, J. Normand, 
 K. Raghavachari, A. P. Rendell, J. C. Burant, S. S. Iyengar, 
 J. Tomasi, M. Cossi, J. M. Millam, M. Klene, C. Adamo, R. Cammi, 
 J. W. Ochterski, R. L. Martin, K. Morokuma, O. Farkas, 
 J. B. Foresman, and D. J. Fox, Gaussian, Inc., Wallingford CT, 2019.
 
 ******************************************
 Gaussian 16:  ES64L-G16RevC.01  3-Jul-2019
                27-May-2022 
 ******************************************
 %mem=8gb
 %nproc=4
 Will use up to    4 processors via shared memory.
 %chk=conf-578.chk
 -------------------------------------------------------------------
 # B3LYP/6-31G* guess=read geom=check nosymm integral(ultrafinegrid)
 -------------------------------------------------------------------
 1/29=2,38=1,172=1/1;
 2/12=2,15=1,40=1/2;
 3/5=1,6=6,7=1,11=2,14=-4,25=1,30=1,74=-5,75=-5,116=-2/1,2,3;
 4/5=1/1;
 5/5=2,38=6/2;
 6/7=2,8=2,9=2,10=2,28=1/1;
 99/5=1,9=1/99;
 ------------------------------------------------------
 Candidate Structure: Conf:578 Charge calc in gas phase
 ------------------------------------------------------
 Structure from the checkpoint file:  "conf-578.chk"
 Charge =  1 Multiplicity = 1
 Redundant internal coordinates found in file.  (old form).
 N,0,-3.3084581407,-1.1593069123,3.8540196701
 H,0,-2.8659546735,-2.0490652238,3.6323276603
 H,0,-2.5882133347,-0.5899907549,4.2937025577
 C,0,-3.7713600826,-0.5310840875,2.6363880469
 H,0,-4.2141530611,0.4451812373,2.874024478
 H,0,-4.584091383,-1.136120267,2.2106042744
 C,0,-2.7127866861,-0.3541842519,1.5364713477
 O,0,-1.623738466,-0.9412985462,1.5812485825
 N,0,-3.0489036901,0.4640849726,0.5027609857
 H,0,-3.9474820297,0.9300440721,0.5281287677
 C,0,-2.2952096785,0.5361896731,-0.7564358689
 H,0,-1.9178991165,-0.4731303499,-0.9590367715
 C,0,-1.054605831,1.4413263477,-0.5900072983
 C,0,-3.1874884518,1.0139790937,-1.9071255307
 H,0,-3.540542216,2.0282776249,-1.6781205899
 H,0,-2.5531278775,1.1150107519,-2.7962689264
 O,0,-0.8918110565,2.5151282942,-1.1787730065
 C,0,-4.384919269,0.1008646203,-2.2454347425
 H,0,-5.0115573032,-0.0032519634,-1.3466016449
 C,0,-5.2445581697,0.7655617425,-3.3315851791
 H,0,-4.6771968134,0.8844036851,-4.2632967981
 H,0,-6.1271400558,0.1578327341,-3.5567237387
 H,0,-5.5908923693,1.7583481159,-3.0214489446
 C,0,-3.9486022072,-1.3066428243,-2.6792706862
 H,0,-3.2946115184,-1.2608300932,-3.5596084304
 H,0,-3.4125175955,-1.8441568594,-1.8885491078
 H,0,-4.8199618562,-1.9131081736,-2.9476839128
 N,0,-0.1084871954,0.9607256191,0.2529848559
 H,0,-0.3388457171,0.119056893,0.7939446834
 C,0,1.0371527458,1.774821426,0.5867208781
 H,0,0.708678522,2.7199494395,1.0450265809
 C,0,1.7772780914,2.1778652078,-0.6631939041
 C,0,1.9922659989,1.0617072748,1.6032084098
 H,0,2.8409867428,1.7466709442,1.7369458798
 O,0,1.9523044161,1.3417062609,-1.6567545399
 C,0,1.2829790455,0.924971161,2.9617881956
 H,0,0.437415377,0.2305509812,2.9126695148
 H,0,1.9880842556,0.5332422562,3.7013279616
 H,0,0.9164524871,1.8910939359,3.3272461434
 C,0,2.5314085508,-0.2876426053,1.1055666318
 H,0,1.7277948599,-1.0152099546,0.9508580894
 H,0,3.2075857901,-0.7033172502,1.8588621627
 H,0,3.095011088,-0.200716271,0.1719412008
 N,0,2.4036207212,3.3167689468,-0.8306538976
 H,0,2.3201994106,4.0959990808,-0.1883891721
 C,0,3.1309599097,3.3762520199,-2.1073703324
 H,0,2.6640512891,4.1335256059,-2.7429927857
 C,0,2.7676033272,2.0168079594,-2.6843573303
 C,0,4.6513084889,3.5864524267,-1.9764711116
 H,0,5.0480246119,3.5104010778,-2.9965159186
 H,0,4.8253571167,4.6210845963,-1.6546133024
 O,0,3.0763380597,1.4516536466,-3.670156836
 C,0,5.3617360165,2.5940099348,-1.0493182547
 H,0,5.1152477711,1.5605143377,-1.3219327333
 H,0,5.0159377702,2.7362333051,-0.0149876956
 C,0,6.888769741,2.7367014408,-1.0870971307
 H,0,7.2379058782,2.6077349821,-2.1220155739
 H,0,7.1859423239,3.7500890993,-0.7855472768
 C,0,7.5997448518,1.7206495925,-0.1836659807
 H,0,8.6843403591,1.9167861975,-0.2194184266
 H,0,7.2876639968,1.8825000282,0.8563708433
 N,0,7.2263322343,0.3477801386,-0.5489927976
 H,0,7.6635112169,0.0991969301,-1.4364225663
 H,0,7.6027938806,-0.3055570029,0.1357272833
 O,0,0.5548598183,3.3974925213,-3.3805759868
 H,0,-0.1999462002,3.1995939157,-2.7949109973
 H,0,0.2602254311,3.1684492425,-4.2744691674
 Recover connectivity data from disk.
                           ----------------------------
                           !    Current Parameters    !
                           ! (Angstroms and Degrees)  !
 --------------------------                            --------------------------
 ! Name  Definition              Value                                          !
 --------------------------------------------------------------------------------
 ! R1    R(1,2)                  1.0181                                         !
 ! R2    R(1,3)                  1.0179                                         !
 ! R3    R(1,4)                  1.4462                                         !
 ! R4    R(4,5)                  1.098                                          !
 ! R5    R(4,6)                  1.099                                          !
 ! R6    R(4,7)                  1.5368                                         !
 ! R7    R(7,8)                  1.238                                          !
 ! R8    R(7,9)                  1.3605                                         !
 ! R9    R(9,10)                 1.0125                                         !
 ! R10   R(9,11)                 1.4693                                         !
 ! R11   R(11,12)                1.0964                                         !
 ! R12   R(11,13)                1.5447                                         !
 ! R13   R(11,14)                1.5325                                         !
 ! R14   R(13,17)                1.2354                                         !
 ! R15   R(13,28)                1.3553                                         !
 ! R16   R(14,15)                1.0981                                         !
 ! R17   R(14,16)                1.0969                                         !
 ! R18   R(14,18)                1.5434                                         !
 ! R19   R(18,19)                1.1006                                         !
 ! R20   R(18,20)                1.5364                                         !
 ! R21   R(18,24)                1.5361                                         !
 ! R22   R(20,21)                1.0973                                         !
 ! R23   R(20,22)                1.095                                          !
 ! R24   R(20,23)                1.0962                                         !
 ! R25   R(24,25)                1.0976                                         !
 ! R26   R(24,26)                1.0962                                         !
 ! R27   R(24,27)                1.095                                          !
 ! R28   R(28,29)                1.0267                                         !
 ! R29   R(28,30)                1.4445                                         !
 ! R30   R(30,31)                1.1005                                         !
 ! R31   R(30,32)                1.5075                                         !
 ! R32   R(30,33)                1.5665                                         !
 ! R33   R(32,35)                1.3103                                         !
 ! R34   R(32,44)                1.3105                                         !
 ! R35   R(33,34)                1.0988                                         !
 ! R36   R(33,36)                1.5387                                         !
 ! R37   R(33,40)                1.5359                                         !
 ! R38   R(36,37)                1.0953                                         !
 ! R39   R(36,38)                1.0943                                         !
 ! R40   R(36,39)                1.096                                          !
 ! R41   R(40,41)                1.095                                          !
 ! R42   R(40,42)                1.0943                                         !
 ! R43   R(40,43)                1.094                                          !
 ! R44   R(44,45)                1.0132                                         !
 ! R45   R(44,46)                1.4706                                         !
 ! R46   R(46,47)                1.0934                                         !
 ! R47   R(46,48)                1.5209                                         !
 ! R48   R(46,49)                1.5404                                         !
 ! R49   R(48,52)                1.1775                                         !
 ! R50   R(48,65)                2.6995                                         !
 ! R51   R(49,50)                1.0971                                         !
 ! R52   R(49,51)                1.0974                                         !
 ! R53   R(49,53)                1.5327                                         !
 ! R54   R(53,54)                1.0969                                         !
 ! R55   R(53,55)                1.0998                                         !
 ! R56   R(53,56)                1.5342                                         !
 ! R57   R(56,57)                1.0998                                         !
 ! R58   R(56,58)                1.0983                                         !
 ! R59   R(56,59)                1.5343                                         !
 ! R60   R(59,60)                1.1028                                         !
 ! R61   R(59,61)                1.0978                                         !
 ! R62   R(59,62)                1.4689                                         !
 ! R63   R(62,63)                1.02                                           !
 ! R64   R(62,64)                1.0185                                         !
 ! R65   R(65,66)                0.9757                                         !
 ! R66   R(65,67)                0.9687                                         !
 ! A1    A(2,1,3)              105.9795                                         !
 ! A2    A(2,1,4)              109.5967                                         !
 ! A3    A(3,1,4)              110.3154                                         !
 ! A4    A(1,4,5)              109.4561                                         !
 ! A5    A(1,4,6)              108.889                                          !
 ! A6    A(1,4,7)              115.6025                                         !
 ! A7    A(5,4,6)              105.9683                                         !
 ! A8    A(5,4,7)              109.2891                                         !
 ! A9    A(6,4,7)              107.1856                                         !
 ! A10   A(4,7,8)              121.6989                                         !
 ! A11   A(4,7,9)              116.286                                          !
 ! A12   A(8,7,9)              122.006                                          !
 ! A13   A(7,9,10)             118.4884                                         !
 ! A14   A(7,9,11)             123.6364                                         !
 ! A15   A(10,9,11)            117.0086                                         !
 ! A16   A(9,11,12)            106.8407                                         !
 ! A17   A(9,11,13)            110.3896                                         !
 ! A18   A(9,11,14)            111.108                                          !
 ! A19   A(12,11,13)           106.4358                                         !
 ! A20   A(12,11,14)           110.4032                                         !
 ! A21   A(13,11,14)           111.4588                                         !
 ! A22   A(11,13,17)           124.3195                                         !
 ! A23   A(11,13,28)           114.8282                                         !
 ! A24   A(17,13,28)           120.8424                                         !
 ! A25   A(11,14,15)           108.577                                          !
 ! A26   A(11,14,16)           107.496                                          !
 ! A27   A(11,14,18)           115.5857                                         !
 ! A28   A(15,14,16)           105.6583                                         !
 ! A29   A(15,14,18)           110.0437                                         !
 ! A30   A(16,14,18)           108.9956                                         !
 ! A31   A(14,18,19)           108.5828                                         !
 ! A32   A(14,18,20)           109.457                                          !
 ! A33   A(14,18,24)           112.5587                                         !
 ! A34   A(19,18,20)           107.4392                                         !
 ! A35   A(19,18,24)           107.7989                                         !
 ! A36   A(20,18,24)           110.8349                                         !
 ! A37   A(18,20,21)           110.966                                          !
 ! A38   A(18,20,22)           110.8684                                         !
 ! A39   A(18,20,23)           111.6274                                         !
 ! A40   A(21,20,22)           107.5947                                         !
 ! A41   A(21,20,23)           107.7869                                         !
 ! A42   A(22,20,23)           107.8278                                         !
 ! A43   A(18,24,25)           110.9471                                         !
 ! A44   A(18,24,26)           112.6122                                         !
 ! A45   A(18,24,27)           110.5282                                         !
 ! A46   A(25,24,26)           107.9165                                         !
 ! A47   A(25,24,27)           107.4958                                         !
 ! A48   A(26,24,27)           107.1216                                         !
 ! A49   A(13,28,29)           117.5039                                         !
 ! A50   A(13,28,30)           119.8359                                         !
 ! A51   A(29,28,30)           121.2133                                         !
 ! A52   A(28,30,31)           110.0896                                         !
 ! A53   A(28,30,32)           110.3957                                         !
 ! A54   A(28,30,33)           112.1427                                         !
 ! A55   A(31,30,32)           105.2014                                         !
 ! A56   A(31,30,33)           107.6193                                         !
 ! A57   A(32,30,33)           111.1232                                         !
 ! A58   A(30,32,35)           121.5785                                         !
 ! A59   A(30,32,44)           124.9562                                         !
 ! A60   A(35,32,44)           113.1934                                         !
 ! A61   A(30,33,34)           105.4346                                         !
 ! A62   A(30,33,36)           109.4101                                         !
 ! A63   A(30,33,40)           113.8098                                         !
 ! A64   A(34,33,36)           107.6971                                         !
 ! A65   A(34,33,40)           108.4182                                         !
 ! A66   A(36,33,40)           111.7044                                         !
 ! A67   A(33,36,37)           111.8775                                         !
 ! A68   A(33,36,38)           109.3592                                         !
 ! A69   A(33,36,39)           111.7298                                         !
 ! A70   A(37,36,38)           107.5047                                         !
 ! A71   A(37,36,39)           108.4001                                         !
 ! A72   A(38,36,39)           107.7985                                         !
 ! A73   A(33,40,41)           111.8321                                         !
 ! A74   A(33,40,42)           109.1219                                         !
 ! A75   A(33,40,43)           112.8011                                         !
 ! A76   A(41,40,42)           107.3581                                         !
 ! A77   A(41,40,43)           108.077                                          !
 ! A78   A(42,40,43)           107.4168                                         !
 ! A79   A(32,44,45)           123.2294                                         !
 ! A80   A(32,44,46)           112.4872                                         !
 ! A81   A(45,44,46)           124.0507                                         !
 ! A82   A(44,46,47)           108.7543                                         !
 ! A83   A(44,46,48)           100.0815                                         !
 ! A84   A(44,46,49)           114.8288                                         !
 ! A85   A(47,46,48)           107.2484                                         !
 ! A86   A(47,46,49)           112.1088                                         !
 ! A87   A(48,46,49)           112.9559                                         !
 ! A88   A(46,48,52)           133.1563                                         !
 ! A89   A(46,48,65)            80.5902                                         !
 ! A90   A(52,48,65)           104.1511                                         !
 ! A91   A(46,49,50)           105.5708                                         !
 ! A92   A(46,49,51)           108.0658                                         !
 ! A93   A(46,49,53)           114.8676                                         !
 ! A94   A(50,49,51)           106.3011                                         !
 ! A95   A(50,49,53)           110.4826                                         !
 ! A96   A(51,49,53)           111.0714                                         !
 ! A97   A(49,53,54)           110.8289                                         !
 ! A98   A(49,53,55)           109.8412                                         !
 ! A99   A(49,53,56)           112.7204                                         !
 ! A100  A(54,53,55)           106.5538                                         !
 ! A101  A(54,53,56)           107.7693                                         !
 ! A102  A(55,53,56)           108.9099                                         !
 ! A103  A(53,56,57)           109.1622                                         !
 ! A104  A(53,56,58)           110.3887                                         !
 ! A105  A(53,56,59)           112.6529                                         !
 ! A106  A(57,56,58)           106.3002                                         !
 ! A107  A(57,56,59)           109.2279                                         !
 ! A108  A(58,56,59)           108.9044                                         !
 ! A109  A(56,59,60)           108.5953                                         !
 ! A110  A(56,59,61)           109.1757                                         !
 ! A111  A(56,59,62)           110.7745                                         !
 ! A112  A(60,59,61)           106.5036                                         !
 ! A113  A(60,59,62)           114.0912                                         !
 ! A114  A(61,59,62)           107.5258                                         !
 ! A115  A(59,62,63)           109.5843                                         !
 ! A116  A(59,62,64)           109.7768                                         !
 ! A117  A(63,62,64)           105.6723                                         !
 ! A118  A(48,65,66)           112.0605                                         !
 ! A119  A(48,65,67)           111.4928                                         !
 ! A120  A(66,65,67)           105.704                                          !
 ! D1    D(2,1,4,5)           -177.8851                                         !
 ! D2    D(2,1,4,6)             66.6954                                         !
 ! D3    D(2,1,4,7)            -53.9844                                         !
 ! D4    D(3,1,4,5)            -61.5637                                         !
 ! D5    D(3,1,4,6)           -176.9832                                         !
 ! D6    D(3,1,4,7)             62.337                                          !
 ! D7    D(1,4,7,8)             13.8197                                         !
 ! D8    D(1,4,7,9)           -167.255                                          !
 ! D9    D(5,4,7,8)            137.8076                                         !
 ! D10   D(5,4,7,9)            -43.2671                                         !
 ! D11   D(6,4,7,8)           -107.7783                                         !
 ! D12   D(6,4,7,9)             71.1471                                         !
 ! D13   D(4,7,9,10)             2.1023                                         !
 ! D14   D(4,7,9,11)          -166.9068                                         !
 ! D15   D(8,7,9,10)          -178.976                                          !
 ! D16   D(8,7,9,11)            12.0149                                         !
 ! D17   D(7,9,11,12)           34.2415                                         !
 ! D18   D(7,9,11,13)          -81.0921                                         !
 ! D19   D(7,9,11,14)          154.7249                                         !
 ! D20   D(10,9,11,12)        -134.9178                                         !
 ! D21   D(10,9,11,13)         109.7487                                         !
 ! D22   D(10,9,11,14)         -14.4343                                         !
 ! D23   D(9,11,13,17)        -114.5989                                         !
 ! D24   D(9,11,13,28)          66.5408                                         !
 ! D25   D(12,11,13,17)        129.8135                                         !
 ! D26   D(12,11,13,28)        -49.0468                                         !
 ! D27   D(14,11,13,17)          9.3821                                         !
 ! D28   D(14,11,13,28)       -169.4782                                         !
 ! D29   D(9,11,14,15)          62.1548                                         !
 ! D30   D(9,11,14,16)         176.0139                                         !
 ! D31   D(9,11,14,18)         -62.0264                                         !
 ! D32   D(12,11,14,15)       -179.491                                          !
 ! D33   D(12,11,14,16)        -65.6318                                         !
 ! D34   D(12,11,14,18)         56.3278                                         !
 ! D35   D(13,11,14,15)        -61.4193                                         !
 ! D36   D(13,11,14,16)         52.4398                                         !
 ! D37   D(13,11,14,18)        174.3995                                         !
 ! D38   D(11,13,28,29)         -7.7155                                         !
 ! D39   D(11,13,28,30)       -174.1608                                         !
 ! D40   D(17,13,28,29)        173.3808                                         !
 ! D41   D(17,13,28,30)          6.9355                                         !
 ! D42   D(11,14,18,19)         58.3334                                         !
 ! D43   D(11,14,18,20)        175.3405                                         !
 ! D44   D(11,14,18,24)        -60.9331                                         !
 ! D45   D(15,14,18,19)        -65.08                                           !
 ! D46   D(15,14,18,20)         51.9271                                         !
 ! D47   D(15,14,18,24)        175.6535                                         !
 ! D48   D(16,14,18,19)        179.4881                                         !
 ! D49   D(16,14,18,20)        -63.5049                                         !
 ! D50   D(16,14,18,24)         60.2215                                         !
 ! D51   D(14,18,20,21)         63.1047                                         !
 ! D52   D(14,18,20,22)       -177.3889                                         !
 ! D53   D(14,18,20,23)        -57.1495                                         !
 ! D54   D(19,18,20,21)       -179.1699                                         !
 ! D55   D(19,18,20,22)        -59.6635                                         !
 ! D56   D(19,18,20,23)         60.5759                                         !
 ! D57   D(24,18,20,21)        -61.6299                                         !
 ! D58   D(24,18,20,22)         57.8766                                         !
 ! D59   D(24,18,20,23)        178.116                                          !
 ! D60   D(14,18,24,25)        -58.6814                                         !
 ! D61   D(14,18,24,26)         62.4011                                         !
 ! D62   D(14,18,24,27)       -177.8301                                         !
 ! D63   D(19,18,24,25)       -178.4034                                         !
 ! D64   D(19,18,24,26)        -57.3209                                         !
 ! D65   D(19,18,24,27)         62.4479                                         !
 ! D66   D(20,18,24,25)         64.2766                                         !
 ! D67   D(20,18,24,26)       -174.6409                                         !
 ! D68   D(20,18,24,27)        -54.8721                                         !
 ! D69   D(13,28,30,31)         58.5746                                         !
 ! D70   D(13,28,30,32)        -57.1383                                         !
 ! D71   D(13,28,30,33)        178.3627                                         !
 ! D72   D(29,28,30,31)       -107.3576                                         !
 ! D73   D(29,28,30,32)        136.9295                                         !
 ! D74   D(29,28,30,33)         12.4305                                         !
 ! D75   D(28,30,32,35)        -40.0354                                         !
 ! D76   D(28,30,32,44)        146.3695                                         !
 ! D77   D(31,30,32,35)       -158.7717                                         !
 ! D78   D(31,30,32,44)         27.6332                                         !
 ! D79   D(33,30,32,35)         85.0456                                         !
 ! D80   D(33,30,32,44)        -88.5496                                         !
 ! D81   D(28,30,33,34)        177.1147                                         !
 ! D82   D(28,30,33,36)        -67.3132                                         !
 ! D83   D(28,30,33,40)         58.4233                                         !
 ! D84   D(31,30,33,34)        -61.6652                                         !
 ! D85   D(31,30,33,36)         53.9069                                         !
 ! D86   D(31,30,33,40)        179.6434                                         !
 ! D87   D(32,30,33,34)         53.02                                           !
 ! D88   D(32,30,33,36)        168.5921                                         !
 ! D89   D(32,30,33,40)        -65.6714                                         !
 ! D90   D(30,32,44,45)        -10.383                                          !
 ! D91   D(30,32,44,46)        174.9615                                         !
 ! D92   D(35,32,44,45)        175.5515                                         !
 ! D93   D(35,32,44,46)          0.896                                          !
 ! D94   D(30,33,36,37)         67.4948                                         !
 ! D95   D(30,33,36,38)       -173.5167                                         !
 ! D96   D(30,33,36,39)        -54.2545                                         !
 ! D97   D(34,33,36,37)       -178.3868                                         !
 ! D98   D(34,33,36,38)        -59.3983                                         !
 ! D99   D(34,33,36,39)         59.8639                                         !
 ! D100  D(40,33,36,37)        -59.4425                                         !
 ! D101  D(40,33,36,38)         59.5461                                         !
 ! D102  D(40,33,36,39)        178.8083                                         !
 ! D103  D(30,33,40,41)        -62.907                                          !
 ! D104  D(30,33,40,42)        178.4689                                         !
 ! D105  D(30,33,40,43)         59.1673                                         !
 ! D106  D(34,33,40,41)       -179.8782                                         !
 ! D107  D(34,33,40,42)         61.4976                                         !
 ! D108  D(34,33,40,43)        -57.8039                                         !
 ! D109  D(36,33,40,41)         61.6063                                         !
 ! D110  D(36,33,40,42)        -57.0178                                         !
 ! D111  D(36,33,40,43)       -176.3194                                         !
 ! D112  D(32,44,46,47)        113.5181                                         !
 ! D113  D(32,44,46,48)          1.2823                                         !
 ! D114  D(32,44,46,49)       -119.9659                                         !
 ! D115  D(45,44,46,47)        -61.086                                          !
 ! D116  D(45,44,46,48)       -173.3218                                         !
 ! D117  D(45,44,46,49)         65.43                                           !
 ! D118  D(44,46,48,52)       -177.2009                                         !
 ! D119  D(44,46,48,65)         82.1776                                         !
 ! D120  D(47,46,48,52)         69.4001                                         !
 ! D121  D(47,46,48,65)        -31.2214                                         !
 ! D122  D(49,46,48,52)        -54.6206                                         !
 ! D123  D(49,46,48,65)       -155.2421                                         !
 ! D124  D(44,46,49,50)        174.6996                                         !
 ! D125  D(44,46,49,51)        -71.8857                                         !
 ! D126  D(44,46,49,53)         52.7258                                         !
 ! D127  D(47,46,49,50)        -60.5273                                         !
 ! D128  D(47,46,49,51)         52.8873                                         !
 ! D129  D(47,46,49,53)        177.4988                                         !
 ! D130  D(48,46,49,50)         60.781                                          !
 ! D131  D(48,46,49,51)        174.1957                                         !
 ! D132  D(48,46,49,53)        -61.1929                                         !
 ! D133  D(46,48,65,66)       -102.6233                                         !
 ! D134  D(46,48,65,67)        139.1183                                         !
 ! D135  D(52,48,65,66)        125.0596                                         !
 ! D136  D(52,48,65,67)          6.8012                                         !
 ! D137  D(46,49,53,54)         52.091                                          !
 ! D138  D(46,49,53,55)        -65.3835                                         !
 ! D139  D(46,49,53,56)        172.9746                                         !
 ! D140  D(50,49,53,54)        -67.1813                                         !
 ! D141  D(50,49,53,55)        175.3442                                         !
 ! D142  D(50,49,53,56)         53.7023                                         !
 ! D143  D(51,49,53,54)        175.107                                          !
 ! D144  D(51,49,53,55)         57.6326                                         !
 ! D145  D(51,49,53,56)        -64.0094                                         !
 ! D146  D(49,53,56,57)        -57.1267                                         !
 ! D147  D(49,53,56,58)         59.3701                                         !
 ! D148  D(49,53,56,59)       -178.6479                                         !
 ! D149  D(54,53,56,57)         65.4886                                         !
 ! D150  D(54,53,56,58)       -178.0146                                         !
 ! D151  D(54,53,56,59)        -56.0326                                         !
 ! D152  D(55,53,56,57)       -179.2947                                         !
 ! D153  D(55,53,56,58)        -62.7979                                         !
 ! D154  D(55,53,56,59)         59.1841                                         !
 ! D155  D(53,56,59,60)       -177.0065                                         !
 ! D156  D(53,56,59,61)        -61.2637                                         !
 ! D157  D(53,56,59,62)         56.9603                                         !
 ! D158  D(57,56,59,60)         61.5096                                         !
 ! D159  D(57,56,59,61)        177.2524                                         !
 ! D160  D(57,56,59,62)        -64.5236                                         !
 ! D161  D(58,56,59,60)        -54.1894                                         !
 ! D162  D(58,56,59,61)         61.5533                                         !
 ! D163  D(58,56,59,62)        179.7773                                         !
 ! D164  D(56,59,62,63)         72.0705                                         !
 ! D165  D(56,59,62,64)       -172.2957                                         !
 ! D166  D(60,59,62,63)        -50.8327                                         !
 ! D167  D(60,59,62,64)         64.8011                                         !
 ! D168  D(61,59,62,63)       -168.7068                                         !
 ! D169  D(61,59,62,64)        -53.073                                          !
 --------------------------------------------------------------------------------
 Symmetry turned off by external request.
 Stoichiometry    C19H38N5O5(1+)
 Framework group  C1[X(C19H38N5O5)]
 Deg. of freedom   195
 Full point group                 C1      NOp   1
                          Input orientation:                          
 ---------------------------------------------------------------------
 Center     Atomic      Atomic             Coordinates (Angstroms)
 Number     Number       Type             X           Y           Z
 ---------------------------------------------------------------------
      1          7           0       -3.308458   -1.159307    3.854020
      2          1           0       -2.865955   -2.049065    3.632328
      3          1           0       -2.588213   -0.589991    4.293703
      4          6           0       -3.771360   -0.531084    2.636388
      5          1           0       -4.214153    0.445181    2.874024
      6          1           0       -4.584091   -1.136120    2.210604
      7          6           0       -2.712787   -0.354184    1.536471
      8          8           0       -1.623738   -0.941299    1.581249
      9          7           0       -3.048904    0.464085    0.502761
     10          1           0       -3.947482    0.930044    0.528129
     11          6           0       -2.295210    0.536190   -0.756436
     12          1           0       -1.917899   -0.473130   -0.959037
     13          6           0       -1.054606    1.441326   -0.590007
     14          6           0       -3.187488    1.013979   -1.907126
     15          1           0       -3.540542    2.028278   -1.678121
     16          1           0       -2.553128    1.115011   -2.796269
     17          8           0       -0.891811    2.515128   -1.178773
     18          6           0       -4.384919    0.100865   -2.245435
     19          1           0       -5.011557   -0.003252   -1.346602
     20          6           0       -5.244558    0.765562   -3.331585
     21          1           0       -4.677197    0.884404   -4.263297
     22          1           0       -6.127140    0.157833   -3.556724
     23          1           0       -5.590892    1.758348   -3.021449
     24          6           0       -3.948602   -1.306643   -2.679271
     25          1           0       -3.294612   -1.260830   -3.559608
     26          1           0       -3.412518   -1.844157   -1.888549
     27          1           0       -4.819962   -1.913108   -2.947684
     28          7           0       -0.108487    0.960726    0.252985
     29          1           0       -0.338846    0.119057    0.793945
     30          6           0        1.037153    1.774821    0.586721
     31          1           0        0.708679    2.719949    1.045027
     32          6           0        1.777278    2.177865   -0.663194
     33          6           0        1.992266    1.061707    1.603208
     34          1           0        2.840987    1.746671    1.736946
     35          8           0        1.952304    1.341706   -1.656755
     36          6           0        1.282979    0.924971    2.961788
     37          1           0        0.437415    0.230551    2.912670
     38          1           0        1.988084    0.533242    3.701328
     39          1           0        0.916452    1.891094    3.327246
     40          6           0        2.531409   -0.287643    1.105567
     41          1           0        1.727795   -1.015210    0.950858
     42          1           0        3.207586   -0.703317    1.858862
     43          1           0        3.095011   -0.200716    0.171941
     44          7           0        2.403621    3.316769   -0.830654
     45          1           0        2.320199    4.095999   -0.188389
     46          6           0        3.130960    3.376252   -2.107370
     47          1           0        2.664051    4.133526   -2.742993
     48          6           0        2.767603    2.016808   -2.684357
     49          6           0        4.651308    3.586452   -1.976471
     50          1           0        5.048025    3.510401   -2.996516
     51          1           0        4.825357    4.621085   -1.654613
     52          8           0        3.076338    1.451654   -3.670157
     53          6           0        5.361736    2.594010   -1.049318
     54          1           0        5.115248    1.560514   -1.321933
     55          1           0        5.015938    2.736233   -0.014988
     56          6           0        6.888770    2.736701   -1.087097
     57          1           0        7.237906    2.607735   -2.122016
     58          1           0        7.185942    3.750089   -0.785547
     59          6           0        7.599745    1.720650   -0.183666
     60          1           0        8.684340    1.916786   -0.219418
     61          1           0        7.287664    1.882500    0.856371
     62          7           0        7.226332    0.347780   -0.548993
     63          1           0        7.663511    0.099197   -1.436423
     64          1           0        7.602794   -0.305557    0.135727
     65          8           0        0.554860    3.397493   -3.380576
     66          1           0       -0.199946    3.199594   -2.794911
     67          1           0        0.260225    3.168449   -4.274469
 ---------------------------------------------------------------------
 Rotational constants (GHZ):           0.2333460           0.0820759           0.0670218
 Standard basis: 6-31G(d) (6D, 7F)
   511 basis functions,   964 primitive gaussians,   511 cartesian basis functions
   113 alpha electrons      113 beta electrons
       nuclear repulsion energy      3097.1209695935 Hartrees.
 NAtoms=   67 NActive=   67 NUniq=   67 SFac= 1.00D+00 NAtFMM=   60 NAOKFM=T Big=T
 Integral buffers will be    131072 words long.
 Raffenetti 2 integral format.
 Two-electron integral symmetry is turned off.
 One-electron integrals computed using PRISM.
 NBasis=   511 RedAO= T EigKep=  1.29D-03  NBF=   511
 NBsUse=   511 1.00D-06 EigRej= -1.00D+00 NBFU=   511
 Initial guess from the checkpoint file:  "conf-578.chk"
 B after Tr=     0.000000    0.000000    0.000000
         Rot=    1.000000    0.000000    0.000000    0.000000 Ang=   0.00 deg.
 Requested convergence on RMS density matrix=1.00D-08 within 128 cycles.
 Requested convergence on MAX density matrix=1.00D-06.
 Requested convergence on             energy=1.00D-06.
 No special actions if energy rises.
 SCF Done:  E(RB3LYP) =  -1396.61215501     A.U. after    2 cycles
            NFock=  2  Conv=0.84D-08     -V/T= 2.0095

 **********************************************************************

            Population analysis using the SCF Density.

 **********************************************************************

 Alpha  occ. eigenvalues --  -19.37399 -19.30602 -19.25351 -19.24553 -19.23488
 Alpha  occ. eigenvalues --  -14.56269 -14.48376 -14.47827 -14.40094 -14.39588
 Alpha  occ. eigenvalues --  -10.49067 -10.47791 -10.41544 -10.39741 -10.39512
 Alpha  occ. eigenvalues --  -10.39223 -10.34973 -10.33468 -10.32212 -10.31550
 Alpha  occ. eigenvalues --  -10.29329 -10.29257 -10.29078 -10.28900 -10.28740
 Alpha  occ. eigenvalues --  -10.28354 -10.27744 -10.25810 -10.25483  -1.29690
 Alpha  occ. eigenvalues --   -1.21257  -1.16998  -1.14828  -1.12498  -1.10270
 Alpha  occ. eigenvalues --   -1.06012  -1.03904  -0.97253  -0.96490  -0.95851
 Alpha  occ. eigenvalues --   -0.92938  -0.90787  -0.88783  -0.86389  -0.84599
 Alpha  occ. eigenvalues --   -0.81155  -0.80384  -0.79802  -0.78750  -0.77795
 Alpha  occ. eigenvalues --   -0.76714  -0.75642  -0.72882  -0.71482  -0.70510
 Alpha  occ. eigenvalues --   -0.69547  -0.68225  -0.67746  -0.65961  -0.65486
 Alpha  occ. eigenvalues --   -0.64151  -0.63603  -0.62424  -0.61917  -0.60400
 Alpha  occ. eigenvalues --   -0.59995  -0.59362  -0.58829  -0.58509  -0.58406
 Alpha  occ. eigenvalues --   -0.56996  -0.56812  -0.56493  -0.55744  -0.55056
 Alpha  occ. eigenvalues --   -0.54366  -0.54343  -0.53964  -0.53558  -0.53163
 Alpha  occ. eigenvalues --   -0.52122  -0.51707  -0.51141  -0.50993  -0.50558
 Alpha  occ. eigenvalues --   -0.49945  -0.49238  -0.49013  -0.48432  -0.48013
 Alpha  occ. eigenvalues --   -0.47938  -0.47177  -0.46705  -0.46466  -0.46060
 Alpha  occ. eigenvalues --   -0.45875  -0.45532  -0.45432  -0.45200  -0.43893
 Alpha  occ. eigenvalues --   -0.43526  -0.43003  -0.42569  -0.41913  -0.41642
 Alpha  occ. eigenvalues --   -0.41531  -0.40527  -0.40157  -0.39015  -0.37482
 Alpha  occ. eigenvalues --   -0.36442  -0.32623  -0.31955
 Alpha virt. eigenvalues --   -0.19002  -0.13528  -0.11503  -0.08980  -0.07737
 Alpha virt. eigenvalues --   -0.04171  -0.02859  -0.02683  -0.02322  -0.01820
 Alpha virt. eigenvalues --   -0.00880  -0.00646   0.00172   0.00253   0.01136
 Alpha virt. eigenvalues --    0.01705   0.02200   0.03144   0.03482   0.03695
 Alpha virt. eigenvalues --    0.03965   0.04505   0.04817   0.04940   0.05710
 Alpha virt. eigenvalues --    0.05911   0.05952   0.06047   0.06238   0.07101
 Alpha virt. eigenvalues --    0.07242   0.07513   0.07946   0.08123   0.08220
 Alpha virt. eigenvalues --    0.08666   0.09106   0.09402   0.09765   0.09903
 Alpha virt. eigenvalues --    0.10269   0.10680   0.10900   0.11008   0.11236
 Alpha virt. eigenvalues --    0.11413   0.12036   0.12162   0.12746   0.13314
 Alpha virt. eigenvalues --    0.13930   0.14396   0.14503   0.15239   0.15425
 Alpha virt. eigenvalues --    0.15497   0.16711   0.16790   0.17796   0.18133
 Alpha virt. eigenvalues --    0.18986   0.19395   0.20039   0.21035   0.22524
 Alpha virt. eigenvalues --    0.24170   0.26216   0.26978   0.28999   0.31677
 Alpha virt. eigenvalues --    0.35090   0.36983   0.37592   0.38316   0.38740
 Alpha virt. eigenvalues --    0.39797   0.40194   0.40539   0.41167   0.41725
 Alpha virt. eigenvalues --    0.42255   0.43090   0.43340   0.43783   0.44094
 Alpha virt. eigenvalues --    0.44700   0.46032   0.46331   0.47089   0.47440
 Alpha virt. eigenvalues --    0.47910   0.48134   0.48999   0.49925   0.50333
 Alpha virt. eigenvalues --    0.50826   0.51284   0.51796   0.52404   0.53492
 Alpha virt. eigenvalues --    0.54252   0.54435   0.54861   0.55314   0.56432
 Alpha virt. eigenvalues --    0.57242   0.57868   0.58304   0.58787   0.59203
 Alpha virt. eigenvalues --    0.59270   0.60779   0.62431   0.62885   0.63523
 Alpha virt. eigenvalues --    0.64147   0.64402   0.64673   0.65281   0.65520
 Alpha virt. eigenvalues --    0.65698   0.66628   0.67960   0.68919   0.69590
 Alpha virt. eigenvalues --    0.69991   0.70230   0.71148   0.71482   0.72003
 Alpha virt. eigenvalues --    0.72501   0.73029   0.73467   0.73789   0.74175
 Alpha virt. eigenvalues --    0.74363   0.75095   0.76012   0.76638   0.76791
 Alpha virt. eigenvalues --    0.77323   0.78096   0.78214   0.79085   0.79321
 Alpha virt. eigenvalues --    0.79435   0.79853   0.80350   0.80877   0.81175
 Alpha virt. eigenvalues --    0.81567   0.82129   0.82183   0.82317   0.82665
 Alpha virt. eigenvalues --    0.82844   0.83068   0.83164   0.83482   0.83734
 Alpha virt. eigenvalues --    0.85089   0.85383   0.85464   0.85912   0.86241
 Alpha virt. eigenvalues --    0.86869   0.87177   0.87704   0.87921   0.88712
 Alpha virt. eigenvalues --    0.89133   0.89451   0.89602   0.90381   0.90591
 Alpha virt. eigenvalues --    0.91345   0.92296   0.92528   0.93405   0.94055
 Alpha virt. eigenvalues --    0.94707   0.95383   0.96145   0.96890   0.98048
 Alpha virt. eigenvalues --    0.99307   0.99848   1.00999   1.01298   1.04520
 Alpha virt. eigenvalues --    1.05895   1.06860   1.08883   1.10052   1.11996
 Alpha virt. eigenvalues --    1.12813   1.14600   1.15646   1.16161   1.18038
 Alpha virt. eigenvalues --    1.19666   1.20592   1.22024   1.22187   1.23499
 Alpha virt. eigenvalues --    1.24921   1.25453   1.26560   1.27476   1.29384
 Alpha virt. eigenvalues --    1.30572   1.31599   1.32760   1.33249   1.34249
 Alpha virt. eigenvalues --    1.34553   1.36260   1.37220   1.37851   1.38159
 Alpha virt. eigenvalues --    1.41201   1.41917   1.42421   1.44049   1.45502
 Alpha virt. eigenvalues --    1.45980   1.47470   1.48029   1.49851   1.51549
 Alpha virt. eigenvalues --    1.52069   1.54535   1.54837   1.55659   1.57011
 Alpha virt. eigenvalues --    1.57435   1.58377   1.59716   1.59982   1.60645
 Alpha virt. eigenvalues --    1.61023   1.61768   1.62895   1.64872   1.65231
 Alpha virt. eigenvalues --    1.66438   1.66660   1.68084   1.68616   1.69190
 Alpha virt. eigenvalues --    1.69963   1.70095   1.70580   1.71063   1.72195
 Alpha virt. eigenvalues --    1.73420   1.74252   1.75569   1.76444   1.76825
 Alpha virt. eigenvalues --    1.77039   1.78395   1.78758   1.79829   1.80452
 Alpha virt. eigenvalues --    1.80982   1.81747   1.82163   1.82681   1.84472
 Alpha virt. eigenvalues --    1.85192   1.85874   1.86381   1.88087   1.88607
 Alpha virt. eigenvalues --    1.89137   1.89876   1.91053   1.91613   1.92003
 Alpha virt. eigenvalues --    1.93286   1.93473   1.93855   1.94840   1.95527
 Alpha virt. eigenvalues --    1.96006   1.96375   1.97262   1.98350   1.98746
 Alpha virt. eigenvalues --    1.99476   2.00148   2.01085   2.02135   2.03160
 Alpha virt. eigenvalues --    2.03622   2.04698   2.05792   2.06670   2.07373
 Alpha virt. eigenvalues --    2.09210   2.10546   2.11494   2.13651   2.13936
 Alpha virt. eigenvalues --    2.14460   2.15462   2.15763   2.17606   2.17818
 Alpha virt. eigenvalues --    2.18276   2.19977   2.21314   2.21692   2.22816
 Alpha virt. eigenvalues --    2.23948   2.24852   2.26098   2.26797   2.27937
 Alpha virt. eigenvalues --    2.29775   2.30680   2.31255   2.32080   2.33506
 Alpha virt. eigenvalues --    2.34908   2.35385   2.36754   2.37268   2.38751
 Alpha virt. eigenvalues --    2.39367   2.39572   2.40261   2.41766   2.42319
 Alpha virt. eigenvalues --    2.44747   2.45218   2.47131   2.49674   2.50090
 Alpha virt. eigenvalues --    2.51325   2.52021   2.53542   2.54507   2.55809
 Alpha virt. eigenvalues --    2.57512   2.58752   2.60235   2.61193   2.62388
 Alpha virt. eigenvalues --    2.63763   2.64100   2.66532   2.68189   2.69948
 Alpha virt. eigenvalues --    2.70017   2.72086   2.73466   2.74263   2.80935
 Alpha virt. eigenvalues --    2.81445   2.86314   2.88336   2.91961   2.93750
 Alpha virt. eigenvalues --    2.93919   3.04364   3.07026   3.10687   3.65034
 Alpha virt. eigenvalues --    3.69610   3.70895   3.85926   3.90330   3.93079
 Alpha virt. eigenvalues --    3.98114   4.01217   4.03477   4.08339   4.09457
 Alpha virt. eigenvalues --    4.10757   4.17089   4.19485   4.20649   4.21233
 Alpha virt. eigenvalues --    4.23204   4.25099   4.27605   4.31759   4.35137
 Alpha virt. eigenvalues --    4.38599   4.39887   4.43029   4.45152   4.47005
 Alpha virt. eigenvalues --    4.54719   4.58239   4.61567
          Condensed to atoms (all electrons):
 Mulliken charges:
               1
     1  N   -0.673244
     2  H    0.320198
     3  H    0.305690
     4  C   -0.248799
     5  H    0.172482
     6  H    0.195305
     7  C    0.588430
     8  O   -0.544789
     9  N   -0.594138
    10  H    0.349473
    11  C   -0.070427
    12  H    0.197263
    13  C    0.652498
    14  C   -0.288766
    15  H    0.156888
    16  H    0.151895
    17  O   -0.558353
    18  C   -0.080732
    19  H    0.121053
    20  C   -0.445447
    21  H    0.149177
    22  H    0.163520
    23  H    0.148502
    24  C   -0.455207
    25  H    0.149747
    26  H    0.146904
    27  H    0.167272
    28  N   -0.640212
    29  H    0.413690
    30  C   -0.022701
    31  H    0.181707
    32  C    0.732620
    33  C   -0.130748
    34  H    0.151902
    35  O   -0.449903
    36  C   -0.467288
    37  H    0.180633
    38  H    0.182231
    39  H    0.155804
    40  C   -0.465482
    41  H    0.177697
    42  H    0.180736
    43  H    0.169602
    44  N   -0.604926
    45  H    0.387322
    46  C   -0.050353
    47  H    0.270470
    48  C    0.646727
    49  C   -0.281999
    50  H    0.197399
    51  H    0.172073
    52  O   -0.365214
    53  C   -0.281486
    54  H    0.181824
    55  H    0.126322
    56  C   -0.263723
    57  H    0.147109
    58  H    0.146555
    59  C   -0.143622
    60  H    0.142069
    61  H    0.140520
    62  N   -0.726163
    63  H    0.305219
    64  H    0.311871
    65  O   -0.832481
    66  H    0.437062
    67  H    0.410743
 Sum of Mulliken charges =   1.00000
 Mulliken charges with hydrogens summed into heavy atoms:
               1
     1  N   -0.047357
     4  C    0.118989
     7  C    0.588430
     8  O   -0.544789
     9  N   -0.244665
    11  C    0.126836
    13  C    0.652498
    14  C    0.020017
    17  O   -0.558353
    18  C    0.040321
    20  C    0.015752
    24  C    0.008716
    28  N   -0.226522
    30  C    0.159006
    32  C    0.732620
    33  C    0.021154
    35  O   -0.449903
    36  C    0.051380
    40  C    0.062553
    44  N   -0.217604
    46  C    0.220118
    48  C    0.646727
    49  C    0.087473
    52  O   -0.365214
    53  C    0.026659
    56  C    0.029941
    59  C    0.138967
    62  N   -0.109073
    65  O    0.015323
 Electronic spatial extent (au):  <R**2>=          18081.1307
 Charge=              1.0000 electrons
 Dipole moment (field-independent basis, Debye):
    X=              6.5071    Y=             10.5843    Z=             -1.5871  Tot=             12.5255
 Quadrupole moment (field-independent basis, Debye-Ang):
   XX=            -84.7537   YY=           -139.2695   ZZ=           -157.8596
   XY=             27.1331   XZ=              4.6460   YZ=             -6.0575
 Traceless Quadrupole moment (field-independent basis, Debye-Ang):
   XX=             42.5406   YY=            -11.9753   ZZ=            -30.5653
   XY=             27.1331   XZ=              4.6460   YZ=             -6.0575
 Octapole moment (field-independent basis, Debye-Ang**2):
  XXX=             20.2661  YYY=           -495.3004  ZZZ=            216.6786  XYY=              6.1683
  XXY=            -74.0769  XXZ=              6.1763  XZZ=            -86.6942  YZZ=           -152.2165
  YYZ=             64.6273  XYZ=            -44.3016
 Hexadecapole moment (field-independent basis, Debye-Ang**3):
 XXXX=         -11143.3551 YYYY=          -3324.5150 ZZZZ=          -4483.9852 XXXY=          -1518.9627
 XXXZ=            311.5302 YYYX=          -1478.1997 YYYZ=            894.2811 ZZZX=            743.9613
 ZZZY=            875.7451 XXYY=          -2645.9362 XXZZ=          -3219.1585 YYZZ=          -1275.4114
 XXYZ=            229.8790 YYXZ=             29.0297 ZZXY=           -650.4439
 N-N= 3.097120969593D+03 E-N=-9.419887486710D+03  KE= 1.383531208515D+03
 Unable to Open any file for archive entry.
 1\1\GINC-VIM-002\SP\RB3LYP\6-31G(d)\C19H38N5O5(1+)\KENGMITH\27-May-202
 2\0\\# B3LYP/6-31G* guess=read geom=check nosymm integral(ultrafinegri
 d)\\Candidate Structure: Conf:578 Charge calc in gas phase\\1,1\N,0,-3
 .3084581407,-1.1593069123,3.8540196701\H,0,-2.8659546735,-2.0490652238
 ,3.6323276603\H,0,-2.5882133347,-0.5899907549,4.2937025577\C,0,-3.7713
 600826,-0.5310840875,2.6363880469\H,0,-4.2141530611,0.4451812373,2.874
 024478\H,0,-4.584091383,-1.136120267,2.2106042744\C,0,-2.7127866861,-0
 .3541842519,1.5364713477\O,0,-1.623738466,-0.9412985462,1.5812485825\N
 ,0,-3.0489036901,0.4640849726,0.5027609857\H,0,-3.9474820297,0.9300440
 721,0.5281287677\C,0,-2.2952096785,0.5361896731,-0.7564358689\H,0,-1.9
 178991165,-0.4731303499,-0.9590367715\C,0,-1.054605831,1.4413263477,-0
 .5900072983\C,0,-3.1874884518,1.0139790937,-1.9071255307\H,0,-3.540542
 216,2.0282776249,-1.6781205899\H,0,-2.5531278775,1.1150107519,-2.79626
 89264\O,0,-0.8918110565,2.5151282942,-1.1787730065\C,0,-4.384919269,0.
 1008646203,-2.2454347425\H,0,-5.0115573032,-0.0032519634,-1.3466016449
 \C,0,-5.2445581697,0.7655617425,-3.3315851791\H,0,-4.6771968134,0.8844
 036851,-4.2632967981\H,0,-6.1271400558,0.1578327341,-3.5567237387\H,0,
 -5.5908923693,1.7583481159,-3.0214489446\C,0,-3.9486022072,-1.30664282
 43,-2.6792706862\H,0,-3.2946115184,-1.2608300932,-3.5596084304\H,0,-3.
 4125175955,-1.8441568594,-1.8885491078\H,0,-4.8199618562,-1.9131081736
 ,-2.9476839128\N,0,-0.1084871954,0.9607256191,0.2529848559\H,0,-0.3388
 457171,0.119056893,0.7939446834\C,0,1.0371527458,1.774821426,0.5867208
 781\H,0,0.708678522,2.7199494395,1.0450265809\C,0,1.7772780914,2.17786
 52078,-0.6631939041\C,0,1.9922659989,1.0617072748,1.6032084098\H,0,2.8
 409867428,1.7466709442,1.7369458798\O,0,1.9523044161,1.3417062609,-1.6
 567545399\C,0,1.2829790455,0.924971161,2.9617881956\H,0,0.437415377,0.
 2305509812,2.9126695148\H,0,1.9880842556,0.5332422562,3.7013279616\H,0
 ,0.9164524871,1.8910939359,3.3272461434\C,0,2.5314085508,-0.2876426053
 ,1.1055666318\H,0,1.7277948599,-1.0152099546,0.9508580894\H,0,3.207585
 7901,-0.7033172502,1.8588621627\H,0,3.095011088,-0.200716271,0.1719412
 008\N,0,2.4036207212,3.3167689468,-0.8306538976\H,0,2.3201994106,4.095
 9990808,-0.1883891721\C,0,3.1309599097,3.3762520199,-2.1073703324\H,0,
 2.6640512891,4.1335256059,-2.7429927857\C,0,2.7676033272,2.0168079594,
 -2.6843573303\C,0,4.6513084889,3.5864524267,-1.9764711116\H,0,5.048024
 6119,3.5104010778,-2.9965159186\H,0,4.8253571167,4.6210845963,-1.65461
 33024\O,0,3.0763380597,1.4516536466,-3.670156836\C,0,5.3617360165,2.59
 40099348,-1.0493182547\H,0,5.1152477711,1.5605143377,-1.3219327333\H,0
 ,5.0159377702,2.7362333051,-0.0149876956\C,0,6.888769741,2.7367014408,
 -1.0870971307\H,0,7.2379058782,2.6077349821,-2.1220155739\H,0,7.185942
 3239,3.7500890993,-0.7855472768\C,0,7.5997448518,1.7206495925,-0.18366
 59807\H,0,8.6843403591,1.9167861975,-0.2194184266\H,0,7.2876639968,1.8
 825000282,0.8563708433\N,0,7.2263322343,0.3477801386,-0.5489927976\H,0
 ,7.6635112169,0.0991969301,-1.4364225663\H,0,7.6027938806,-0.305557002
 9,0.1357272833\O,0,0.5548598183,3.3974925213,-3.3805759868\H,0,-0.1999
 462002,3.1995939157,-2.7949109973\H,0,0.2602254311,3.1684492425,-4.274
 4691674\\Version=ES64L-G16RevC.01\HF=-1396.612155\RMSD=8.448e-09\Dipol
 e=1.3332597,1.9159297,0.4108274\Quadrupole=31.6278779,-8.9033268,-22.7
 24551,20.1727759,3.4541915,-4.503601\PG=C01 [X(C19H38N5O5)]\\@
 The archive entry for this job was punched.


 ACTORS ARE SO FORTUNATE.  THEY CAN CHOOSE WHETHER
 THEY WILL APPEAR IN A TRAGEDY OR IN COMEDY,
 WHETHER THEY WILL SUFFER OF MAKE MERRY,
 LAUGH OR SHED TEARS.  BUT IN REAL LIFE IT IS DIFFERENT.
 MOST MEN AND WOMEN ARE FORCED TO PERFORM
 PARTS FOR WHICH THEY HAVE NO QUALIFICATIONS.
 THE WORLD IS A STAGE, BUT THE PLAY IS BADLY CAST.

                                   -- OSCAR WILDE
 Job cpu time:       0 days  0 hours  2 minutes 24.7 seconds.
 Elapsed time:       0 days  0 hours  0 minutes 36.9 seconds.
 File lengths (MBytes):  RWF=    256 Int=      0 D2E=      0 Chk=     40 Scr=     16
 Normal termination of Gaussian 16 at Fri May 27 02:44:12 2022.
