 Entering Gaussian System, Link 0=/opt/software/Gaussian/g16-AVX2-C.01/g16/g16
 Input=charge-conf-962.com
 Output=charge-conf-962.log
 Initial command:
 /opt/software/Gaussian/g16-AVX2-C.01/g16/l1.exe "/mnt/gs18/scratch/users/kengmith/Gau-22078.inp" -scrdir="/mnt/gs18/scratch/users/kengmith/"
 Entering Link 1 = /opt/software/Gaussian/g16-AVX2-C.01/g16/l1.exe PID=     22088.
  
 Copyright (c) 1988-2019, Gaussian, Inc.  All Rights Reserved.
  
 This is part of the Gaussian(R) 16 program.  It is based on
 the Gaussian(R) 09 system (copyright 2009, Gaussian, Inc.),
 the Gaussian(R) 03 system (copyright 2003, Gaussian, Inc.),
 the Gaussian(R) 98 system (copyright 1998, Gaussian, Inc.),
 the Gaussian(R) 94 system (copyright 1995, Gaussian, Inc.),
 the Gaussian 92(TM) system (copyright 1992, Gaussian, Inc.),
 the Gaussian 90(TM) system (copyright 1990, Gaussian, Inc.),
 the Gaussian 88(TM) system (copyright 1988, Gaussian, Inc.),
 the Gaussian 86(TM) system (copyright 1986, Carnegie Mellon
 University), and the Gaussian 82(TM) system (copyright 1983,
 Carnegie Mellon University). Gaussian is a federally registered
 trademark of Gaussian, Inc.
  
 This software contains proprietary and confidential information,
 including trade secrets, belonging to Gaussian, Inc.
  
 This software is provided under written license and may be
 used, copied, transmitted, or stored only in accord with that
 written license.
  
 The following legend is applicable only to US Government
 contracts under FAR:
  
                    RESTRICTED RIGHTS LEGEND
  
 Use, reproduction and disclosure by the US Government is
 subject to restrictions as set forth in subparagraphs (a)
 and (c) of the Commercial Computer Software - Restricted
 Rights clause in FAR 52.227-19.
  
 Gaussian, Inc.
 340 Quinnipiac St., Bldg. 40, Wallingford CT 06492
  
  
 ---------------------------------------------------------------
 Warning -- This program may not be used in any manner that
 competes with the business of Gaussian, Inc. or will provide
 assistance to any competitor of Gaussian, Inc.  The licensee
 of this program is prohibited from giving any competitor of
 Gaussian, Inc. access to this program.  By using this program,
 the user acknowledges that Gaussian, Inc. is engaged in the
 business of creating and licensing software in the field of
 computational chemistry and represents and warrants to the
 licensee that it is not a competitor of Gaussian, Inc. and that
 it will not use this program in any manner prohibited above.
 ---------------------------------------------------------------
  

 Cite this work as:
 Gaussian 16, Revision C.01,
 M. J. Frisch, G. W. Trucks, H. B. Schlegel, G. E. Scuseria, 
 M. A. Robb, J. R. Cheeseman, G. Scalmani, V. Barone, 
 G. A. Petersson, H. Nakatsuji, X. Li, M. Caricato, A. V. Marenich, 
 J. Bloino, B. G. Janesko, R. Gomperts, B. Mennucci, H. P. Hratchian, 
 J. V. Ortiz, A. F. Izmaylov, J. L. Sonnenberg, D. Williams-Young, 
 F. Ding, F. Lipparini, F. Egidi, J. Goings, B. Peng, A. Petrone, 
 T. Henderson, D. Ranasinghe, V. G. Zakrzewski, J. Gao, N. Rega, 
 G. Zheng, W. Liang, M. Hada, M. Ehara, K. Toyota, R. Fukuda, 
 J. Hasegawa, M. Ishida, T. Nakajima, Y. Honda, O. Kitao, H. Nakai, 
 T. Vreven, K. Throssell, J. A. Montgomery, Jr., J. E. Peralta, 
 F. Ogliaro, M. J. Bearpark, J. J. Heyd, E. N. Brothers, K. N. Kudin, 
 V. N. Staroverov, T. A. Keith, R. Kobayashi, J. Normand, 
 K. Raghavachari, A. P. Rendell, J. C. Burant, S. S. Iyengar, 
 J. Tomasi, M. Cossi, J. M. Millam, M. Klene, C. Adamo, R. Cammi, 
 J. W. Ochterski, R. L. Martin, K. Morokuma, O. Farkas, 
 J. B. Foresman, and D. J. Fox, Gaussian, Inc., Wallingford CT, 2019.
 
 ******************************************
 Gaussian 16:  ES64L-G16RevC.01  3-Jul-2019
                27-Jun-2022 
 ******************************************
 %mem=8gb
 %nproc=4
 Will use up to    4 processors via shared memory.
 %chk=conf-962.chk
 ----------------------------------------------------------------------
 # B3LYP/6-31G* empiricaldispersion=gd3bj guess=read geom=check nosymm 
 integral(ultrafinegrid)
 ----------------------------------------------------------------------
 1/29=2,38=1,172=1/1;
 2/12=2,15=1,40=1/2;
 3/5=1,6=6,7=1,11=2,14=-4,25=1,30=1,74=-5,75=-5,116=-2,124=41/1,2,3;
 4/5=1/1;
 5/5=2,38=6/2;
 6/7=2,8=2,9=2,10=2,28=1/1;
 99/5=1,9=1/99;
 ------------------------------------------------------
 Candidate Structure: Conf:962 Charge calc in gas phase
 ------------------------------------------------------
 Structure from the checkpoint file:  "conf-962.chk"
 Charge =  1 Multiplicity = 1
 Redundant internal coordinates found in file.  (old form).
 N,0,-4.4739850315,1.76021329,2.9474640536
 H,0,-5.2235754364,1.0712323296,2.9214306313
 H,0,-4.5696259894,2.2812133735,3.8153543883
 C,0,-3.1666365927,1.1195729155,2.8676195537
 H,0,-2.4120637407,1.8917328629,3.0669448165
 C,0,-2.8681707602,0.679555888,1.4354073406
 C,0,-2.8842079254,-0.0380949123,3.8396885811
 H,0,-3.1330494047,0.2885763076,4.8566291231
 H,0,-3.5090211304,-0.9068646912,3.6052520209
 O,0,-2.1420050799,-0.288788349,1.192742892
 C,0,-1.4047597872,-0.3969472208,3.8311203321
 N,0,-1.0999817159,-1.7168480027,3.9018779509
 H,0,-0.12681075,-1.9776116518,3.8133574664
 H,0,-1.7875470596,-2.4114370182,3.6498033128
 O,0,-0.5422150406,0.4844754859,3.8439722191
 N,0,-3.3729386119,1.47752873,0.4628028706
 H,0,-3.8238689933,2.3306052834,0.7816353067
 C,0,-2.6944841245,1.4913496272,-0.8215559028
 H,0,-2.8029546142,0.5022469206,-1.2796408571
 C,0,-1.1987614155,1.7465574519,-0.5534085848
 C,0,-3.3239762696,2.5370723195,-1.7724263091
 H,0,-2.692901786,2.5912688346,-2.6670549073
 H,0,-4.2964573735,2.145240398,-2.0896264831
 O,0,-0.8175010903,2.5893577111,0.2491128428
 C,0,-3.5082838452,3.9097321122,-1.1664191229
 C,0,-4.7346028963,4.2578979027,-0.5855332697
 H,0,-5.5584374,3.5478831274,-0.6093764999
 C,0,-2.4651933657,4.8431941514,-1.1444046844
 H,0,-1.5055672904,4.5855735758,-1.5816305819
 C,0,-4.914451562,5.5064678622,0.0118384955
 H,0,-5.8728973879,5.7596496934,0.4554693949
 C,0,-2.6432274962,6.0921788322,-0.554139978
 H,0,-1.8241766795,6.8054316192,-0.5456833649
 C,0,-3.8675300662,6.4268939478,0.0282502686
 H,0,-4.0044324007,7.4013183938,0.4877850922
 N,0,-0.3255682916,0.9564548412,-1.242211769
 H,0,-0.6676889035,0.1530191213,-1.7513183961
 C,0,1.0493263803,0.8955021052,-0.7917203029
 H,0,1.4089073623,1.9226452398,-0.6818827422
 C,0,1.8833845079,0.1973666594,-1.8656842037
 C,0,1.1672470351,0.1981281785,0.5976461211
 H,0,1.3142277132,-0.8816898358,0.4651075299
 H,0,0.2217765562,0.3237313487,1.1264008181
 O,0,1.3675918043,-0.3016225286,-2.878721245
 C,0,2.3166320523,0.738726841,1.4386761932
 N,0,2.0943938697,0.7851292429,2.7603488102
 H,0,2.8292010953,1.1719057978,3.3386424485
 H,0,1.167142047,0.6451897399,3.1729558359
 O,0,3.399080851,1.084014818,0.9323326532
 N,0,3.2115006772,0.1643035604,-1.6035279274
 H,0,3.5258165156,0.5480916585,-0.6897183687
 C,0,4.0980669822,-0.4811737002,-2.5386726247
 H,0,3.4327363059,-0.8399805639,-3.3077017957
 C,0,4.768138519,-1.73078414,-1.9980237976
 C,0,5.1138403418,0.4901589946,-3.1728674751
 H,0,4.5176882806,1.2980513241,-3.6121620937
 H,0,5.7201852898,0.9500044475,-2.385205084
 O,0,4.8558870755,-2.7640132475,-2.6492000187
 C,0,6.0624978823,-0.1069802967,-4.2316645885
 H,0,6.5812020429,0.7313001794,-4.7095818094
 H,0,6.8445745392,-0.7029984212,-3.7475348078
 C,0,5.4438043751,-1.0106888246,-5.3268078899
 H,0,6.0797989574,-1.0028931137,-6.2164563015
 H,0,5.3927201752,-2.0424831742,-4.9860943848
 N,0,4.0902603096,-0.6035926482,-5.7316889473
 H,0,3.9881279322,0.3437747577,-6.072358371
 N,0,2.957242731,-2.4554198895,-4.869444679
 H,0,2.0569995085,-2.8931331082,-4.7256574835
 H,0,3.6980984486,-2.7320945622,-4.2167902506
 N,0,1.7585757037,-0.7346042271,-5.8276622521
 H,0,1.0668521978,-0.7462699486,-5.080251648
 H,0,1.766035676,0.1317381452,-6.3511056694
 C,0,2.9565688322,-1.2575558092,-5.4635219517
 O,0,5.2820104933,-1.586913463,-0.7789172973
 H,0,5.6997712719,-2.4311613602,-0.5173103317
 Recover connectivity data from disk.
                           ----------------------------
                           !    Current Parameters    !
                           ! (Angstroms and Degrees)  !
 --------------------------                            --------------------------
 ! Name  Definition              Value                                          !
 --------------------------------------------------------------------------------
 ! R1    R(1,2)                  1.0185                                         !
 ! R2    R(1,3)                  1.0168                                         !
 ! R3    R(1,4)                  1.4581                                         !
 ! R4    R(4,5)                  1.0979                                         !
 ! R5    R(4,6)                  1.5277                                         !
 ! R6    R(4,7)                  1.5378                                         !
 ! R7    R(6,10)                 1.2345                                         !
 ! R8    R(6,16)                 1.3555                                         !
 ! R9    R(7,8)                  1.0967                                         !
 ! R10   R(7,9)                  1.0955                                         !
 ! R11   R(7,11)                 1.5224                                         !
 ! R12   R(11,12)                1.3565                                         !
 ! R13   R(11,15)                1.2333                                         !
 ! R14   R(12,13)                1.0114                                         !
 ! R15   R(12,14)                1.0093                                         !
 ! R16   R(16,17)                1.0162                                         !
 ! R17   R(16,18)                1.4526                                         !
 ! R18   R(18,19)                1.0954                                         !
 ! R19   R(18,20)                1.5409                                         !
 ! R20   R(18,21)                1.5472                                         !
 ! R21   R(20,24)                1.2246                                         !
 ! R22   R(20,36)                1.3643                                         !
 ! R23   R(21,22)                1.0962                                         !
 ! R24   R(21,23)                1.0954                                         !
 ! R25   R(21,25)                1.5118                                         !
 ! R26   R(25,26)                1.4009                                         !
 ! R27   R(25,28)                1.4                                            !
 ! R28   R(26,27)                1.0878                                         !
 ! R29   R(26,30)                1.3958                                         !
 ! R30   R(28,29)                1.0855                                         !
 ! R31   R(28,32)                1.3929                                         !
 ! R32   R(30,31)                1.0861                                         !
 ! R33   R(30,34)                1.3941                                         !
 ! R34   R(32,33)                1.0861                                         !
 ! R35   R(32,34)                1.3965                                         !
 ! R36   R(34,35)                1.086                                          !
 ! R37   R(36,37)                1.0108                                         !
 ! R38   R(36,38)                1.4481                                         !
 ! R39   R(38,39)                1.0938                                         !
 ! R40   R(38,40)                1.5285                                         !
 ! R41   R(38,41)                1.559                                          !
 ! R42   R(40,44)                1.2415                                         !
 ! R43   R(40,50)                1.3541                                         !
 ! R44   R(41,42)                1.0978                                         !
 ! R45   R(41,43)                1.0905                                         !
 ! R46   R(41,45)                1.5234                                         !
 ! R47   R(45,46)                1.341                                          !
 ! R48   R(45,49)                1.2439                                         !
 ! R49   R(46,47)                1.0119                                         !
 ! R50   R(46,48)                1.0245                                         !
 ! R51   R(50,51)                1.0398                                         !
 ! R52   R(50,52)                1.4412                                         !
 ! R53   R(52,53)                1.0783                                         !
 ! R54   R(52,54)                1.5175                                         !
 ! R55   R(52,55)                1.5419                                         !
 ! R56   R(54,58)                1.2245                                         !
 ! R57   R(54,74)                1.3308                                         !
 ! R58   R(55,56)                1.0959                                         !
 ! R59   R(55,57)                1.0952                                         !
 ! R60   R(55,59)                1.5419                                         !
 ! R61   R(59,60)                1.0955                                         !
 ! R62   R(59,61)                1.096                                          !
 ! R63   R(59,62)                1.5488                                         !
 ! R64   R(62,63)                1.0936                                         !
 ! R65   R(62,64)                1.0878                                         !
 ! R66   R(62,65)                1.4703                                         !
 ! R67   R(65,66)                1.0119                                         !
 ! R68   R(65,73)                1.336                                          !
 ! R69   R(67,68)                1.0113                                         !
 ! R70   R(67,69)                1.0254                                         !
 ! R71   R(67,73)                1.3371                                         !
 ! R72   R(70,71)                1.0184                                         !
 ! R73   R(70,72)                1.0122                                         !
 ! R74   R(70,73)                1.3569                                         !
 ! R75   R(74,75)                0.9776                                         !
 ! A1    A(2,1,3)              107.4112                                         !
 ! A2    A(2,1,4)              111.1794                                         !
 ! A3    A(3,1,4)              110.8684                                         !
 ! A4    A(1,4,5)              107.295                                          !
 ! A5    A(1,4,6)              110.6746                                         !
 ! A6    A(1,4,7)              117.44                                           !
 ! A7    A(5,4,6)              103.798                                          !
 ! A8    A(5,4,7)              106.7663                                         !
 ! A9    A(6,4,7)              109.8701                                         !
 ! A10   A(4,6,10)             121.6778                                         !
 ! A11   A(4,6,16)             115.4894                                         !
 ! A12   A(10,6,16)            122.6682                                         !
 ! A13   A(4,7,8)              108.6766                                         !
 ! A14   A(4,7,9)              110.9148                                         !
 ! A15   A(4,7,11)             110.6323                                         !
 ! A16   A(8,7,9)              107.7725                                         !
 ! A17   A(8,7,11)             107.2132                                         !
 ! A18   A(9,7,11)             111.477                                          !
 ! A19   A(7,11,12)            116.5781                                         !
 ! A20   A(7,11,15)            120.7393                                         !
 ! A21   A(12,11,15)           122.5291                                         !
 ! A22   A(11,12,13)           117.5489                                         !
 ! A23   A(11,12,14)           120.2338                                         !
 ! A24   A(13,12,14)           117.1412                                         !
 ! A25   A(6,16,17)            115.7397                                         !
 ! A26   A(6,16,18)            117.7798                                         !
 ! A27   A(17,16,18)           118.4675                                         !
 ! A28   A(16,18,19)           108.3552                                         !
 ! A29   A(16,18,20)           107.5229                                         !
 ! A30   A(16,18,21)           111.087                                          !
 ! A31   A(19,18,20)           108.5692                                         !
 ! A32   A(19,18,21)           108.2391                                         !
 ! A33   A(20,18,21)           112.9508                                         !
 ! A34   A(18,20,24)           122.0216                                         !
 ! A35   A(18,20,36)           115.9458                                         !
 ! A36   A(24,20,36)           122.0174                                         !
 ! A37   A(18,21,22)           107.5033                                         !
 ! A38   A(18,21,23)           107.3014                                         !
 ! A39   A(18,21,25)           114.6406                                         !
 ! A40   A(22,21,23)           107.0057                                         !
 ! A41   A(22,21,25)           110.6379                                         !
 ! A42   A(23,21,25)           109.4293                                         !
 ! A43   A(21,25,26)           119.9078                                         !
 ! A44   A(21,25,28)           121.3923                                         !
 ! A45   A(26,25,28)           118.6855                                         !
 ! A46   A(25,26,27)           119.4483                                         !
 ! A47   A(25,26,30)           120.8364                                         !
 ! A48   A(27,26,30)           119.713                                          !
 ! A49   A(25,28,29)           119.6095                                         !
 ! A50   A(25,28,32)           120.6193                                         !
 ! A51   A(29,28,32)           119.7674                                         !
 ! A52   A(26,30,31)           119.8067                                         !
 ! A53   A(26,30,34)           119.9262                                         !
 ! A54   A(31,30,34)           120.2654                                         !
 ! A55   A(28,32,33)           119.7209                                         !
 ! A56   A(28,32,34)           120.2465                                         !
 ! A57   A(33,32,34)           120.0323                                         !
 ! A58   A(30,34,32)           119.6846                                         !
 ! A59   A(30,34,35)           120.1794                                         !
 ! A60   A(32,34,35)           120.1354                                         !
 ! A61   A(20,36,37)           119.8673                                         !
 ! A62   A(20,36,38)           118.3597                                         !
 ! A63   A(37,36,38)           116.3964                                         !
 ! A64   A(36,38,39)           107.6884                                         !
 ! A65   A(36,38,40)           108.5856                                         !
 ! A66   A(36,38,41)           111.5848                                         !
 ! A67   A(39,38,40)           108.6674                                         !
 ! A68   A(39,38,41)           107.8002                                         !
 ! A69   A(40,38,41)           112.369                                          !
 ! A70   A(38,40,44)           122.0185                                         !
 ! A71   A(38,40,50)           114.2235                                         !
 ! A72   A(44,40,50)           123.7546                                         !
 ! A73   A(38,41,42)           110.0304                                         !
 ! A74   A(38,41,43)           108.3606                                         !
 ! A75   A(38,41,45)           112.9753                                         !
 ! A76   A(42,41,43)           106.7324                                         !
 ! A77   A(42,41,45)           108.3422                                         !
 ! A78   A(43,41,45)           110.2172                                         !
 ! A79   A(41,45,46)           115.5537                                         !
 ! A80   A(41,45,49)           122.0286                                         !
 ! A81   A(46,45,49)           122.3975                                         !
 ! A82   A(45,46,47)           117.1372                                         !
 ! A83   A(45,46,48)           122.8325                                         !
 ! A84   A(47,46,48)           118.6379                                         !
 ! A85   A(40,50,51)           117.233                                          !
 ! A86   A(40,50,52)           119.2514                                         !
 ! A87   A(51,50,52)           123.3397                                         !
 ! A88   A(50,52,53)           103.4276                                         !
 ! A89   A(50,52,54)           114.1581                                         !
 ! A90   A(50,52,55)           112.9536                                         !
 ! A91   A(53,52,54)           104.6269                                         !
 ! A92   A(53,52,55)           108.8291                                         !
 ! A93   A(54,52,55)           111.9867                                         !
 ! A94   A(52,54,58)           122.482                                          !
 ! A95   A(52,54,74)           114.0703                                         !
 ! A96   A(58,54,74)           123.4174                                         !
 ! A97   A(52,55,56)           105.7179                                         !
 ! A98   A(52,55,57)           109.4758                                         !
 ! A99   A(52,55,59)           116.3448                                         !
 ! A100  A(56,55,57)           106.2553                                         !
 ! A101  A(56,55,59)           110.1761                                         !
 ! A102  A(57,55,59)           108.4105                                         !
 ! A103  A(55,59,60)           107.129                                          !
 ! A104  A(55,59,61)           110.2607                                         !
 ! A105  A(55,59,62)           117.7576                                         !
 ! A106  A(60,59,61)           105.721                                          !
 ! A107  A(60,59,62)           109.0958                                         !
 ! A108  A(61,59,62)           106.2645                                         !
 ! A109  A(59,62,63)           109.8                                            !
 ! A110  A(59,62,64)           110.5324                                         !
 ! A111  A(59,62,65)           113.6347                                         !
 ! A112  A(63,62,64)           106.7901                                         !
 ! A113  A(63,62,65)           108.0221                                         !
 ! A114  A(64,62,65)           107.7972                                         !
 ! A115  A(62,65,66)           116.4131                                         !
 ! A116  A(62,65,73)           126.1852                                         !
 ! A117  A(66,65,73)           116.1168                                         !
 ! A118  A(68,67,69)           115.8426                                         !
 ! A119  A(68,67,73)           116.7746                                         !
 ! A120  A(69,67,73)           121.6617                                         !
 ! A121  A(71,70,72)           113.2229                                         !
 ! A122  A(71,70,73)           113.471                                          !
 ! A123  A(72,70,73)           117.5237                                         !
 ! A124  A(65,73,67)           121.8224                                         !
 ! A125  A(65,73,70)           120.4425                                         !
 ! A126  A(67,73,70)           117.7064                                         !
 ! A127  A(54,74,75)           108.469                                          !
 ! D1    D(2,1,4,5)           -170.8149                                         !
 ! D2    D(2,1,4,6)             76.5732                                         !
 ! D3    D(2,1,4,7)            -50.6756                                         !
 ! D4    D(3,1,4,5)            -51.3991                                         !
 ! D5    D(3,1,4,6)           -164.011                                          !
 ! D6    D(3,1,4,7)             68.7402                                         !
 ! D7    D(1,4,6,10)          -151.1601                                         !
 ! D8    D(1,4,6,16)            33.3854                                         !
 ! D9    D(5,4,6,10)            94.0134                                         !
 ! D10   D(5,4,6,16)           -81.441                                          !
 ! D11   D(7,4,6,10)           -19.8527                                         !
 ! D12   D(7,4,6,16)           164.6928                                         !
 ! D13   D(1,4,7,8)            -50.688                                          !
 ! D14   D(1,4,7,9)             67.6135                                         !
 ! D15   D(1,4,7,11)          -168.1434                                         !
 ! D16   D(5,4,7,8)             69.7287                                         !
 ! D17   D(5,4,7,9)           -171.9698                                         !
 ! D18   D(5,4,7,11)           -47.7268                                         !
 ! D19   D(6,4,7,8)           -178.3248                                         !
 ! D20   D(6,4,7,9)            -60.0233                                         !
 ! D21   D(6,4,7,11)            64.2197                                         !
 ! D22   D(4,6,16,17)            5.4036                                         !
 ! D23   D(4,6,16,18)          153.8419                                         !
 ! D24   D(10,6,16,17)        -170.001                                          !
 ! D25   D(10,6,16,18)         -21.5627                                         !
 ! D26   D(4,7,11,12)         -140.8521                                         !
 ! D27   D(4,7,11,15)           43.5398                                         !
 ! D28   D(8,7,11,12)          100.7975                                         !
 ! D29   D(8,7,11,15)          -74.8106                                         !
 ! D30   D(9,7,11,12)          -16.9312                                         !
 ! D31   D(9,7,11,15)          167.4607                                         !
 ! D32   D(7,11,12,13)         174.6144                                         !
 ! D33   D(7,11,12,14)          20.5155                                         !
 ! D34   D(15,11,12,13)         -9.863                                          !
 ! D35   D(15,11,12,14)       -163.9619                                         !
 ! D36   D(6,16,18,19)          66.0118                                         !
 ! D37   D(6,16,18,20)         -51.1565                                         !
 ! D38   D(6,16,18,21)        -175.2133                                         !
 ! D39   D(17,16,18,19)       -146.4223                                         !
 ! D40   D(17,16,18,20)         96.4094                                         !
 ! D41   D(17,16,18,21)        -27.6475                                         !
 ! D42   D(16,18,20,24)        -43.4342                                         !
 ! D43   D(16,18,20,36)        135.1689                                         !
 ! D44   D(19,18,20,24)       -160.4629                                         !
 ! D45   D(19,18,20,36)         18.1402                                         !
 ! D46   D(21,18,20,24)         79.4833                                         !
 ! D47   D(21,18,20,36)       -101.9136                                         !
 ! D48   D(16,18,21,22)        172.7786                                         !
 ! D49   D(16,18,21,23)        -72.4227                                         !
 ! D50   D(16,18,21,25)         49.3257                                         !
 ! D51   D(19,18,21,22)        -68.3768                                         !
 ! D52   D(19,18,21,23)         46.4219                                         !
 ! D53   D(19,18,21,25)        168.1703                                         !
 ! D54   D(20,18,21,22)         51.8662                                         !
 ! D55   D(20,18,21,23)        166.6649                                         !
 ! D56   D(20,18,21,25)        -71.5867                                         !
 ! D57   D(18,20,36,37)        -10.8928                                         !
 ! D58   D(18,20,36,38)       -164.0915                                         !
 ! D59   D(24,20,36,37)        167.7104                                         !
 ! D60   D(24,20,36,38)         14.5117                                         !
 ! D61   D(18,21,25,26)        -94.4703                                         !
 ! D62   D(18,21,25,28)         84.1321                                         !
 ! D63   D(22,21,25,26)        143.7712                                         !
 ! D64   D(22,21,25,28)        -37.6264                                         !
 ! D65   D(23,21,25,26)         26.1099                                         !
 ! D66   D(23,21,25,28)       -155.2877                                         !
 ! D67   D(21,25,26,27)         -2.3082                                         !
 ! D68   D(21,25,26,30)        178.2401                                         !
 ! D69   D(28,25,26,27)        179.0517                                         !
 ! D70   D(28,25,26,30)         -0.4                                            !
 ! D71   D(21,25,28,29)          0.7899                                         !
 ! D72   D(21,25,28,32)       -178.4972                                         !
 ! D73   D(26,25,28,29)        179.409                                          !
 ! D74   D(26,25,28,32)          0.1218                                         !
 ! D75   D(25,26,30,31)        179.8792                                         !
 ! D76   D(25,26,30,34)          0.3517                                         !
 ! D77   D(27,26,30,31)          0.429                                          !
 ! D78   D(27,26,30,34)       -179.0986                                         !
 ! D79   D(25,28,32,33)       -179.9727                                         !
 ! D80   D(25,28,32,34)          0.2042                                         !
 ! D81   D(29,28,32,33)          0.7413                                         !
 ! D82   D(29,28,32,34)       -179.0818                                         !
 ! D83   D(26,30,34,32)         -0.0201                                         !
 ! D84   D(26,30,34,35)        179.7106                                         !
 ! D85   D(31,30,34,32)       -179.5454                                         !
 ! D86   D(31,30,34,35)          0.1852                                         !
 ! D87   D(28,32,34,30)         -0.2557                                         !
 ! D88   D(28,32,34,35)       -179.9864                                         !
 ! D89   D(33,32,34,30)        179.9218                                         !
 ! D90   D(33,32,34,35)          0.1911                                         !
 ! D91   D(20,36,38,39)        -50.9244                                         !
 ! D92   D(20,36,38,40)       -168.42                                           !
 ! D93   D(20,36,38,41)         67.1903                                         !
 ! D94   D(37,36,38,39)        154.9578                                         !
 ! D95   D(37,36,38,40)         37.4622                                         !
 ! D96   D(37,36,38,41)        -86.9275                                         !
 ! D97   D(36,38,40,44)         -5.1802                                         !
 ! D98   D(36,38,40,50)        175.4599                                         !
 ! D99   D(39,38,40,44)       -122.0498                                         !
 ! D100  D(39,38,40,50)         58.5903                                         !
 ! D101  D(41,38,40,44)        118.7432                                         !
 ! D102  D(41,38,40,50)        -60.6168                                         !
 ! D103  D(36,38,41,42)         90.3251                                         !
 ! D104  D(36,38,41,43)        -26.0262                                         !
 ! D105  D(36,38,41,45)       -148.4514                                         !
 ! D106  D(39,38,41,42)       -151.6273                                         !
 ! D107  D(39,38,41,43)         92.0214                                         !
 ! D108  D(39,38,41,45)        -30.4038                                         !
 ! D109  D(40,38,41,42)        -31.9145                                         !
 ! D110  D(40,38,41,43)       -148.2657                                         !
 ! D111  D(40,38,41,45)         89.309                                          !
 ! D112  D(38,40,50,51)          4.011                                          !
 ! D113  D(38,40,50,52)        179.3533                                         !
 ! D114  D(44,40,50,51)       -175.3362                                         !
 ! D115  D(44,40,50,52)          0.0061                                         !
 ! D116  D(38,41,45,46)        145.1838                                         !
 ! D117  D(38,41,45,49)        -36.4158                                         !
 ! D118  D(42,41,45,46)        -92.6415                                         !
 ! D119  D(42,41,45,49)         85.7589                                         !
 ! D120  D(43,41,45,46)         23.8023                                         !
 ! D121  D(43,41,45,49)       -157.7973                                         !
 ! D122  D(41,45,46,47)       -177.8181                                         !
 ! D123  D(41,45,46,48)        -11.4887                                         !
 ! D124  D(49,45,46,47)          3.788                                          !
 ! D125  D(49,45,46,48)        170.1173                                         !
 ! D126  D(40,50,52,53)         -0.8168                                         !
 ! D127  D(40,50,52,54)       -113.8725                                         !
 ! D128  D(40,50,52,55)        116.6647                                         !
 ! D129  D(51,50,52,53)        174.2253                                         !
 ! D130  D(51,50,52,54)         61.1696                                         !
 ! D131  D(51,50,52,55)        -68.2932                                         !
 ! D132  D(50,52,54,58)        135.3209                                         !
 ! D133  D(50,52,54,74)        -46.6183                                         !
 ! D134  D(53,52,54,58)         22.9815                                         !
 ! D135  D(53,52,54,74)       -158.9577                                         !
 ! D136  D(55,52,54,58)        -94.7347                                         !
 ! D137  D(55,52,54,74)         83.3261                                         !
 ! D138  D(50,52,55,56)        -54.8481                                         !
 ! D139  D(50,52,55,57)         59.2289                                         !
 ! D140  D(50,52,55,59)       -177.4768                                         !
 ! D141  D(53,52,55,56)         59.4109                                         !
 ! D142  D(53,52,55,57)        173.4878                                         !
 ! D143  D(53,52,55,59)        -63.2179                                         !
 ! D144  D(54,52,55,56)        174.5873                                         !
 ! D145  D(54,52,55,57)        -71.3358                                         !
 ! D146  D(54,52,55,59)         51.9585                                         !
 ! D147  D(52,54,74,75)       -179.3095                                         !
 ! D148  D(58,54,74,75)         -1.2694                                         !
 ! D149  D(52,55,59,60)        169.7321                                         !
 ! D150  D(52,55,59,61)        -75.686                                          !
 ! D151  D(52,55,59,62)         46.4302                                         !
 ! D152  D(56,55,59,60)         49.4654                                         !
 ! D153  D(56,55,59,61)        164.0473                                         !
 ! D154  D(56,55,59,62)        -73.8365                                         !
 ! D155  D(57,55,59,60)        -66.4226                                         !
 ! D156  D(57,55,59,61)         48.1592                                         !
 ! D157  D(57,55,59,62)        170.2754                                         !
 ! D158  D(55,59,62,63)        155.2054                                         !
 ! D159  D(55,59,62,64)        -87.2343                                         !
 ! D160  D(55,59,62,65)         34.109                                          !
 ! D161  D(60,59,62,63)         32.9017                                         !
 ! D162  D(60,59,62,64)        150.462                                          !
 ! D163  D(60,59,62,65)        -88.1947                                         !
 ! D164  D(61,59,62,63)        -80.657                                          !
 ! D165  D(61,59,62,64)         36.9034                                         !
 ! D166  D(61,59,62,65)        158.2466                                         !
 ! D167  D(59,62,65,66)         57.0525                                         !
 ! D168  D(59,62,65,73)       -109.4302                                         !
 ! D169  D(63,62,65,66)        -65.0344                                         !
 ! D170  D(63,62,65,73)        128.4829                                         !
 ! D171  D(64,62,65,66)        179.9113                                         !
 ! D172  D(64,62,65,73)         13.4286                                         !
 ! D173  D(62,65,73,67)         -5.8856                                         !
 ! D174  D(62,65,73,70)        176.1079                                         !
 ! D175  D(66,65,73,67)       -172.4034                                         !
 ! D176  D(66,65,73,70)          9.59                                           !
 ! D177  D(68,67,73,65)       -178.3698                                         !
 ! D178  D(68,67,73,70)         -0.311                                          !
 ! D179  D(69,67,73,65)         29.4038                                         !
 ! D180  D(69,67,73,70)       -152.5373                                         !
 ! D181  D(71,70,73,65)       -131.8359                                         !
 ! D182  D(71,70,73,67)         50.0773                                         !
 ! D183  D(72,70,73,65)          3.4809                                         !
 ! D184  D(72,70,73,67)       -174.606                                          !
 --------------------------------------------------------------------------------
 Symmetry turned off by external request.
 Stoichiometry    C23H36N9O7(1+)
 Framework group  C1[X(C23H36N9O7)]
 Deg. of freedom   219
 Full point group                 C1      NOp   1
                          Input orientation:                          
 ---------------------------------------------------------------------
 Center     Atomic      Atomic             Coordinates (Angstroms)
 Number     Number       Type             X           Y           Z
 ---------------------------------------------------------------------
      1          7           0       -4.473985    1.760213    2.947464
      2          1           0       -5.223575    1.071232    2.921431
      3          1           0       -4.569626    2.281213    3.815354
      4          6           0       -3.166637    1.119573    2.867620
      5          1           0       -2.412064    1.891733    3.066945
      6          6           0       -2.868171    0.679556    1.435407
      7          6           0       -2.884208   -0.038095    3.839689
      8          1           0       -3.133049    0.288576    4.856629
      9          1           0       -3.509021   -0.906865    3.605252
     10          8           0       -2.142005   -0.288788    1.192743
     11          6           0       -1.404760   -0.396947    3.831120
     12          7           0       -1.099982   -1.716848    3.901878
     13          1           0       -0.126811   -1.977612    3.813357
     14          1           0       -1.787547   -2.411437    3.649803
     15          8           0       -0.542215    0.484475    3.843972
     16          7           0       -3.372939    1.477529    0.462803
     17          1           0       -3.823869    2.330605    0.781635
     18          6           0       -2.694484    1.491350   -0.821556
     19          1           0       -2.802955    0.502247   -1.279641
     20          6           0       -1.198761    1.746557   -0.553409
     21          6           0       -3.323976    2.537072   -1.772426
     22          1           0       -2.692902    2.591269   -2.667055
     23          1           0       -4.296457    2.145240   -2.089626
     24          8           0       -0.817501    2.589358    0.249113
     25          6           0       -3.508284    3.909732   -1.166419
     26          6           0       -4.734603    4.257898   -0.585533
     27          1           0       -5.558437    3.547883   -0.609376
     28          6           0       -2.465193    4.843194   -1.144405
     29          1           0       -1.505567    4.585574   -1.581631
     30          6           0       -4.914452    5.506468    0.011838
     31          1           0       -5.872897    5.759650    0.455469
     32          6           0       -2.643227    6.092179   -0.554140
     33          1           0       -1.824177    6.805432   -0.545683
     34          6           0       -3.867530    6.426894    0.028250
     35          1           0       -4.004432    7.401318    0.487785
     36          7           0       -0.325568    0.956455   -1.242212
     37          1           0       -0.667689    0.153019   -1.751318
     38          6           0        1.049326    0.895502   -0.791720
     39          1           0        1.408907    1.922645   -0.681883
     40          6           0        1.883385    0.197367   -1.865684
     41          6           0        1.167247    0.198128    0.597646
     42          1           0        1.314228   -0.881690    0.465108
     43          1           0        0.221777    0.323731    1.126401
     44          8           0        1.367592   -0.301623   -2.878721
     45          6           0        2.316632    0.738727    1.438676
     46          7           0        2.094394    0.785129    2.760349
     47          1           0        2.829201    1.171906    3.338642
     48          1           0        1.167142    0.645190    3.172956
     49          8           0        3.399081    1.084015    0.932333
     50          7           0        3.211501    0.164304   -1.603528
     51          1           0        3.525817    0.548092   -0.689718
     52          6           0        4.098067   -0.481174   -2.538673
     53          1           0        3.432736   -0.839981   -3.307702
     54          6           0        4.768139   -1.730784   -1.998024
     55          6           0        5.113840    0.490159   -3.172867
     56          1           0        4.517688    1.298051   -3.612162
     57          1           0        5.720185    0.950004   -2.385205
     58          8           0        4.855887   -2.764013   -2.649200
     59          6           0        6.062498   -0.106980   -4.231665
     60          1           0        6.581202    0.731300   -4.709582
     61          1           0        6.844575   -0.702998   -3.747535
     62          6           0        5.443804   -1.010689   -5.326808
     63          1           0        6.079799   -1.002893   -6.216456
     64          1           0        5.392720   -2.042483   -4.986094
     65          7           0        4.090260   -0.603593   -5.731689
     66          1           0        3.988128    0.343775   -6.072358
     67          7           0        2.957243   -2.455420   -4.869445
     68          1           0        2.057000   -2.893133   -4.725657
     69          1           0        3.698098   -2.732095   -4.216790
     70          7           0        1.758576   -0.734604   -5.827662
     71          1           0        1.066852   -0.746270   -5.080252
     72          1           0        1.766036    0.131738   -6.351106
     73          6           0        2.956569   -1.257556   -5.463522
     74          8           0        5.282010   -1.586913   -0.778917
     75          1           0        5.699771   -2.431161   -0.517310
 ---------------------------------------------------------------------
 Rotational constants (GHZ):           0.1339546           0.0497017           0.0418207
 Standard basis: 6-31G(d) (6D, 7F)
   657 basis functions,  1236 primitive gaussians,   657 cartesian basis functions
   146 alpha electrons      146 beta electrons
       nuclear repulsion energy      4737.2546373197 Hartrees.
 NAtoms=   75 NActive=   75 NUniq=   75 SFac= 1.00D+00 NAtFMM=   60 NAOKFM=T Big=T
 Integral buffers will be    131072 words long.
 Raffenetti 2 integral format.
 Two-electron integral symmetry is turned off.
 Nuclear repulsion after empirical dispersion term =     4737.0867623807 Hartrees.
 One-electron integrals computed using PRISM.
 NBasis=   657 RedAO= T EigKep=  4.66D-04  NBF=   657
 NBsUse=   657 1.00D-06 EigRej= -1.00D+00 NBFU=   657
 Initial guess from the checkpoint file:  "conf-962.chk"
 B after Tr=     0.000000    0.000000    0.000000
         Rot=    1.000000    0.000000    0.000000    0.000000 Ang=   0.00 deg.
 Requested convergence on RMS density matrix=1.00D-08 within 128 cycles.
 Requested convergence on MAX density matrix=1.00D-06.
 Requested convergence on             energy=1.00D-06.
 No special actions if energy rises.
 SCF Done:  E(RB3LYP) =  -1917.55340706     A.U. after    1 cycles
            NFock=  1  Conv=0.27D-08     -V/T= 2.0093

 **********************************************************************

            Population analysis using the SCF Density.

 **********************************************************************

 Alpha  occ. eigenvalues --  -19.32049 -19.27019 -19.22592 -19.19488 -19.19312
 Alpha  occ. eigenvalues --  -19.18825 -19.18480 -14.52851 -14.50645 -14.50481
 Alpha  occ. eigenvalues --  -14.45175 -14.43397 -14.43255 -14.41964 -14.41871
 Alpha  occ. eigenvalues --  -14.39649 -10.47829 -10.44601 -10.39165 -10.36978
 Alpha  occ. eigenvalues --  -10.36709 -10.36120 -10.35493 -10.35191 -10.34588
 Alpha  occ. eigenvalues --  -10.32114 -10.31505 -10.31141 -10.30628 -10.29509
 Alpha  occ. eigenvalues --  -10.27353 -10.26833 -10.26710 -10.25449 -10.24490
 Alpha  occ. eigenvalues --  -10.24330 -10.24297 -10.24227 -10.24162  -1.23276
 Alpha  occ. eigenvalues --   -1.16562  -1.14148  -1.13998  -1.11442  -1.10905
 Alpha  occ. eigenvalues --   -1.10766  -1.09876  -1.06265  -1.03941  -1.02883
 Alpha  occ. eigenvalues --   -1.00147  -0.99476  -0.98133  -0.97192  -0.96390
 Alpha  occ. eigenvalues --   -0.92382  -0.91133  -0.88162  -0.85909  -0.84562
 Alpha  occ. eigenvalues --   -0.83419  -0.81606  -0.79894  -0.79727  -0.78479
 Alpha  occ. eigenvalues --   -0.76763  -0.75103  -0.74145  -0.73431  -0.71970
 Alpha  occ. eigenvalues --   -0.70992  -0.68803  -0.68272  -0.66798  -0.66276
 Alpha  occ. eigenvalues --   -0.65879  -0.65448  -0.64983  -0.64452  -0.64170
 Alpha  occ. eigenvalues --   -0.64010  -0.63634  -0.61335  -0.61132  -0.60578
 Alpha  occ. eigenvalues --   -0.60534  -0.60123  -0.59971  -0.59195  -0.58245
 Alpha  occ. eigenvalues --   -0.57264  -0.56957  -0.56254  -0.56180  -0.55848
 Alpha  occ. eigenvalues --   -0.54971  -0.54492  -0.54088  -0.53494  -0.53277
 Alpha  occ. eigenvalues --   -0.53052  -0.52043  -0.51680  -0.51534  -0.51141
 Alpha  occ. eigenvalues --   -0.50891  -0.50585  -0.50370  -0.49272  -0.48698
 Alpha  occ. eigenvalues --   -0.48376  -0.48169  -0.47952  -0.47325  -0.47260
 Alpha  occ. eigenvalues --   -0.46536  -0.46195  -0.46137  -0.45864  -0.45317
 Alpha  occ. eigenvalues --   -0.45177  -0.44612  -0.44325  -0.44145  -0.43279
 Alpha  occ. eigenvalues --   -0.42875  -0.42758  -0.41652  -0.41232  -0.40976
 Alpha  occ. eigenvalues --   -0.40847  -0.39481  -0.39236  -0.36487  -0.35894
 Alpha  occ. eigenvalues --   -0.34859  -0.34289  -0.34186  -0.33809  -0.33598
 Alpha  occ. eigenvalues --   -0.32872  -0.32797  -0.31892  -0.30825  -0.30331
 Alpha  occ. eigenvalues --   -0.29559
 Alpha virt. eigenvalues --   -0.13291  -0.11997  -0.08055  -0.07859  -0.06475
 Alpha virt. eigenvalues --   -0.05693  -0.05572  -0.05237  -0.04853  -0.04285
 Alpha virt. eigenvalues --   -0.03711  -0.02782  -0.02645  -0.00475   0.00020
 Alpha virt. eigenvalues --    0.00351   0.00941   0.01767   0.02217   0.03081
 Alpha virt. eigenvalues --    0.03421   0.03678   0.03760   0.04616   0.04697
 Alpha virt. eigenvalues --    0.05105   0.05365   0.05842   0.05997   0.06444
 Alpha virt. eigenvalues --    0.06913   0.07184   0.07412   0.08294   0.08714
 Alpha virt. eigenvalues --    0.09016   0.09225   0.10038   0.10287   0.10359
 Alpha virt. eigenvalues --    0.10623   0.10954   0.11447   0.11495   0.11790
 Alpha virt. eigenvalues --    0.12282   0.12863   0.13455   0.13601   0.13893
 Alpha virt. eigenvalues --    0.14412   0.14674   0.14958   0.15971   0.16058
 Alpha virt. eigenvalues --    0.16647   0.17249   0.17587   0.17738   0.18459
 Alpha virt. eigenvalues --    0.19296   0.20187   0.20444   0.21769   0.21897
 Alpha virt. eigenvalues --    0.22849   0.23114   0.24207   0.25305   0.26439
 Alpha virt. eigenvalues --    0.26995   0.27224   0.28031   0.28278   0.28796
 Alpha virt. eigenvalues --    0.29612   0.30250   0.30933   0.31953   0.32561
 Alpha virt. eigenvalues --    0.35250   0.35869   0.36034   0.37236   0.37668
 Alpha virt. eigenvalues --    0.39020   0.40034   0.40741   0.42398   0.42563
 Alpha virt. eigenvalues --    0.42917   0.44195   0.44976   0.45573   0.45826
 Alpha virt. eigenvalues --    0.46174   0.46580   0.46877   0.47361   0.47928
 Alpha virt. eigenvalues --    0.48537   0.48846   0.49048   0.49310   0.49645
 Alpha virt. eigenvalues --    0.50146   0.50570   0.50645   0.51735   0.52008
 Alpha virt. eigenvalues --    0.52373   0.52664   0.53176   0.53289   0.53876
 Alpha virt. eigenvalues --    0.54186   0.54282   0.54318   0.54551   0.54887
 Alpha virt. eigenvalues --    0.55395   0.55869   0.56158   0.56414   0.56945
 Alpha virt. eigenvalues --    0.57103   0.57369   0.58266   0.58455   0.58788
 Alpha virt. eigenvalues --    0.59403   0.59814   0.59850   0.60216   0.60717
 Alpha virt. eigenvalues --    0.61160   0.61324   0.61889   0.62993   0.63404
 Alpha virt. eigenvalues --    0.63597   0.64220   0.64499   0.65146   0.65222
 Alpha virt. eigenvalues --    0.65649   0.66200   0.66715   0.67681   0.68047
 Alpha virt. eigenvalues --    0.68479   0.69272   0.69617   0.70297   0.70659
 Alpha virt. eigenvalues --    0.70683   0.71756   0.72389   0.73536   0.73607
 Alpha virt. eigenvalues --    0.74773   0.74870   0.75091   0.75423   0.76097
 Alpha virt. eigenvalues --    0.76473   0.76713   0.77355   0.77676   0.77767
 Alpha virt. eigenvalues --    0.77960   0.78431   0.78770   0.79052   0.79675
 Alpha virt. eigenvalues --    0.79921   0.80151   0.80303   0.80677   0.80763
 Alpha virt. eigenvalues --    0.81519   0.81710   0.81733   0.82034   0.82374
 Alpha virt. eigenvalues --    0.82626   0.83322   0.83996   0.84058   0.84517
 Alpha virt. eigenvalues --    0.84668   0.84862   0.85393   0.85740   0.85891
 Alpha virt. eigenvalues --    0.86510   0.86661   0.87028   0.87668   0.87961
 Alpha virt. eigenvalues --    0.88907   0.89362   0.89590   0.90209   0.91029
 Alpha virt. eigenvalues --    0.91728   0.92050   0.92667   0.93583   0.93964
 Alpha virt. eigenvalues --    0.94200   0.94437   0.95265   0.96923   0.97415
 Alpha virt. eigenvalues --    0.98991   0.99451   1.00166   1.00912   1.01129
 Alpha virt. eigenvalues --    1.02010   1.03801   1.04504   1.04860   1.05580
 Alpha virt. eigenvalues --    1.06658   1.06755   1.07494   1.09070   1.09552
 Alpha virt. eigenvalues --    1.10807   1.11070   1.11468   1.12173   1.12786
 Alpha virt. eigenvalues --    1.13223   1.14572   1.15260   1.16358   1.16561
 Alpha virt. eigenvalues --    1.17427   1.17997   1.19817   1.20127   1.21200
 Alpha virt. eigenvalues --    1.22466   1.22841   1.23654   1.24235   1.25133
 Alpha virt. eigenvalues --    1.26353   1.26762   1.27511   1.27820   1.29053
 Alpha virt. eigenvalues --    1.29301   1.30653   1.30689   1.31392   1.32715
 Alpha virt. eigenvalues --    1.33213   1.34126   1.34645   1.35589   1.36528
 Alpha virt. eigenvalues --    1.37570   1.38376   1.39010   1.39937   1.40544
 Alpha virt. eigenvalues --    1.41287   1.41777   1.42604   1.43038   1.43478
 Alpha virt. eigenvalues --    1.44052   1.44709   1.45789   1.46015   1.46693
 Alpha virt. eigenvalues --    1.47386   1.48147   1.49367   1.50598   1.50985
 Alpha virt. eigenvalues --    1.51533   1.52630   1.54000   1.54608   1.56444
 Alpha virt. eigenvalues --    1.57172   1.59772   1.60257   1.61283   1.62282
 Alpha virt. eigenvalues --    1.62739   1.64039   1.64371   1.64707   1.64785
 Alpha virt. eigenvalues --    1.65551   1.66148   1.66571   1.67084   1.68167
 Alpha virt. eigenvalues --    1.69234   1.69329   1.69914   1.70207   1.70670
 Alpha virt. eigenvalues --    1.70959   1.71829   1.72641   1.72995   1.73583
 Alpha virt. eigenvalues --    1.73870   1.74530   1.74849   1.75663   1.75830
 Alpha virt. eigenvalues --    1.76232   1.76746   1.77914   1.78323   1.79017
 Alpha virt. eigenvalues --    1.79807   1.81488   1.81775   1.82428   1.82819
 Alpha virt. eigenvalues --    1.83280   1.83637   1.84457   1.84778   1.85961
 Alpha virt. eigenvalues --    1.86368   1.86645   1.87073   1.87267   1.88153
 Alpha virt. eigenvalues --    1.88454   1.89240   1.89726   1.90159   1.90733
 Alpha virt. eigenvalues --    1.91728   1.92608   1.93104   1.93319   1.93799
 Alpha virt. eigenvalues --    1.94241   1.94928   1.95806   1.96452   1.96572
 Alpha virt. eigenvalues --    1.96928   1.97639   1.98731   1.99252   1.99496
 Alpha virt. eigenvalues --    1.99777   2.01131   2.02638   2.03005   2.04112
 Alpha virt. eigenvalues --    2.04701   2.06187   2.06419   2.07437   2.09175
 Alpha virt. eigenvalues --    2.09635   2.10209   2.10474   2.10609   2.11454
 Alpha virt. eigenvalues --    2.12035   2.13374   2.13951   2.14530   2.15142
 Alpha virt. eigenvalues --    2.16380   2.17400   2.18000   2.18570   2.18813
 Alpha virt. eigenvalues --    2.21508   2.22477   2.22739   2.23505   2.23943
 Alpha virt. eigenvalues --    2.24714   2.25467   2.26279   2.27118   2.27332
 Alpha virt. eigenvalues --    2.28103   2.28462   2.29787   2.31178   2.31558
 Alpha virt. eigenvalues --    2.32290   2.33509   2.34168   2.34687   2.35535
 Alpha virt. eigenvalues --    2.36690   2.37555   2.38560   2.38861   2.39758
 Alpha virt. eigenvalues --    2.40340   2.40964   2.41656   2.42517   2.43308
 Alpha virt. eigenvalues --    2.43686   2.46039   2.46658   2.46791   2.49387
 Alpha virt. eigenvalues --    2.50498   2.51650   2.52436   2.53009   2.53238
 Alpha virt. eigenvalues --    2.53792   2.54355   2.55068   2.55851   2.56391
 Alpha virt. eigenvalues --    2.58717   2.59623   2.60201   2.60761   2.61110
 Alpha virt. eigenvalues --    2.62336   2.63503   2.63764   2.64445   2.66422
 Alpha virt. eigenvalues --    2.67130   2.67703   2.68203   2.69862   2.70280
 Alpha virt. eigenvalues --    2.71075   2.73297   2.75570   2.76689   2.77203
 Alpha virt. eigenvalues --    2.79736   2.80751   2.83895   2.84417   2.85688
 Alpha virt. eigenvalues --    2.87295   2.89290   2.89959   2.92268   2.93885
 Alpha virt. eigenvalues --    2.94809   2.95286   2.96747   2.98888   2.99483
 Alpha virt. eigenvalues --    2.99983   3.00482   3.02055   3.08647   3.10812
 Alpha virt. eigenvalues --    3.11928   3.35909   3.68116   3.73262   3.76255
 Alpha virt. eigenvalues --    3.77891   3.79957   3.83750   3.90304   3.93233
 Alpha virt. eigenvalues --    3.94714   3.99636   4.00998   4.03388   4.04054
 Alpha virt. eigenvalues --    4.06474   4.07867   4.08712   4.13621   4.14475
 Alpha virt. eigenvalues --    4.16052   4.16907   4.20396   4.21304   4.22373
 Alpha virt. eigenvalues --    4.27500   4.28799   4.30183   4.31964   4.36941
 Alpha virt. eigenvalues --    4.40409   4.42666   4.43438   4.44311   4.46949
 Alpha virt. eigenvalues --    4.53465   4.54418   4.59233   4.63187   4.67281
 Alpha virt. eigenvalues --    4.69822
          Condensed to atoms (all electrons):
 Mulliken charges:
               1
     1  N   -0.732187
     2  H    0.310685
     3  H    0.321245
     4  C   -0.093183
     5  H    0.217301
     6  C    0.640177
     7  C   -0.359008
     8  H    0.179617
     9  H    0.146515
    10  O   -0.563142
    11  C    0.643394
    12  N   -0.732327
    13  H    0.340562
    14  H    0.348547
    15  O   -0.540024
    16  N   -0.593507
    17  H    0.376119
    18  C   -0.031367
    19  H    0.149908
    20  C    0.636391
    21  C   -0.379715
    22  H    0.155538
    23  H    0.167874
    24  O   -0.530632
    25  C    0.154051
    26  C   -0.201362
    27  H    0.132817
    28  C   -0.145648
    29  H    0.125564
    30  C   -0.123283
    31  H    0.139870
    32  C   -0.129469
    33  H    0.137964
    34  C   -0.128453
    35  H    0.140754
    36  N   -0.610183
    37  H    0.333547
    38  C   -0.041139
    39  H    0.212071
    40  C    0.597063
    41  C   -0.409886
    42  H    0.165108
    43  H    0.235431
    44  O   -0.594101
    45  C    0.629246
    46  N   -0.777863
    47  H    0.344452
    48  H    0.413879
    49  O   -0.561004
    50  N   -0.627157
    51  H    0.412043
    52  C   -0.064024
    53  H    0.172449
    54  C    0.620072
    55  C   -0.273872
    56  H    0.155198
    57  H    0.192810
    58  O   -0.495280
    59  C   -0.306965
    60  H    0.176960
    61  H    0.183763
    62  C   -0.178033
    63  H    0.202969
    64  H    0.204546
    65  N   -0.564087
    66  H    0.358739
    67  N   -0.733275
    68  H    0.379962
    69  H    0.414696
    70  N   -0.738868
    71  H    0.400195
    72  H    0.359823
    73  C    0.723099
    74  O   -0.528684
    75  H    0.434718
 Sum of Mulliken charges =   1.00000
 Mulliken charges with hydrogens summed into heavy atoms:
               1
     1  N   -0.100257
     4  C    0.124118
     6  C    0.640177
     7  C   -0.032877
    10  O   -0.563142
    11  C    0.643394
    12  N   -0.043218
    15  O   -0.540024
    16  N   -0.217388
    18  C    0.118541
    20  C    0.636391
    21  C   -0.056303
    24  O   -0.530632
    25  C    0.154051
    26  C   -0.068544
    28  C   -0.020084
    30  C    0.016587
    32  C    0.008494
    34  C    0.012300
    36  N   -0.276636
    38  C    0.170932
    40  C    0.597063
    41  C   -0.009347
    44  O   -0.594101
    45  C    0.629246
    46  N   -0.019532
    49  O   -0.561004
    50  N   -0.215114
    52  C    0.108426
    54  C    0.620072
    55  C    0.074136
    58  O   -0.495280
    59  C    0.053758
    62  C    0.229482
    65  N   -0.205349
    67  N    0.061383
    70  N    0.021149
    73  C    0.723099
    74  O   -0.093967
 Electronic spatial extent (au):  <R**2>=          26911.2438
 Charge=              1.0000 electrons
 Dipole moment (field-independent basis, Debye):
    X=              8.8566    Y=             -4.1089    Z=            -13.0734  Tot=             16.3167
 Quadrupole moment (field-independent basis, Debye-Ang):
   XX=           -124.4390   YY=           -202.3579   ZZ=           -106.8196
   XY=            -18.9889   XZ=            -77.3046   YZ=             -0.6550
 Traceless Quadrupole moment (field-independent basis, Debye-Ang):
   XX=             20.0998   YY=            -57.8190   ZZ=             37.7192
   XY=            -18.9889   XZ=            -77.3046   YZ=             -0.6550
 Octapole moment (field-independent basis, Debye-Ang**2):
  XXX=             50.2563  YYY=           -561.2292  ZZZ=             38.9399  XYY=            -80.7745
  XXY=           -217.3859  XXZ=            -32.3442  XZZ=            209.3176  YZZ=           -211.7968
  YYZ=            178.5023  XYZ=            -21.4260
 Hexadecapole moment (field-independent basis, Debye-Ang**3):
 XXXX=         -12563.1103 YYYY=          -7197.0597 ZZZZ=          -8111.9982 XXXY=           2550.4143
 XXXZ=           1809.7818 YYYX=           2930.8009 YYYZ=           -331.3638 ZZZX=           1602.6390
 ZZZY=           -519.1724 XXYY=          -3570.2242 XXZZ=          -2609.8690 YYZZ=          -3057.9907
 XXYZ=            -16.2289 YYXZ=           1026.1247 ZZXY=           1091.6304
 N-N= 4.737086762381D+03 E-N=-1.391938269628D+04  KE= 1.899896516877D+03
 Unable to Open any file for archive entry.
 1\1\GINC-LAC-314\SP\RB3LYP\6-31G(d)\C23H36N9O7(1+)\KENGMITH\27-Jun-202
 2\0\\# B3LYP/6-31G* empiricaldispersion=gd3bj guess=read geom=check no
 symm integral(ultrafinegrid)\\Candidate Structure: Conf:962 Charge cal
 c in gas phase\\1,1\N,0,-4.4739850315,1.76021329,2.9474640536\H,0,-5.2
 235754364,1.0712323296,2.9214306313\H,0,-4.5696259894,2.2812133735,3.8
 153543883\C,0,-3.1666365927,1.1195729155,2.8676195537\H,0,-2.412063740
 7,1.8917328629,3.0669448165\C,0,-2.8681707602,0.679555888,1.4354073406
 \C,0,-2.8842079254,-0.0380949123,3.8396885811\H,0,-3.1330494047,0.2885
 763076,4.8566291231\H,0,-3.5090211304,-0.9068646912,3.6052520209\O,0,-
 2.1420050799,-0.288788349,1.192742892\C,0,-1.4047597872,-0.3969472208,
 3.8311203321\N,0,-1.0999817159,-1.7168480027,3.9018779509\H,0,-0.12681
 075,-1.9776116518,3.8133574664\H,0,-1.7875470596,-2.4114370182,3.64980
 33128\O,0,-0.5422150406,0.4844754859,3.8439722191\N,0,-3.3729386119,1.
 47752873,0.4628028706\H,0,-3.8238689933,2.3306052834,0.7816353067\C,0,
 -2.6944841245,1.4913496272,-0.8215559028\H,0,-2.8029546142,0.502246920
 6,-1.2796408571\C,0,-1.1987614155,1.7465574519,-0.5534085848\C,0,-3.32
 39762696,2.5370723195,-1.7724263091\H,0,-2.692901786,2.5912688346,-2.6
 670549073\H,0,-4.2964573735,2.145240398,-2.0896264831\O,0,-0.817501090
 3,2.5893577111,0.2491128428\C,0,-3.5082838452,3.9097321122,-1.16641912
 29\C,0,-4.7346028963,4.2578979027,-0.5855332697\H,0,-5.5584374,3.54788
 31274,-0.6093764999\C,0,-2.4651933657,4.8431941514,-1.1444046844\H,0,-
 1.5055672904,4.5855735758,-1.5816305819\C,0,-4.914451562,5.5064678622,
 0.0118384955\H,0,-5.8728973879,5.7596496934,0.4554693949\C,0,-2.643227
 4962,6.0921788322,-0.554139978\H,0,-1.8241766795,6.8054316192,-0.54568
 33649\C,0,-3.8675300662,6.4268939478,0.0282502686\H,0,-4.0044324007,7.
 4013183938,0.4877850922\N,0,-0.3255682916,0.9564548412,-1.242211769\H,
 0,-0.6676889035,0.1530191213,-1.7513183961\C,0,1.0493263803,0.89550210
 52,-0.7917203029\H,0,1.4089073623,1.9226452398,-0.6818827422\C,0,1.883
 3845079,0.1973666594,-1.8656842037\C,0,1.1672470351,0.1981281785,0.597
 6461211\H,0,1.3142277132,-0.8816898358,0.4651075299\H,0,0.2217765562,0
 .3237313487,1.1264008181\O,0,1.3675918043,-0.3016225286,-2.878721245\C
 ,0,2.3166320523,0.738726841,1.4386761932\N,0,2.0943938697,0.7851292429
 ,2.7603488102\H,0,2.8292010953,1.1719057978,3.3386424485\H,0,1.1671420
 47,0.6451897399,3.1729558359\O,0,3.399080851,1.084014818,0.9323326532\
 N,0,3.2115006772,0.1643035604,-1.6035279274\H,0,3.5258165156,0.5480916
 585,-0.6897183687\C,0,4.0980669822,-0.4811737002,-2.5386726247\H,0,3.4
 327363059,-0.8399805639,-3.3077017957\C,0,4.768138519,-1.73078414,-1.9
 980237976\C,0,5.1138403418,0.4901589946,-3.1728674751\H,0,4.5176882806
 ,1.2980513241,-3.6121620937\H,0,5.7201852898,0.9500044475,-2.385205084
 \O,0,4.8558870755,-2.7640132475,-2.6492000187\C,0,6.0624978823,-0.1069
 802967,-4.2316645885\H,0,6.5812020429,0.7313001794,-4.7095818094\H,0,6
 .8445745392,-0.7029984212,-3.7475348078\C,0,5.4438043751,-1.0106888246
 ,-5.3268078899\H,0,6.0797989574,-1.0028931137,-6.2164563015\H,0,5.3927
 201752,-2.0424831742,-4.9860943848\N,0,4.0902603096,-0.6035926482,-5.7
 316889473\H,0,3.9881279322,0.3437747577,-6.072358371\N,0,2.957242731,-
 2.4554198895,-4.869444679\H,0,2.0569995085,-2.8931331082,-4.7256574835
 \H,0,3.6980984486,-2.7320945622,-4.2167902506\N,0,1.7585757037,-0.7346
 042271,-5.8276622521\H,0,1.0668521978,-0.7462699486,-5.080251648\H,0,1
 .766035676,0.1317381452,-6.3511056694\C,0,2.9565688322,-1.2575558092,-
 5.4635219517\O,0,5.2820104933,-1.586913463,-0.7789172973\H,0,5.6997712
 719,-2.4311613602,-0.5173103317\\Version=ES64L-G16RevC.01\HF=-1917.553
 4071\RMSD=2.696e-09\Dipole=2.7768698,-3.1493953,-3.8212308\Quadrupole=
 14.9437261,-42.9870369,28.0433108,-14.1178028,-57.4740696,-0.486977\PG
 =C01 [X(C23H36N9O7)]\\@
 The archive entry for this job was punched.


 IT IS UNWORTHY OF EXCELLENT MEN TO LOSE HOURS LIKE SLAVES IN THE LABOR
 OF CALCULATION WHICH COULD BE SAFELY RELEGATED TO ANYONE ELSE
 IF A MACHINE WERE USED.
    -- G.W. VON LEIBNIZ
 Job cpu time:       0 days  0 hours  1 minutes 57.0 seconds.
 Elapsed time:       0 days  0 hours  0 minutes 29.8 seconds.
 File lengths (MBytes):  RWF=    344 Int=      0 D2E=      0 Chk=     48 Scr=     16
 Normal termination of Gaussian 16 at Mon Jun 27 16:17:30 2022.
