 Entering Gaussian System, Link 0=/opt/software/Gaussian/g16-AVX2-C.01/g16/g16
 Input=charge-conf-684.com
 Output=charge-conf-684.log
 Initial command:
 /opt/software/Gaussian/g16-AVX2-C.01/g16/l1.exe "/mnt/gs18/scratch/users/kengmith/Gau-68961.inp" -scrdir="/mnt/gs18/scratch/users/kengmith/"
 Entering Link 1 = /opt/software/Gaussian/g16-AVX2-C.01/g16/l1.exe PID=     68972.
  
 Copyright (c) 1988-2019, Gaussian, Inc.  All Rights Reserved.
  
 This is part of the Gaussian(R) 16 program.  It is based on
 the Gaussian(R) 09 system (copyright 2009, Gaussian, Inc.),
 the Gaussian(R) 03 system (copyright 2003, Gaussian, Inc.),
 the Gaussian(R) 98 system (copyright 1998, Gaussian, Inc.),
 the Gaussian(R) 94 system (copyright 1995, Gaussian, Inc.),
 the Gaussian 92(TM) system (copyright 1992, Gaussian, Inc.),
 the Gaussian 90(TM) system (copyright 1990, Gaussian, Inc.),
 the Gaussian 88(TM) system (copyright 1988, Gaussian, Inc.),
 the Gaussian 86(TM) system (copyright 1986, Carnegie Mellon
 University), and the Gaussian 82(TM) system (copyright 1983,
 Carnegie Mellon University). Gaussian is a federally registered
 trademark of Gaussian, Inc.
  
 This software contains proprietary and confidential information,
 including trade secrets, belonging to Gaussian, Inc.
  
 This software is provided under written license and may be
 used, copied, transmitted, or stored only in accord with that
 written license.
  
 The following legend is applicable only to US Government
 contracts under FAR:
  
                    RESTRICTED RIGHTS LEGEND
  
 Use, reproduction and disclosure by the US Government is
 subject to restrictions as set forth in subparagraphs (a)
 and (c) of the Commercial Computer Software - Restricted
 Rights clause in FAR 52.227-19.
  
 Gaussian, Inc.
 340 Quinnipiac St., Bldg. 40, Wallingford CT 06492
  
  
 ---------------------------------------------------------------
 Warning -- This program may not be used in any manner that
 competes with the business of Gaussian, Inc. or will provide
 assistance to any competitor of Gaussian, Inc.  The licensee
 of this program is prohibited from giving any competitor of
 Gaussian, Inc. access to this program.  By using this program,
 the user acknowledges that Gaussian, Inc. is engaged in the
 business of creating and licensing software in the field of
 computational chemistry and represents and warrants to the
 licensee that it is not a competitor of Gaussian, Inc. and that
 it will not use this program in any manner prohibited above.
 ---------------------------------------------------------------
  

 Cite this work as:
 Gaussian 16, Revision C.01,
 M. J. Frisch, G. W. Trucks, H. B. Schlegel, G. E. Scuseria, 
 M. A. Robb, J. R. Cheeseman, G. Scalmani, V. Barone, 
 G. A. Petersson, H. Nakatsuji, X. Li, M. Caricato, A. V. Marenich, 
 J. Bloino, B. G. Janesko, R. Gomperts, B. Mennucci, H. P. Hratchian, 
 J. V. Ortiz, A. F. Izmaylov, J. L. Sonnenberg, D. Williams-Young, 
 F. Ding, F. Lipparini, F. Egidi, J. Goings, B. Peng, A. Petrone, 
 T. Henderson, D. Ranasinghe, V. G. Zakrzewski, J. Gao, N. Rega, 
 G. Zheng, W. Liang, M. Hada, M. Ehara, K. Toyota, R. Fukuda, 
 J. Hasegawa, M. Ishida, T. Nakajima, Y. Honda, O. Kitao, H. Nakai, 
 T. Vreven, K. Throssell, J. A. Montgomery, Jr., J. E. Peralta, 
 F. Ogliaro, M. J. Bearpark, J. J. Heyd, E. N. Brothers, K. N. Kudin, 
 V. N. Staroverov, T. A. Keith, R. Kobayashi, J. Normand, 
 K. Raghavachari, A. P. Rendell, J. C. Burant, S. S. Iyengar, 
 J. Tomasi, M. Cossi, J. M. Millam, M. Klene, C. Adamo, R. Cammi, 
 J. W. Ochterski, R. L. Martin, K. Morokuma, O. Farkas, 
 J. B. Foresman, and D. J. Fox, Gaussian, Inc., Wallingford CT, 2019.
 
 ******************************************
 Gaussian 16:  ES64L-G16RevC.01  3-Jul-2019
                25-May-2022 
 ******************************************
 %mem=8gb
 %nproc=4
 Will use up to    4 processors via shared memory.
 %chk=conf-684.chk
 -------------------------------------------------------------------
 # B3LYP/6-31G* guess=read geom=check nosymm integral(ultrafinegrid)
 -------------------------------------------------------------------
 1/29=2,38=1,172=1/1;
 2/12=2,15=1,40=1/2;
 3/5=1,6=6,7=1,11=2,14=-4,25=1,30=1,74=-5,75=-5,116=-2/1,2,3;
 4/5=1/1;
 5/5=2,38=6/2;
 6/7=2,8=2,9=2,10=2,28=1/1;
 99/5=1,9=1/99;
 ------------------------------------------------------
 Candidate Structure: Conf:684 Charge calc in gas phase
 ------------------------------------------------------
 Structure from the checkpoint file:  "conf-684.chk"
 Charge =  1 Multiplicity = 1
 Redundant internal coordinates found in file.  (old form).
 N,0,-0.761991919,-0.2903773992,-3.6465565175
 H,0,0.5346100677,0.1170545419,-2.6042857059
 H,0,-0.6467965918,0.1996366235,-4.5336209233
 H,0,-0.9315323129,-1.2742958385,-3.8663133119
 C,0,-1.9574170023,0.2254809475,-2.9382346037
 H,0,-1.6516093137,1.1066571863,-2.3696414785
 C,0,-2.4541828095,-0.9056903297,-2.0188019775
 C,0,-3.1017339239,0.6139514985,-3.9156436113
 H,0,-2.694355828,1.3524795235,-4.6187307937
 H,0,-3.3631462365,-0.2803193844,-4.4921608177
 O,0,-2.5821427964,-2.0345719187,-2.4927352046
 C,0,-4.3305732789,1.1788048074,-3.2340451552
 C,0,-4.3907835006,2.5329196566,-2.8732376934
 H,0,-3.5620852007,3.1929621003,-3.1222168606
 C,0,-5.4210302142,0.3533456471,-2.9254870306
 H,0,-5.393115388,-0.6959314339,-3.2102971703
 C,0,-5.5077007433,3.0481410209,-2.2129890124
 H,0,-5.5396670398,4.1013145615,-1.9478787385
 C,0,-6.5410941468,0.8664668132,-2.268216764
 H,0,-7.3832824784,0.2153602931,-2.04945646
 C,0,-6.5861133193,2.2148110867,-1.9072274853
 H,0,-7.4607424854,2.616984382,-1.4036525313
 N,0,-2.7776517751,-0.6471149168,-0.7159947731
 C,0,-2.7058636068,0.6362167863,0.0064616594
 H,0,-2.9833252907,1.4746617382,-0.6343269867
 C,0,-1.300519328,0.9763731047,0.5495162218
 C,0,-3.7434225016,0.4565032582,1.1376134073
 H,0,-3.5188160134,1.0924187247,1.997488144
 H,0,-4.7301049051,0.7367320976,0.7542817822
 O,0,-1.0197618452,2.1196075585,0.8661948573
 C,0,-3.6909102612,-1.0497321747,1.438096271
 H,0,-2.8346520094,-1.2764279208,2.0849428517
 H,0,-4.5916689212,-1.4162727424,1.9376754187
 C,0,-3.5008463527,-1.6855766126,0.0545646384
 H,0,-4.4564595562,-1.8947079647,-0.4400516988
 H,0,-2.9326425496,-2.619670357,0.0677176768
 N,0,-0.4226824178,-0.085034507,0.6711682675
 H,0,-0.7509930377,-0.9293441194,0.2148390373
 C,0,1.0235704712,0.1536809592,0.5628744141
 H,0,1.1517817205,1.2348199362,0.6663286228
 C,0,1.3995623742,-0.2568458136,-0.8742902107
 C,0,1.8493354469,-0.5597398047,1.642320073
 H,0,1.6544905528,-0.0495855488,2.5949291708
 H,0,2.9081434077,-0.4011804173,1.3965577174
 O,0,2.027507617,-1.2629200221,-1.1518280976
 C,0,1.5759588028,-2.067522442,1.7715595352
 H,0,0.5824760553,-2.2361252945,2.2064690251
 H,0,1.5811396162,-2.5122944692,0.7734832538
 C,0,2.6355880511,-2.8214614826,2.5976933273
 H,0,3.6147483853,-2.7008874094,2.1130199092
 H,0,2.3987495004,-3.8945613283,2.5948299074
 C,0,2.7170083396,-2.3279369111,4.0367454439
 H,0,3.012827054,-1.2798483562,4.1113131806
 H,0,1.783713462,-2.4752785067,4.5861772511
 N,0,3.784770252,-3.1141527603,4.807526718
 H,0,3.8668921293,-2.8082970184,5.7849228984
 H,0,4.7065276922,-3.0044314653,4.3665010922
 H,0,3.5700591788,-4.1190667966,4.8100200443
 O,0,0.842481444,0.5768303938,-1.7439417236
 Recover connectivity data from disk.
                           ----------------------------
                           !    Current Parameters    !
                           ! (Angstroms and Degrees)  !
 --------------------------                            --------------------------
 ! Name  Definition              Value                                          !
 --------------------------------------------------------------------------------
 ! R1    R(1,2)                  1.7127                                         !
 ! R2    R(1,3)                  1.0199                                         !
 ! R3    R(1,4)                  1.0223                                         !
 ! R4    R(1,5)                  1.4822                                         !
 ! R5    R(5,6)                  1.0924                                         !
 ! R6    R(5,7)                  1.54                                           !
 ! R7    R(5,8)                  1.5543                                         !
 ! R8    R(7,11)                 1.231                                          !
 ! R9    R(7,23)                 1.367                                          !
 ! R10   R(8,9)                  1.098                                          !
 ! R11   R(8,10)                 1.0956                                         !
 ! R12   R(8,12)                 1.5145                                         !
 ! R13   R(12,13)                1.4027                                         !
 ! R14   R(12,15)                1.402                                          !
 ! R15   R(13,14)                1.0883                                         !
 ! R16   R(13,17)                1.396                                          !
 ! R17   R(15,16)                1.0876                                         !
 ! R18   R(15,19)                1.3964                                         !
 ! R19   R(17,18)                1.0865                                         !
 ! R20   R(17,21)                1.3967                                         !
 ! R21   R(19,20)                1.0868                                         !
 ! R22   R(19,21)                1.3966                                         !
 ! R23   R(21,22)                1.0864                                         !
 ! R24   R(23,24)                1.4745                                         !
 ! R25   R(23,34)                1.4816                                         !
 ! R26   R(24,25)                1.0911                                         !
 ! R27   R(24,26)                1.5445                                         !
 ! R28   R(24,27)                1.5454                                         !
 ! R29   R(26,30)                1.2191                                         !
 ! R30   R(26,37)                1.3827                                         !
 ! R31   R(27,28)                1.0928                                         !
 ! R32   R(27,29)                1.095                                          !
 ! R33   R(27,31)                1.5368                                         !
 ! R34   R(31,32)                1.0968                                         !
 ! R35   R(31,33)                1.0933                                         !
 ! R36   R(31,34)                1.5345                                         !
 ! R37   R(34,35)                1.0962                                         !
 ! R38   R(34,36)                1.0934                                         !
 ! R39   R(37,38)                1.0143                                         !
 ! R40   R(37,39)                1.4698                                         !
 ! R41   R(39,40)                1.0936                                         !
 ! R42   R(39,41)                1.5412                                         !
 ! R43   R(39,42)                1.5349                                         !
 ! R44   R(41,45)                1.218                                          !
 ! R45   R(41,59)                1.3273                                         !
 ! R46   R(42,43)                1.098                                          !
 ! R47   R(42,44)                1.0985                                         !
 ! R48   R(42,46)                1.5378                                         !
 ! R49   R(46,47)                1.0975                                         !
 ! R50   R(46,48)                1.0927                                         !
 ! R51   R(46,49)                1.5407                                         !
 ! R52   R(49,50)                1.0992                                         !
 ! R53   R(49,51)                1.0989                                         !
 ! R54   R(49,52)                1.5235                                         !
 ! R55   R(52,53)                1.0916                                         !
 ! R56   R(52,54)                1.093                                          !
 ! R57   R(52,55)                1.5337                                         !
 ! R58   R(55,56)                1.0274                                         !
 ! R59   R(55,57)                1.0277                                         !
 ! R60   R(55,58)                1.0276                                         !
 ! A1    A(2,1,3)              109.2367                                         !
 ! A2    A(2,1,4)              119.0323                                         !
 ! A3    A(2,1,5)              103.7072                                         !
 ! A4    A(3,1,4)              107.1075                                         !
 ! A5    A(3,1,5)              109.8474                                         !
 ! A6    A(4,1,5)              107.6944                                         !
 ! A7    A(1,5,6)              107.6806                                         !
 ! A8    A(1,5,7)              106.848                                          !
 ! A9    A(1,5,8)              112.3503                                         !
 ! A10   A(6,5,7)              111.842                                          !
 ! A11   A(6,5,8)              109.3794                                         !
 ! A12   A(7,5,8)              108.756                                          !
 ! A13   A(5,7,11)             118.5066                                         !
 ! A14   A(5,7,23)             120.422                                          !
 ! A15   A(11,7,23)            121.049                                          !
 ! A16   A(5,8,9)              107.3147                                         !
 ! A17   A(5,8,10)             107.6116                                         !
 ! A18   A(5,8,12)             114.0531                                         !
 ! A19   A(9,8,10)             107.4913                                         !
 ! A20   A(9,8,12)             109.7762                                         !
 ! A21   A(10,8,12)            110.343                                          !
 ! A22   A(8,12,13)            120.7076                                         !
 ! A23   A(8,12,15)            120.6993                                         !
 ! A24   A(13,12,15)           118.5802                                         !
 ! A25   A(12,13,14)           119.6018                                         !
 ! A26   A(12,13,17)           120.8167                                         !
 ! A27   A(14,13,17)           119.5769                                         !
 ! A28   A(12,15,16)           119.3681                                         !
 ! A29   A(12,15,19)           120.7379                                         !
 ! A30   A(16,15,19)           119.8922                                         !
 ! A31   A(13,17,18)           119.7808                                         !
 ! A32   A(13,17,21)           120.0706                                         !
 ! A33   A(18,17,21)           120.1451                                         !
 ! A34   A(15,19,20)           119.7486                                         !
 ! A35   A(15,19,21)           120.1529                                         !
 ! A36   A(20,19,21)           120.0942                                         !
 ! A37   A(17,21,19)           119.6402                                         !
 ! A38   A(17,21,22)           120.1446                                         !
 ! A39   A(19,21,22)           120.2097                                         !
 ! A40   A(7,23,24)            128.3211                                         !
 ! A41   A(7,23,34)            118.5918                                         !
 ! A42   A(24,23,34)           112.2705                                         !
 ! A43   A(23,24,25)           111.634                                          !
 ! A44   A(23,24,26)           114.0955                                         !
 ! A45   A(23,24,27)           102.9872                                         !
 ! A46   A(25,24,26)           105.5822                                         !
 ! A47   A(25,24,27)           110.3942                                         !
 ! A48   A(26,24,27)           112.2801                                         !
 ! A49   A(24,26,30)           120.4922                                         !
 ! A50   A(24,26,37)           116.0732                                         !
 ! A51   A(30,26,37)           123.422                                          !
 ! A52   A(24,27,28)           111.7321                                         !
 ! A53   A(24,27,29)           108.6008                                         !
 ! A54   A(24,27,31)           103.5412                                         !
 ! A55   A(28,27,29)           108.164                                          !
 ! A56   A(28,27,31)           114.1711                                         !
 ! A57   A(29,27,31)           110.4912                                         !
 ! A58   A(27,31,32)           110.1551                                         !
 ! A59   A(27,31,33)           112.941                                          !
 ! A60   A(27,31,34)           103.5369                                         !
 ! A61   A(32,31,33)           107.7232                                         !
 ! A62   A(32,31,34)           110.4507                                         !
 ! A63   A(33,31,34)           112.0322                                         !
 ! A64   A(23,34,31)           103.8245                                         !
 ! A65   A(23,34,35)           108.9398                                         !
 ! A66   A(23,34,36)           110.5714                                         !
 ! A67   A(31,34,35)           112.2047                                         !
 ! A68   A(31,34,36)           114.0489                                         !
 ! A69   A(35,34,36)           107.1857                                         !
 ! A70   A(26,37,38)           113.1959                                         !
 ! A71   A(26,37,39)           119.5724                                         !
 ! A72   A(38,37,39)           114.8675                                         !
 ! A73   A(37,39,40)           105.6015                                         !
 ! A74   A(37,39,41)           105.3961                                         !
 ! A75   A(37,39,42)           113.7065                                         !
 ! A76   A(40,39,41)           108.8406                                         !
 ! A77   A(40,39,42)           109.2618                                         !
 ! A78   A(41,39,42)           113.6233                                         !
 ! A79   A(39,41,45)           123.9364                                         !
 ! A80   A(39,41,59)           109.9549                                         !
 ! A81   A(45,41,59)           125.8674                                         !
 ! A82   A(39,42,43)           107.3796                                         !
 ! A83   A(39,42,44)           107.1052                                         !
 ! A84   A(39,42,46)           114.7826                                         !
 ! A85   A(43,42,44)           107.3423                                         !
 ! A86   A(43,42,46)           110.5533                                         !
 ! A87   A(44,42,46)           109.3711                                         !
 ! A88   A(42,46,47)           110.172                                          !
 ! A89   A(42,46,48)           108.7527                                         !
 ! A90   A(42,46,49)           113.7406                                         !
 ! A91   A(47,46,48)           107.6804                                         !
 ! A92   A(47,46,49)           109.5668                                         !
 ! A93   A(48,46,49)           106.6981                                         !
 ! A94   A(46,49,50)           108.8171                                         !
 ! A95   A(46,49,51)           109.1612                                         !
 ! A96   A(46,49,52)           112.6264                                         !
 ! A97   A(50,49,51)           107.3346                                         !
 ! A98   A(50,49,52)           109.4726                                         !
 ! A99   A(51,49,52)           109.2873                                         !
 ! A100  A(49,52,53)           112.957                                          !
 ! A101  A(49,52,54)           112.6759                                         !
 ! A102  A(49,52,55)           110.2332                                         !
 ! A103  A(53,52,54)           109.0564                                         !
 ! A104  A(53,52,55)           105.6162                                         !
 ! A105  A(54,52,55)           105.8271                                         !
 ! A106  A(52,55,56)           112.4034                                         !
 ! A107  A(52,55,57)           110.7334                                         !
 ! A108  A(52,55,58)           110.9194                                         !
 ! A109  A(56,55,57)           107.7443                                         !
 ! A110  A(56,55,58)           107.7891                                         !
 ! A111  A(57,55,58)           107.0288                                         !
 ! D1    D(2,1,5,6)             31.1061                                         !
 ! D2    D(2,1,5,7)            -89.1947                                         !
 ! D3    D(2,1,5,8)            151.6119                                         !
 ! D4    D(3,1,5,6)            -85.547                                          !
 ! D5    D(3,1,5,7)            154.1522                                         !
 ! D6    D(3,1,5,8)             34.9588                                         !
 ! D7    D(4,1,5,6)            158.1301                                         !
 ! D8    D(4,1,5,7)             37.8293                                         !
 ! D9    D(4,1,5,8)            -81.3641                                         !
 ! D10   D(1,5,7,11)           -48.468                                          !
 ! D11   D(1,5,7,23)           133.2367                                         !
 ! D12   D(6,5,7,11)          -166.0654                                         !
 ! D13   D(6,5,7,23)            15.6394                                         !
 ! D14   D(8,5,7,11)            73.028                                          !
 ! D15   D(8,5,7,23)          -105.2673                                         !
 ! D16   D(1,5,8,9)            -56.7355                                         !
 ! D17   D(1,5,8,10)            58.6858                                         !
 ! D18   D(1,5,8,12)          -178.5555                                         !
 ! D19   D(6,5,8,9)             62.7845                                         !
 ! D20   D(6,5,8,10)           178.2058                                         !
 ! D21   D(6,5,8,12)           -59.0354                                         !
 ! D22   D(7,5,8,9)           -174.8067                                         !
 ! D23   D(7,5,8,10)           -59.3854                                         !
 ! D24   D(7,5,8,12)            63.3734                                         !
 ! D25   D(5,7,23,24)           -0.8491                                         !
 ! D26   D(5,7,23,34)          167.9377                                         !
 ! D27   D(11,7,23,24)        -179.1005                                         !
 ! D28   D(11,7,23,34)         -10.3137                                         !
 ! D29   D(5,8,12,13)           82.9029                                         !
 ! D30   D(5,8,12,15)          -95.7739                                         !
 ! D31   D(9,8,12,13)          -37.5499                                         !
 ! D32   D(9,8,12,15)          143.7732                                         !
 ! D33   D(10,8,12,13)        -155.8412                                         !
 ! D34   D(10,8,12,15)          25.4819                                         !
 ! D35   D(8,12,13,14)           2.5012                                         !
 ! D36   D(8,12,13,17)        -178.2818                                         !
 ! D37   D(15,12,13,14)       -178.7943                                         !
 ! D38   D(15,12,13,17)          0.4227                                         !
 ! D39   D(8,12,15,16)          -2.0442                                         !
 ! D40   D(8,12,15,19)         178.4485                                         !
 ! D41   D(13,12,15,16)        179.2512                                         !
 ! D42   D(13,12,15,19)         -0.2561                                         !
 ! D43   D(12,13,17,18)       -179.5501                                         !
 ! D44   D(12,13,17,21)         -0.2263                                         !
 ! D45   D(14,13,17,18)         -0.3329                                         !
 ! D46   D(14,13,17,21)        178.9909                                         !
 ! D47   D(12,15,19,20)        179.135                                          !
 ! D48   D(12,15,19,21)         -0.107                                          !
 ! D49   D(16,15,19,20)         -0.3697                                         !
 ! D50   D(16,15,19,21)       -179.6117                                         !
 ! D51   D(13,17,21,19)         -0.1435                                         !
 ! D52   D(13,17,21,22)       -179.2947                                         !
 ! D53   D(18,17,21,19)        179.1778                                         !
 ! D54   D(18,17,21,22)          0.0266                                         !
 ! D55   D(15,19,21,17)          0.3087                                         !
 ! D56   D(15,19,21,22)        179.4593                                         !
 ! D57   D(20,19,21,17)       -178.9307                                         !
 ! D58   D(20,19,21,22)          0.2199                                         !
 ! D59   D(7,23,24,25)          36.9569                                         !
 ! D60   D(7,23,24,26)         -82.6429                                         !
 ! D61   D(7,23,24,27)         155.3942                                         !
 ! D62   D(34,23,24,25)       -132.4107                                         !
 ! D63   D(34,23,24,26)        107.9896                                         !
 ! D64   D(34,23,24,27)        -13.9733                                         !
 ! D65   D(7,23,34,31)        -179.7374                                         !
 ! D66   D(7,23,34,35)         -60.0077                                         !
 ! D67   D(7,23,34,36)          57.5373                                         !
 ! D68   D(24,23,34,31)         -9.2266                                         !
 ! D69   D(24,23,34,35)        110.5031                                         !
 ! D70   D(24,23,34,36)       -131.9519                                         !
 ! D71   D(23,24,26,30)        161.8735                                         !
 ! D72   D(23,24,26,37)        -19.3759                                         !
 ! D73   D(25,24,26,30)         38.9175                                         !
 ! D74   D(25,24,26,37)       -142.3319                                         !
 ! D75   D(27,24,26,30)        -81.4286                                         !
 ! D76   D(27,24,26,37)         97.322                                          !
 ! D77   D(23,24,27,28)        154.7704                                         !
 ! D78   D(23,24,27,29)        -86.005                                          !
 ! D79   D(23,24,27,31)         31.445                                          !
 ! D80   D(25,24,27,28)        -85.9284                                         !
 ! D81   D(25,24,27,29)         33.2963                                         !
 ! D82   D(25,24,27,31)        150.7462                                         !
 ! D83   D(26,24,27,28)         31.5901                                         !
 ! D84   D(26,24,27,29)        150.8148                                         !
 ! D85   D(26,24,27,31)        -91.7353                                         !
 ! D86   D(24,26,37,38)         11.4799                                         !
 ! D87   D(24,26,37,39)        151.7608                                         !
 ! D88   D(30,26,37,38)       -169.8101                                         !
 ! D89   D(30,26,37,39)        -29.5291                                         !
 ! D90   D(24,27,31,32)         80.5969                                         !
 ! D91   D(24,27,31,33)       -158.907                                          !
 ! D92   D(24,27,31,34)        -37.5151                                         !
 ! D93   D(28,27,31,32)        -41.108                                          !
 ! D94   D(28,27,31,33)         79.388                                          !
 ! D95   D(28,27,31,34)       -159.22                                           !
 ! D96   D(29,27,31,32)       -163.2827                                         !
 ! D97   D(29,27,31,33)        -42.7866                                         !
 ! D98   D(29,27,31,34)         78.6053                                         !
 ! D99   D(27,31,34,23)         28.7228                                         !
 ! D100  D(27,31,34,35)        -88.7597                                         !
 ! D101  D(27,31,34,36)        149.1249                                         !
 ! D102  D(32,31,34,23)        -89.1836                                         !
 ! D103  D(32,31,34,35)        153.334                                          !
 ! D104  D(32,31,34,36)         31.2185                                         !
 ! D105  D(33,31,34,23)        150.7239                                         !
 ! D106  D(33,31,34,35)         33.2415                                         !
 ! D107  D(33,31,34,36)        -88.874                                          !
 ! D108  D(26,37,39,40)         15.0829                                         !
 ! D109  D(26,37,39,41)       -100.0465                                         !
 ! D110  D(26,37,39,42)        134.8637                                         !
 ! D111  D(38,37,39,40)        154.7377                                         !
 ! D112  D(38,37,39,41)         39.6083                                         !
 ! D113  D(38,37,39,42)        -85.4815                                         !
 ! D114  D(37,39,41,45)       -107.5885                                         !
 ! D115  D(37,39,41,59)         67.0538                                         !
 ! D116  D(40,39,41,45)        139.5372                                         !
 ! D117  D(40,39,41,59)        -45.8205                                         !
 ! D118  D(42,39,41,45)         17.5531                                         !
 ! D119  D(42,39,41,59)       -167.8046                                         !
 ! D120  D(37,39,42,43)        -71.092                                          !
 ! D121  D(37,39,42,44)        173.8767                                         !
 ! D122  D(37,39,42,46)         52.2542                                         !
 ! D123  D(40,39,42,43)         46.5918                                         !
 ! D124  D(40,39,42,44)        -68.4395                                         !
 ! D125  D(40,39,42,46)        169.938                                          !
 ! D126  D(41,39,42,43)        168.3419                                         !
 ! D127  D(41,39,42,44)         53.3106                                         !
 ! D128  D(41,39,42,46)        -68.3119                                         !
 ! D129  D(39,42,46,47)        -70.7154                                         !
 ! D130  D(39,42,46,48)         47.0867                                         !
 ! D131  D(39,42,46,49)        165.8249                                         !
 ! D132  D(43,42,46,47)         50.9177                                         !
 ! D133  D(43,42,46,48)        168.7198                                         !
 ! D134  D(43,42,46,49)        -72.5421                                         !
 ! D135  D(44,42,46,47)        168.9049                                         !
 ! D136  D(44,42,46,48)        -73.2931                                         !
 ! D137  D(44,42,46,49)         45.4451                                         !
 ! D138  D(42,46,49,50)        -60.0305                                         !
 ! D139  D(42,46,49,51)       -176.8798                                         !
 ! D140  D(42,46,49,52)         61.5418                                         !
 ! D141  D(47,46,49,50)        176.1808                                         !
 ! D142  D(47,46,49,51)         59.3315                                         !
 ! D143  D(47,46,49,52)        -62.2469                                         !
 ! D144  D(48,46,49,50)         59.8769                                         !
 ! D145  D(48,46,49,51)        -56.9723                                         !
 ! D146  D(48,46,49,52)       -178.5508                                         !
 ! D147  D(46,49,52,53)        -62.1618                                         !
 ! D148  D(46,49,52,54)         61.9819                                         !
 ! D149  D(46,49,52,55)        179.9529                                         !
 ! D150  D(50,49,52,53)         59.0375                                         !
 ! D151  D(50,49,52,54)       -176.8188                                         !
 ! D152  D(50,49,52,55)        -58.8478                                         !
 ! D153  D(51,49,52,53)        176.3314                                         !
 ! D154  D(51,49,52,54)        -59.5249                                         !
 ! D155  D(51,49,52,55)         58.4461                                         !
 ! D156  D(49,52,55,56)       -179.9258                                         !
 ! D157  D(49,52,55,57)         59.5086                                         !
 ! D158  D(49,52,55,58)        -59.1718                                         !
 ! D159  D(53,52,55,56)         57.7542                                         !
 ! D160  D(53,52,55,57)        -62.8114                                         !
 ! D161  D(53,52,55,58)        178.5082                                         !
 ! D162  D(54,52,55,56)        -57.8155                                         !
 ! D163  D(54,52,55,57)       -178.3811                                         !
 ! D164  D(54,52,55,58)         62.9385                                         !
 --------------------------------------------------------------------------------
 Symmetry turned off by external request.
 Stoichiometry    C20H31N4O4(1+)
 Framework group  C1[X(C20H31N4O4)]
 Deg. of freedom   171
 Full point group                 C1      NOp   1
                          Input orientation:                          
 ---------------------------------------------------------------------
 Center     Atomic      Atomic             Coordinates (Angstroms)
 Number     Number       Type             X           Y           Z
 ---------------------------------------------------------------------
      1          7           0       -0.761992   -0.290377   -3.646557
      2          1           0        0.534610    0.117055   -2.604286
      3          1           0       -0.646797    0.199637   -4.533621
      4          1           0       -0.931532   -1.274296   -3.866313
      5          6           0       -1.957417    0.225481   -2.938235
      6          1           0       -1.651609    1.106657   -2.369641
      7          6           0       -2.454183   -0.905690   -2.018802
      8          6           0       -3.101734    0.613951   -3.915644
      9          1           0       -2.694356    1.352480   -4.618731
     10          1           0       -3.363146   -0.280319   -4.492161
     11          8           0       -2.582143   -2.034572   -2.492735
     12          6           0       -4.330573    1.178805   -3.234045
     13          6           0       -4.390784    2.532920   -2.873238
     14          1           0       -3.562085    3.192962   -3.122217
     15          6           0       -5.421030    0.353346   -2.925487
     16          1           0       -5.393115   -0.695931   -3.210297
     17          6           0       -5.507701    3.048141   -2.212989
     18          1           0       -5.539667    4.101315   -1.947879
     19          6           0       -6.541094    0.866467   -2.268217
     20          1           0       -7.383282    0.215360   -2.049456
     21          6           0       -6.586113    2.214811   -1.907227
     22          1           0       -7.460742    2.616984   -1.403653
     23          7           0       -2.777652   -0.647115   -0.715995
     24          6           0       -2.705864    0.636217    0.006462
     25          1           0       -2.983325    1.474662   -0.634327
     26          6           0       -1.300519    0.976373    0.549516
     27          6           0       -3.743423    0.456503    1.137613
     28          1           0       -3.518816    1.092419    1.997488
     29          1           0       -4.730105    0.736732    0.754282
     30          8           0       -1.019762    2.119608    0.866195
     31          6           0       -3.690910   -1.049732    1.438096
     32          1           0       -2.834652   -1.276428    2.084943
     33          1           0       -4.591669   -1.416273    1.937675
     34          6           0       -3.500846   -1.685577    0.054565
     35          1           0       -4.456460   -1.894708   -0.440052
     36          1           0       -2.932643   -2.619670    0.067718
     37          7           0       -0.422682   -0.085035    0.671168
     38          1           0       -0.750993   -0.929344    0.214839
     39          6           0        1.023570    0.153681    0.562874
     40          1           0        1.151782    1.234820    0.666329
     41          6           0        1.399562   -0.256846   -0.874290
     42          6           0        1.849335   -0.559740    1.642320
     43          1           0        1.654491   -0.049586    2.594929
     44          1           0        2.908143   -0.401180    1.396558
     45          8           0        2.027508   -1.262920   -1.151828
     46          6           0        1.575959   -2.067522    1.771560
     47          1           0        0.582476   -2.236125    2.206469
     48          1           0        1.581140   -2.512294    0.773483
     49          6           0        2.635588   -2.821461    2.597693
     50          1           0        3.614748   -2.700887    2.113020
     51          1           0        2.398750   -3.894561    2.594830
     52          6           0        2.717008   -2.327937    4.036745
     53          1           0        3.012827   -1.279848    4.111313
     54          1           0        1.783713   -2.475279    4.586177
     55          7           0        3.784770   -3.114153    4.807527
     56          1           0        3.866892   -2.808297    5.784923
     57          1           0        4.706528   -3.004431    4.366501
     58          1           0        3.570059   -4.119067    4.810020
     59          8           0        0.842481    0.576830   -1.743942
 ---------------------------------------------------------------------
 Rotational constants (GHZ):           0.3392702           0.0911475           0.0843291
 Standard basis: 6-31G(d) (6D, 7F)
   482 basis functions,   908 primitive gaussians,   482 cartesian basis functions
   105 alpha electrons      105 beta electrons
       nuclear repulsion energy      2837.6047665397 Hartrees.
 NAtoms=   59 NActive=   59 NUniq=   59 SFac= 1.00D+00 NAtFMM=   60 NAOKFM=F Big=F
 Integral buffers will be    131072 words long.
 Raffenetti 2 integral format.
 Two-electron integral symmetry is turned off.
 One-electron integrals computed using PRISM.
 NBasis=   482 RedAO= T EigKep=  4.69D-04  NBF=   482
 NBsUse=   482 1.00D-06 EigRej= -1.00D+00 NBFU=   482
 Initial guess from the checkpoint file:  "conf-684.chk"
 B after Tr=     0.000000    0.000000    0.000000
         Rot=    1.000000    0.000000    0.000000    0.000000 Ang=   0.00 deg.
 Requested convergence on RMS density matrix=1.00D-08 within 128 cycles.
 Requested convergence on MAX density matrix=1.00D-06.
 Requested convergence on             energy=1.00D-06.
 No special actions if energy rises.
 SCF Done:  E(RB3LYP) =  -1300.51173754     A.U. after    1 cycles
            NFock=  1  Conv=0.74D-08     -V/T= 2.0095

 **********************************************************************

            Population analysis using the SCF Density.

 **********************************************************************

 Alpha  occ. eigenvalues --  -19.23837 -19.20972 -19.19612 -19.19312 -14.65646
 Alpha  occ. eigenvalues --  -14.44655 -14.44258 -14.41877 -10.42405 -10.38860
 Alpha  occ. eigenvalues --  -10.36541 -10.36416 -10.34839 -10.31924 -10.31212
 Alpha  occ. eigenvalues --  -10.30694 -10.30609 -10.29758 -10.29542 -10.27070
 Alpha  occ. eigenvalues --  -10.27043 -10.26529 -10.26222 -10.25239 -10.25206
 Alpha  occ. eigenvalues --  -10.25173 -10.25116 -10.25045  -1.19491  -1.15991
 Alpha  occ. eigenvalues --   -1.11726  -1.11213  -1.07666  -1.02531  -1.00402
 Alpha  occ. eigenvalues --   -0.97945  -0.95867  -0.91798  -0.88761  -0.87447
 Alpha  occ. eigenvalues --   -0.84765  -0.84216  -0.82409  -0.80542  -0.79117
 Alpha  occ. eigenvalues --   -0.78545  -0.78081  -0.75985  -0.73994  -0.71275
 Alpha  occ. eigenvalues --   -0.70686  -0.68343  -0.67613  -0.66748  -0.66642
 Alpha  occ. eigenvalues --   -0.65716  -0.64836  -0.63843  -0.62620  -0.61320
 Alpha  occ. eigenvalues --   -0.60339  -0.58490  -0.57417  -0.56966  -0.55676
 Alpha  occ. eigenvalues --   -0.55327  -0.54926  -0.53899  -0.53461  -0.52926
 Alpha  occ. eigenvalues --   -0.52530  -0.52129  -0.52048  -0.51613  -0.50835
 Alpha  occ. eigenvalues --   -0.50321  -0.50022  -0.49812  -0.48518  -0.48071
 Alpha  occ. eigenvalues --   -0.47832  -0.47553  -0.46709  -0.46090  -0.45833
 Alpha  occ. eigenvalues --   -0.45573  -0.44813  -0.43907  -0.43713  -0.43132
 Alpha  occ. eigenvalues --   -0.42903  -0.42171  -0.41753  -0.41328  -0.40541
 Alpha  occ. eigenvalues --   -0.40062  -0.37920  -0.36031  -0.35091  -0.34791
 Alpha  occ. eigenvalues --   -0.33125  -0.32594  -0.31505  -0.30995  -0.30497
 Alpha virt. eigenvalues --   -0.15994  -0.09347  -0.09268  -0.08494  -0.07187
 Alpha virt. eigenvalues --   -0.06958  -0.06675  -0.06150  -0.04338  -0.03202
 Alpha virt. eigenvalues --   -0.02233  -0.01213  -0.00108   0.01068   0.02352
 Alpha virt. eigenvalues --    0.02667   0.03158   0.03558   0.03732   0.04571
 Alpha virt. eigenvalues --    0.05484   0.05933   0.06607   0.06920   0.07106
 Alpha virt. eigenvalues --    0.07459   0.07804   0.08254   0.08272   0.08745
 Alpha virt. eigenvalues --    0.09150   0.09425   0.10052   0.10554   0.11015
 Alpha virt. eigenvalues --    0.11402   0.11608   0.12051   0.12387   0.13141
 Alpha virt. eigenvalues --    0.13227   0.13885   0.14005   0.14437   0.15277
 Alpha virt. eigenvalues --    0.15502   0.16960   0.17004   0.17747   0.18511
 Alpha virt. eigenvalues --    0.19243   0.20259   0.20844   0.22644   0.24673
 Alpha virt. eigenvalues --    0.25594   0.25935   0.26332   0.27382   0.28202
 Alpha virt. eigenvalues --    0.28981   0.29301   0.31960   0.33787   0.34745
 Alpha virt. eigenvalues --    0.35880   0.36254   0.38210   0.39224   0.40475
 Alpha virt. eigenvalues --    0.41892   0.42408   0.42768   0.45458   0.45557
 Alpha virt. eigenvalues --    0.46204   0.46437   0.46841   0.46968   0.47631
 Alpha virt. eigenvalues --    0.48156   0.48703   0.49131   0.49453   0.49947
 Alpha virt. eigenvalues --    0.51017   0.51137   0.52336   0.52622   0.52997
 Alpha virt. eigenvalues --    0.53527   0.53759   0.54869   0.55210   0.55376
 Alpha virt. eigenvalues --    0.55920   0.56298   0.56842   0.57534   0.57681
 Alpha virt. eigenvalues --    0.58340   0.58819   0.59389   0.59885   0.60185
 Alpha virt. eigenvalues --    0.60771   0.61326   0.62132   0.62369   0.62697
 Alpha virt. eigenvalues --    0.63516   0.64110   0.64328   0.65924   0.66653
 Alpha virt. eigenvalues --    0.66944   0.68174   0.68493   0.70414   0.71259
 Alpha virt. eigenvalues --    0.71937   0.72116   0.73047   0.73782   0.73851
 Alpha virt. eigenvalues --    0.74666   0.74707   0.75548   0.76154   0.76206
 Alpha virt. eigenvalues --    0.76887   0.77045   0.77621   0.77830   0.78157
 Alpha virt. eigenvalues --    0.78468   0.78852   0.79565   0.79722   0.80283
 Alpha virt. eigenvalues --    0.80483   0.80549   0.81427   0.81785   0.82850
 Alpha virt. eigenvalues --    0.83372   0.84006   0.84377   0.84994   0.85242
 Alpha virt. eigenvalues --    0.86003   0.86367   0.87233   0.87648   0.88150
 Alpha virt. eigenvalues --    0.89585   0.90087   0.90435   0.91850   0.91912
 Alpha virt. eigenvalues --    0.92911   0.93583   0.93966   0.95895   0.96659
 Alpha virt. eigenvalues --    0.96773   0.97734   0.98654   0.99605   1.00771
 Alpha virt. eigenvalues --    1.02612   1.02999   1.03763   1.04093   1.06024
 Alpha virt. eigenvalues --    1.06463   1.08182   1.08923   1.10405   1.10615
 Alpha virt. eigenvalues --    1.11246   1.12149   1.13203   1.15196   1.16469
 Alpha virt. eigenvalues --    1.17012   1.18520   1.19702   1.20437   1.23547
 Alpha virt. eigenvalues --    1.24980   1.26042   1.27572   1.28440   1.29485
 Alpha virt. eigenvalues --    1.30714   1.33311   1.34173   1.34657   1.35956
 Alpha virt. eigenvalues --    1.36742   1.37863   1.38612   1.39639   1.41327
 Alpha virt. eigenvalues --    1.41534   1.42607   1.42929   1.43673   1.44791
 Alpha virt. eigenvalues --    1.45279   1.46193   1.48770   1.50033   1.51505
 Alpha virt. eigenvalues --    1.52837   1.54223   1.55163   1.56272   1.58251
 Alpha virt. eigenvalues --    1.59534   1.60967   1.63273   1.63762   1.65031
 Alpha virt. eigenvalues --    1.66768   1.67303   1.68352   1.68457   1.70307
 Alpha virt. eigenvalues --    1.70728   1.71624   1.71916   1.72548   1.73304
 Alpha virt. eigenvalues --    1.73713   1.75150   1.75265   1.75804   1.76019
 Alpha virt. eigenvalues --    1.76528   1.77596   1.77958   1.78329   1.79997
 Alpha virt. eigenvalues --    1.80583   1.81631   1.82117   1.82485   1.84067
 Alpha virt. eigenvalues --    1.84409   1.85387   1.85959   1.86359   1.86951
 Alpha virt. eigenvalues --    1.88462   1.89229   1.90078   1.90440   1.91975
 Alpha virt. eigenvalues --    1.92408   1.92880   1.93633   1.95070   1.95742
 Alpha virt. eigenvalues --    1.96739   1.97592   1.98183   1.99178   1.99802
 Alpha virt. eigenvalues --    2.01126   2.01800   2.02869   2.04001   2.05091
 Alpha virt. eigenvalues --    2.05807   2.07303   2.08147   2.08318   2.08690
 Alpha virt. eigenvalues --    2.09085   2.10072   2.11798   2.12663   2.13051
 Alpha virt. eigenvalues --    2.14332   2.15835   2.17254   2.18782   2.19346
 Alpha virt. eigenvalues --    2.20472   2.21494   2.22089   2.23426   2.24844
 Alpha virt. eigenvalues --    2.25094   2.25583   2.26945   2.29888   2.30277
 Alpha virt. eigenvalues --    2.31197   2.32276   2.33819   2.34648   2.36020
 Alpha virt. eigenvalues --    2.36582   2.38248   2.39372   2.40301   2.42059
 Alpha virt. eigenvalues --    2.42306   2.43304   2.44908   2.48902   2.49220
 Alpha virt. eigenvalues --    2.50437   2.51715   2.52174   2.52742   2.56464
 Alpha virt. eigenvalues --    2.57092   2.58020   2.59631   2.59891   2.61006
 Alpha virt. eigenvalues --    2.64652   2.65394   2.66373   2.66833   2.67579
 Alpha virt. eigenvalues --    2.68382   2.70630   2.71105   2.71602   2.74695
 Alpha virt. eigenvalues --    2.75401   2.77075   2.83450   2.85773   2.86848
 Alpha virt. eigenvalues --    2.90429   2.93346   2.93786   2.96013   2.99272
 Alpha virt. eigenvalues --    3.04625   3.05637   3.13903   3.34515   3.53461
 Alpha virt. eigenvalues --    3.81032   3.85691   3.90334   3.99966   4.02651
 Alpha virt. eigenvalues --    4.03886   4.07346   4.07936   4.10455   4.12726
 Alpha virt. eigenvalues --    4.14479   4.16972   4.19123   4.22772   4.25445
 Alpha virt. eigenvalues --    4.28968   4.30614   4.31960   4.37482   4.39224
 Alpha virt. eigenvalues --    4.41172   4.44542   4.52309   4.54079   4.64383
 Alpha virt. eigenvalues --    4.65888   4.69015
          Condensed to atoms (all electrons):
 Mulliken charges:
               1
     1  N   -0.786292
     2  H    0.456855
     3  H    0.332510
     4  H    0.350202
     5  C   -0.039257
     6  H    0.168230
     7  C    0.597911
     8  C   -0.371432
     9  H    0.155794
    10  H    0.174370
    11  O   -0.529122
    12  C    0.156544
    13  C   -0.193707
    14  H    0.135907
    15  C   -0.187969
    16  H    0.146927
    17  C   -0.127328
    18  H    0.146288
    19  C   -0.134710
    20  H    0.142079
    21  C   -0.132652
    22  H    0.144030
    23  N   -0.487936
    24  C   -0.062943
    25  H    0.201018
    26  C    0.609272
    27  C   -0.299890
    28  H    0.177271
    29  H    0.179592
    30  O   -0.496066
    31  C   -0.311455
    32  H    0.141883
    33  H    0.168324
    34  C   -0.114517
    35  H    0.177465
    36  H    0.166500
    37  N   -0.615722
    38  H    0.343423
    39  C   -0.046982
    40  H    0.210440
    41  C    0.569833
    42  C   -0.273406
    43  H    0.141577
    44  H    0.151806
    45  O   -0.474522
    46  C   -0.285711
    47  H    0.153307
    48  H    0.211572
    49  C   -0.299970
    50  H    0.176136
    51  H    0.167422
    52  C   -0.204475
    53  H    0.233825
    54  H    0.227247
    55  N   -0.731523
    56  H    0.431935
    57  H    0.428735
    58  H    0.427321
    59  O   -0.595964
 Sum of Mulliken charges =   1.00000
 Mulliken charges with hydrogens summed into heavy atoms:
               1
     1  N   -0.103580
     5  C    0.128973
     7  C    0.597911
     8  C   -0.041268
    11  O   -0.529122
    12  C    0.156544
    13  C   -0.057799
    15  C   -0.041042
    17  C    0.018960
    19  C    0.007369
    21  C    0.011378
    23  N   -0.487936
    24  C    0.138076
    26  C    0.609272
    27  C    0.056973
    30  O   -0.496066
    31  C   -0.001249
    34  C    0.229449
    37  N   -0.272299
    39  C    0.163458
    41  C    0.569833
    42  C    0.019976
    45  O   -0.474522
    46  C    0.079167
    49  C    0.043587
    52  C    0.256596
    55  N    0.556468
    59  O   -0.139109
 Electronic spatial extent (au):  <R**2>=          14955.4705
 Charge=              1.0000 electrons
 Dipole moment (field-independent basis, Debye):
    X=              9.9080    Y=            -12.3739    Z=             18.3970  Tot=             24.2843
 Quadrupole moment (field-independent basis, Debye-Ang):
   XX=            -80.0139   YY=           -127.5347   ZZ=            -51.4834
   XY=            -50.6793   XZ=             79.1697   YZ=            -73.2023
 Traceless Quadrupole moment (field-independent basis, Debye-Ang):
   XX=              6.3301   YY=            -41.1907   ZZ=             34.8606
   XY=            -50.6793   XZ=             79.1697   YZ=            -73.2023
 Octapole moment (field-independent basis, Debye-Ang**2):
  XXX=            853.0410  YYY=            -57.2928  ZZZ=            646.3021  XYY=            399.8970
  XXY=           -128.6114  XXZ=            392.0730  XZZ=            621.4476  YZZ=           -266.3242
  YYZ=            283.2105  XYZ=           -217.6366
 Hexadecapole moment (field-independent basis, Debye-Ang**3):
 XXXX=          -9079.9850 YYYY=          -2177.2418 ZZZZ=          -2824.0472 XXXY=            485.7151
 XXXZ=          -1343.2704 YYYX=            697.8932 YYYZ=            202.6128 ZZZX=           -666.4122
 ZZZY=           -514.4503 XXYY=          -1603.4234 XXZZ=          -1516.2737 YYZZ=           -460.5538
 XXYZ=           -583.1495 YYXZ=            -74.9901 ZZXY=           -660.1729
 N-N= 2.837604766540D+03 E-N=-8.682019462966D+03  KE= 1.288269487202D+03
 Unable to Open any file for archive entry.
 1\1\GINC-AMR-143\SP\RB3LYP\6-31G(d)\C20H31N4O4(1+)\KENGMITH\25-May-202
 2\0\\# B3LYP/6-31G* guess=read geom=check nosymm integral(ultrafinegri
 d)\\Candidate Structure: Conf:684 Charge calc in gas phase\\1,1\N,0,-0
 .761991919,-0.2903773992,-3.6465565175\H,0,0.5346100677,0.1170545419,-
 2.6042857059\H,0,-0.6467965918,0.1996366235,-4.5336209233\H,0,-0.93153
 23129,-1.2742958385,-3.8663133119\C,0,-1.9574170023,0.2254809475,-2.93
 82346037\H,0,-1.6516093137,1.1066571863,-2.3696414785\C,0,-2.454182809
 5,-0.9056903297,-2.0188019775\C,0,-3.1017339239,0.6139514985,-3.915643
 6113\H,0,-2.694355828,1.3524795235,-4.6187307937\H,0,-3.3631462365,-0.
 2803193844,-4.4921608177\O,0,-2.5821427964,-2.0345719187,-2.4927352046
 \C,0,-4.3305732789,1.1788048074,-3.2340451552\C,0,-4.3907835006,2.5329
 196566,-2.8732376934\H,0,-3.5620852007,3.1929621003,-3.1222168606\C,0,
 -5.4210302142,0.3533456471,-2.9254870306\H,0,-5.393115388,-0.695931433
 9,-3.2102971703\C,0,-5.5077007433,3.0481410209,-2.2129890124\H,0,-5.53
 96670398,4.1013145615,-1.9478787385\C,0,-6.5410941468,0.8664668132,-2.
 268216764\H,0,-7.3832824784,0.2153602931,-2.04945646\C,0,-6.5861133193
 ,2.2148110867,-1.9072274853\H,0,-7.4607424854,2.616984382,-1.403652531
 3\N,0,-2.7776517751,-0.6471149168,-0.7159947731\C,0,-2.7058636068,0.63
 62167863,0.0064616594\H,0,-2.9833252907,1.4746617382,-0.6343269867\C,0
 ,-1.300519328,0.9763731047,0.5495162218\C,0,-3.7434225016,0.4565032582
 ,1.1376134073\H,0,-3.5188160134,1.0924187247,1.997488144\H,0,-4.730104
 9051,0.7367320976,0.7542817822\O,0,-1.0197618452,2.1196075585,0.866194
 8573\C,0,-3.6909102612,-1.0497321747,1.438096271\H,0,-2.8346520094,-1.
 2764279208,2.0849428517\H,0,-4.5916689212,-1.4162727424,1.9376754187\C
 ,0,-3.5008463527,-1.6855766126,0.0545646384\H,0,-4.4564595562,-1.89470
 79647,-0.4400516988\H,0,-2.9326425496,-2.619670357,0.0677176768\N,0,-0
 .4226824178,-0.085034507,0.6711682675\H,0,-0.7509930377,-0.9293441194,
 0.2148390373\C,0,1.0235704712,0.1536809592,0.5628744141\H,0,1.15178172
 05,1.2348199362,0.6663286228\C,0,1.3995623742,-0.2568458136,-0.8742902
 107\C,0,1.8493354469,-0.5597398047,1.642320073\H,0,1.6544905528,-0.049
 5855488,2.5949291708\H,0,2.9081434077,-0.4011804173,1.3965577174\O,0,2
 .027507617,-1.2629200221,-1.1518280976\C,0,1.5759588028,-2.067522442,1
 .7715595352\H,0,0.5824760553,-2.2361252945,2.2064690251\H,0,1.58113961
 62,-2.5122944692,0.7734832538\C,0,2.6355880511,-2.8214614826,2.5976933
 273\H,0,3.6147483853,-2.7008874094,2.1130199092\H,0,2.3987495004,-3.89
 45613283,2.5948299074\C,0,2.7170083396,-2.3279369111,4.0367454439\H,0,
 3.012827054,-1.2798483562,4.1113131806\H,0,1.783713462,-2.4752785067,4
 .5861772511\N,0,3.784770252,-3.1141527603,4.807526718\H,0,3.8668921293
 ,-2.8082970184,5.7849228984\H,0,4.7065276922,-3.0044314653,4.366501092
 2\H,0,3.5700591788,-4.1190667966,4.8100200443\O,0,0.842481444,0.576830
 3938,-1.7439417236\\Version=ES64L-G16RevC.01\HF=-1300.5117375\RMSD=7.4
 17e-09\Dipole=6.6327652,-4.4858345,8.0334081\Quadrupole=4.7062757,-30.
 6242777,25.9180021,-37.6788177,58.8607299,-54.4240934\PG=C01 [X(C20H31
 N4O4)]\\@
 The archive entry for this job was punched.


 A SOLDIER'S LIFE IS A LIFE OF HONOR, BUT A DOG WOULD NOT LEAD IT.
 -- PRINCE RUPERT, FOUNDER OF THE HUDSON'S BAY COMPANY
 Job cpu time:       0 days  0 hours  0 minutes 57.6 seconds.
 Elapsed time:       0 days  0 hours  0 minutes 14.8 seconds.
 File lengths (MBytes):  RWF=    240 Int=      0 D2E=      0 Chk=     32 Scr=     16
 Normal termination of Gaussian 16 at Wed May 25 07:50:09 2022.
