 Entering Gaussian System, Link 0=/opt/software/Gaussian/g16-AVX2-C.01/g16/g16
 Input=charge-conf-883.com
 Output=charge-conf-883.log
 Initial command:
 /opt/software/Gaussian/g16-AVX2-C.01/g16/l1.exe "/mnt/gs18/scratch/users/kengmith/Gau-63212.inp" -scrdir="/mnt/gs18/scratch/users/kengmith/"
 Entering Link 1 = /opt/software/Gaussian/g16-AVX2-C.01/g16/l1.exe PID=     63229.
  
 Copyright (c) 1988-2019, Gaussian, Inc.  All Rights Reserved.
  
 This is part of the Gaussian(R) 16 program.  It is based on
 the Gaussian(R) 09 system (copyright 2009, Gaussian, Inc.),
 the Gaussian(R) 03 system (copyright 2003, Gaussian, Inc.),
 the Gaussian(R) 98 system (copyright 1998, Gaussian, Inc.),
 the Gaussian(R) 94 system (copyright 1995, Gaussian, Inc.),
 the Gaussian 92(TM) system (copyright 1992, Gaussian, Inc.),
 the Gaussian 90(TM) system (copyright 1990, Gaussian, Inc.),
 the Gaussian 88(TM) system (copyright 1988, Gaussian, Inc.),
 the Gaussian 86(TM) system (copyright 1986, Carnegie Mellon
 University), and the Gaussian 82(TM) system (copyright 1983,
 Carnegie Mellon University). Gaussian is a federally registered
 trademark of Gaussian, Inc.
  
 This software contains proprietary and confidential information,
 including trade secrets, belonging to Gaussian, Inc.
  
 This software is provided under written license and may be
 used, copied, transmitted, or stored only in accord with that
 written license.
  
 The following legend is applicable only to US Government
 contracts under FAR:
  
                    RESTRICTED RIGHTS LEGEND
  
 Use, reproduction and disclosure by the US Government is
 subject to restrictions as set forth in subparagraphs (a)
 and (c) of the Commercial Computer Software - Restricted
 Rights clause in FAR 52.227-19.
  
 Gaussian, Inc.
 340 Quinnipiac St., Bldg. 40, Wallingford CT 06492
  
  
 ---------------------------------------------------------------
 Warning -- This program may not be used in any manner that
 competes with the business of Gaussian, Inc. or will provide
 assistance to any competitor of Gaussian, Inc.  The licensee
 of this program is prohibited from giving any competitor of
 Gaussian, Inc. access to this program.  By using this program,
 the user acknowledges that Gaussian, Inc. is engaged in the
 business of creating and licensing software in the field of
 computational chemistry and represents and warrants to the
 licensee that it is not a competitor of Gaussian, Inc. and that
 it will not use this program in any manner prohibited above.
 ---------------------------------------------------------------
  

 Cite this work as:
 Gaussian 16, Revision C.01,
 M. J. Frisch, G. W. Trucks, H. B. Schlegel, G. E. Scuseria, 
 M. A. Robb, J. R. Cheeseman, G. Scalmani, V. Barone, 
 G. A. Petersson, H. Nakatsuji, X. Li, M. Caricato, A. V. Marenich, 
 J. Bloino, B. G. Janesko, R. Gomperts, B. Mennucci, H. P. Hratchian, 
 J. V. Ortiz, A. F. Izmaylov, J. L. Sonnenberg, D. Williams-Young, 
 F. Ding, F. Lipparini, F. Egidi, J. Goings, B. Peng, A. Petrone, 
 T. Henderson, D. Ranasinghe, V. G. Zakrzewski, J. Gao, N. Rega, 
 G. Zheng, W. Liang, M. Hada, M. Ehara, K. Toyota, R. Fukuda, 
 J. Hasegawa, M. Ishida, T. Nakajima, Y. Honda, O. Kitao, H. Nakai, 
 T. Vreven, K. Throssell, J. A. Montgomery, Jr., J. E. Peralta, 
 F. Ogliaro, M. J. Bearpark, J. J. Heyd, E. N. Brothers, K. N. Kudin, 
 V. N. Staroverov, T. A. Keith, R. Kobayashi, J. Normand, 
 K. Raghavachari, A. P. Rendell, J. C. Burant, S. S. Iyengar, 
 J. Tomasi, M. Cossi, J. M. Millam, M. Klene, C. Adamo, R. Cammi, 
 J. W. Ochterski, R. L. Martin, K. Morokuma, O. Farkas, 
 J. B. Foresman, and D. J. Fox, Gaussian, Inc., Wallingford CT, 2019.
 
 ******************************************
 Gaussian 16:  ES64L-G16RevC.01  3-Jul-2019
                 1-Jun-2022 
 ******************************************
 %mem=8gb
 %nproc=4
 Will use up to    4 processors via shared memory.
 %chk=conf-883.chk
 ----------------------------------------------------------------------
 # B3LYP/6-31G* empiricaldispersion=gd3 guess=read geom=check nosymm in
 tegral(ultrafinegrid)
 ----------------------------------------------------------------------
 1/29=2,38=1,172=1/1;
 2/12=2,15=1,40=1/2;
 3/5=1,6=6,7=1,11=2,14=-4,25=1,30=1,74=-5,75=-5,116=-2,124=31/1,2,3;
 4/5=1/1;
 5/5=2,38=6/2;
 6/7=2,8=2,9=2,10=2,28=1/1;
 99/5=1,9=1/99;
 ------------------------------------------------------
 Candidate Structure: Conf:883 Charge calc in gas phase
 ------------------------------------------------------
 Structure from the checkpoint file:  "conf-883.chk"
 Charge =  1 Multiplicity = 1
 Redundant internal coordinates found in file.  (old form).
 N,0,2.0513926654,-2.6354876778,1.3090492427
 H,0,2.2673521223,-3.184979408,2.1428583004
 H,0,1.9321596981,-3.2763274519,0.5242942364
 C,0,0.7771997581,-1.9313822963,1.5588593894
 H,0,0.8797136954,-1.4565606049,2.5392858028
 C,0,0.6323308065,-0.8637805636,0.471741291
 C,0,-0.481702125,-2.8307005714,1.5538503387
 H,0,-0.6884345863,-3.1403687582,0.5226747943
 H,0,-1.3428903462,-2.2315805571,1.8709106449
 O,0,1.0348248731,-1.0812774222,-0.6750577065
 C,0,-0.3746666828,-4.1057947161,2.4199670898
 H,0,0.3461545352,-4.7968923412,1.9697514941
 H,0,-1.3445041344,-4.6070852296,2.4503149229
 C,0,0.1173263311,-3.8252238524,3.8236912857
 O,0,1.2467447525,-3.4469176823,4.0849858231
 O,0,-0.8252577841,-4.0152853748,4.7592239803
 N,0,0.0582054888,0.3016693274,0.8344685352
 H,0,-0.1907543985,0.4487681947,1.8013927047
 C,0,-0.04736963,1.4266067745,-0.0849754523
 H,0,-0.4883557913,2.244601431,0.4963223067
 C,0,1.3810111307,1.8939882613,-0.4587128281
 C,0,-0.9846275437,1.1375516754,-1.2924183332
 H,0,-1.217028204,2.0929056329,-1.7798306542
 H,0,-0.448470846,0.5144756223,-2.0113869777
 O,0,2.3410840794,1.6703308748,0.2942602178
 C,0,-2.2635879724,0.4592935339,-0.8612813907
 C,0,-2.399226647,-0.9327283146,-0.9603736917
 H,0,-1.5927281649,-1.5131102072,-1.401223026
 C,0,-3.3167915573,1.1876705605,-0.298428065
 H,0,-3.2455248839,2.2709212401,-0.2213359247
 C,0,-3.5424379523,-1.5820730958,-0.5062437425
 H,0,-3.6562205576,-2.6579041911,-0.5942670454
 C,0,-4.4697580461,0.5527783729,0.1620379882
 H,0,-5.2816171885,1.1373486894,0.589577821
 O,0,-5.6765903445,-1.5306612192,0.492836865
 H,0,-6.3505638716,-0.9134626191,0.8183729043
 C,0,-4.585312873,-0.8391393097,0.0617592143
 N,0,1.5155567363,2.5782157128,-1.6068128537
 H,0,0.6998400844,2.820561271,-2.159807876
 C,0,2.7294462921,3.3085061772,-1.9671216453
 H,0,3.2154931783,3.6400715274,-1.0431604114
 C,0,2.2645758321,4.5400363511,-2.7444357246
 C,0,3.7638163829,2.5169209371,-2.8076835101
 H,0,3.2871395664,2.1805622517,-3.7374882104
 H,0,4.5393999219,3.2350867568,-3.0913648778
 O,0,1.1355084028,4.6939015129,-3.1587450083
 C,0,4.4141676544,1.325276526,-2.0768525896
 H,0,4.5443569695,1.5956652985,-1.022458684
 H,0,5.4204176573,1.1670811265,-2.4839070563
 C,0,3.6135566061,0.0198002329,-2.2129883019
 H,0,2.5439168565,0.1922618609,-2.0825927434
 H,0,3.7346821499,-0.3738725216,-3.2298805795
 C,0,4.0289393133,-1.0902355497,-1.2506136247
 H,0,3.427527206,-1.981693319,-1.4311174402
 H,0,5.0864045736,-1.3491422381,-1.3507044002
 N,0,3.7904358101,-0.7082415645,0.1996720582
 H,0,4.6643795221,-0.5331877507,0.6986605605
 H,0,3.2405048524,-1.4766260313,0.7075243523
 H,0,3.2169390286,0.1613183162,0.2664890967
 O,0,3.2667237257,5.4110052746,-2.9308868578
 H,0,-0.4232018345,-3.8203863031,5.6285554471
 H,0,2.9184236464,6.1590464675,-3.4539023254
 Recover connectivity data from disk.
                           ----------------------------
                           !    Current Parameters    !
                           ! (Angstroms and Degrees)  !
 --------------------------                            --------------------------
 ! Name  Definition              Value                                          !
 --------------------------------------------------------------------------------
 ! R1    R(1,2)                  1.0217                                         !
 ! R2    R(1,3)                  1.0202                                         !
 ! R3    R(1,4)                  1.4771                                         !
 ! R4    R(4,5)                  1.0942                                         !
 ! R5    R(4,6)                  1.5306                                         !
 ! R6    R(4,7)                  1.5471                                         !
 ! R7    R(6,10)                 1.2347                                         !
 ! R8    R(6,17)                 1.3489                                         !
 ! R9    R(7,8)                  1.0963                                         !
 ! R10   R(7,9)                  1.096                                          !
 ! R11   R(7,11)                 1.5451                                         !
 ! R12   R(11,12)                1.0954                                         !
 ! R13   R(11,13)                1.0922                                         !
 ! R14   R(11,14)                1.5137                                         !
 ! R15   R(14,15)                1.2194                                         !
 ! R16   R(14,16)                1.3416                                         !
 ! R17   R(16,61)                0.9774                                         !
 ! R18   R(17,18)                1.0092                                         !
 ! R19   R(17,19)                1.4567                                         !
 ! R20   R(19,20)                1.0961                                         !
 ! R21   R(19,21)                1.5487                                         !
 ! R22   R(19,22)                1.5556                                         !
 ! R23   R(21,25)                1.2405                                         !
 ! R24   R(21,38)                1.3433                                         !
 ! R25   R(22,23)                1.0974                                         !
 ! R26   R(22,24)                1.0921                                         !
 ! R27   R(22,26)                1.5105                                         !
 ! R28   R(26,27)                1.4021                                         !
 ! R29   R(26,29)                1.3988                                         !
 ! R30   R(27,28)                1.087                                          !
 ! R31   R(27,31)                1.391                                          !
 ! R32   R(29,30)                1.0883                                         !
 ! R33   R(29,33)                1.3944                                         !
 ! R34   R(31,32)                1.0854                                         !
 ! R35   R(31,37)                1.4008                                         !
 ! R36   R(33,34)                1.0879                                         !
 ! R37   R(33,37)                1.4003                                         !
 ! R38   R(35,36)                0.9701                                         !
 ! R39   R(35,37)                1.362                                          !
 ! R40   R(38,39)                1.0149                                         !
 ! R41   R(38,40)                1.4617                                         !
 ! R42   R(40,41)                1.0954                                         !
 ! R43   R(40,42)                1.5287                                         !
 ! R44   R(40,43)                1.5502                                         !
 ! R45   R(42,46)                1.2125                                         !
 ! R46   R(42,60)                1.3408                                         !
 ! R47   R(43,44)                1.0977                                         !
 ! R48   R(43,45)                1.0944                                         !
 ! R49   R(43,47)                1.5418                                         !
 ! R50   R(47,48)                1.0963                                         !
 ! R51   R(47,49)                1.0969                                         !
 ! R52   R(47,50)                1.5375                                         !
 ! R53   R(50,51)                1.0913                                         !
 ! R54   R(50,52)                1.0971                                         !
 ! R55   R(50,53)                1.5267                                         !
 ! R56   R(53,54)                1.0904                                         !
 ! R57   R(53,55)                1.0933                                         !
 ! R58   R(53,56)                1.5186                                         !
 ! R59   R(56,57)                1.0215                                         !
 ! R60   R(56,58)                1.0727                                         !
 ! R61   R(56,59)                1.0438                                         !
 ! R62   R(60,62)                0.9769                                         !
 ! A1    A(2,1,3)              108.3396                                         !
 ! A2    A(2,1,4)              107.4996                                         !
 ! A3    A(3,1,4)              109.1911                                         !
 ! A4    A(1,4,5)              106.1161                                         !
 ! A5    A(1,4,6)              107.0994                                         !
 ! A6    A(1,4,7)              115.1062                                         !
 ! A7    A(5,4,6)              110.0363                                         !
 ! A8    A(5,4,7)              109.353                                          !
 ! A9    A(6,4,7)              109.0347                                         !
 ! A10   A(4,6,10)             120.3971                                         !
 ! A11   A(4,6,17)             116.8695                                         !
 ! A12   A(10,6,17)            122.7328                                         !
 ! A13   A(4,7,8)              108.7033                                         !
 ! A14   A(4,7,9)              108.7048                                         !
 ! A15   A(4,7,11)             114.9296                                         !
 ! A16   A(8,7,9)              106.1613                                         !
 ! A17   A(8,7,11)             107.8903                                         !
 ! A18   A(9,7,11)             110.0836                                         !
 ! A19   A(7,11,12)            109.6237                                         !
 ! A20   A(7,11,13)            109.4409                                         !
 ! A21   A(7,11,14)            112.9157                                         !
 ! A22   A(12,11,13)           107.8295                                         !
 ! A23   A(12,11,14)           106.5116                                         !
 ! A24   A(13,11,14)           110.3613                                         !
 ! A25   A(11,14,15)           123.8666                                         !
 ! A26   A(11,14,16)           113.0828                                         !
 ! A27   A(15,14,16)           123.0431                                         !
 ! A28   A(14,16,61)           107.6357                                         !
 ! A29   A(6,17,18)            119.2463                                         !
 ! A30   A(6,17,19)            121.894                                          !
 ! A31   A(18,17,19)           118.3125                                         !
 ! A32   A(17,19,20)           105.7075                                         !
 ! A33   A(17,19,21)           108.5743                                         !
 ! A34   A(17,19,22)           112.9597                                         !
 ! A35   A(20,19,21)           105.8921                                         !
 ! A36   A(20,19,22)           107.9326                                         !
 ! A37   A(21,19,22)           115.1168                                         !
 ! A38   A(19,21,25)           120.8603                                         !
 ! A39   A(19,21,38)           116.8958                                         !
 ! A40   A(25,21,38)           122.2173                                         !
 ! A41   A(19,22,23)           108.094                                          !
 ! A42   A(19,22,24)           108.7368                                         !
 ! A43   A(19,22,26)           111.8412                                         !
 ! A44   A(23,22,24)           107.9544                                         !
 ! A45   A(23,22,26)           109.7773                                         !
 ! A46   A(24,22,26)           110.3294                                         !
 ! A47   A(22,26,27)           120.4993                                         !
 ! A48   A(22,26,29)           121.2355                                         !
 ! A49   A(27,26,29)           118.2015                                         !
 ! A50   A(26,27,28)           119.1409                                         !
 ! A51   A(26,27,31)           121.3254                                         !
 ! A52   A(28,27,31)           119.5337                                         !
 ! A53   A(26,29,30)           119.8344                                         !
 ! A54   A(26,29,33)           121.2216                                         !
 ! A55   A(30,29,33)           118.9426                                         !
 ! A56   A(27,31,32)           121.4926                                         !
 ! A57   A(27,31,37)           119.7806                                         !
 ! A58   A(32,31,37)           118.7203                                         !
 ! A59   A(29,33,34)           120.1414                                         !
 ! A60   A(29,33,37)           119.8124                                         !
 ! A61   A(34,33,37)           120.0437                                         !
 ! A62   A(36,35,37)           109.867                                          !
 ! A63   A(31,37,33)           119.6565                                         !
 ! A64   A(31,37,35)           117.1027                                         !
 ! A65   A(33,37,35)           123.2407                                         !
 ! A66   A(21,38,39)           120.4546                                         !
 ! A67   A(21,38,40)           123.2532                                         !
 ! A68   A(39,38,40)           114.4483                                         !
 ! A69   A(38,40,41)           108.1673                                         !
 ! A70   A(38,40,42)           105.9789                                         !
 ! A71   A(38,40,43)           115.6363                                         !
 ! A72   A(41,40,42)           108.6618                                         !
 ! A73   A(41,40,43)           108.413                                          !
 ! A74   A(42,40,43)           109.7894                                         !
 ! A75   A(40,42,46)           123.9968                                         !
 ! A76   A(40,42,60)           111.5146                                         !
 ! A77   A(46,42,60)           124.4765                                         !
 ! A78   A(40,43,44)           109.0273                                         !
 ! A79   A(40,43,45)           106.1605                                         !
 ! A80   A(40,43,47)           114.7782                                         !
 ! A81   A(44,43,45)           106.8137                                         !
 ! A82   A(44,43,47)           110.3567                                         !
 ! A83   A(45,43,47)           109.3368                                         !
 ! A84   A(43,47,48)           108.3833                                         !
 ! A85   A(43,47,49)           108.8149                                         !
 ! A86   A(43,47,50)           113.2443                                         !
 ! A87   A(48,47,49)           106.4717                                         !
 ! A88   A(48,47,50)           110.8813                                         !
 ! A89   A(49,47,50)           108.8066                                         !
 ! A90   A(47,50,51)           111.4471                                         !
 ! A91   A(47,50,52)           109.2236                                         !
 ! A92   A(47,50,53)           114.8264                                         !
 ! A93   A(51,50,52)           106.0019                                         !
 ! A94   A(51,50,53)           107.8343                                         !
 ! A95   A(52,50,53)           107.0571                                         !
 ! A96   A(50,53,54)           109.8772                                         !
 ! A97   A(50,53,55)           112.187                                          !
 ! A98   A(50,53,56)           112.1094                                         !
 ! A99   A(54,53,55)           108.9483                                         !
 ! A100  A(54,53,56)           106.0883                                         !
 ! A101  A(55,53,56)           107.3922                                         !
 ! A102  A(53,56,57)           112.0404                                         !
 ! A103  A(53,56,58)           110.6379                                         !
 ! A104  A(53,56,59)           110.915                                          !
 ! A105  A(57,56,58)           109.2744                                         !
 ! A106  A(57,56,59)           107.2201                                         !
 ! A107  A(58,56,59)           106.5441                                         !
 ! A108  A(42,60,62)           107.7804                                         !
 ! D1    D(2,1,4,5)             48.9956                                         !
 ! D2    D(2,1,4,6)            166.5124                                         !
 ! D3    D(2,1,4,7)            -72.0902                                         !
 ! D4    D(3,1,4,5)            166.3227                                         !
 ! D5    D(3,1,4,6)            -76.1604                                         !
 ! D6    D(3,1,4,7)             45.2369                                         !
 ! D7    D(1,4,6,10)            35.5142                                         !
 ! D8    D(1,4,6,17)          -144.2128                                         !
 ! D9    D(5,4,6,10)           150.4322                                         !
 ! D10   D(5,4,6,17)           -29.2948                                         !
 ! D11   D(7,4,6,10)           -89.6367                                         !
 ! D12   D(7,4,6,17)            90.6364                                         !
 ! D13   D(1,4,7,8)            -71.8549                                         !
 ! D14   D(1,4,7,9)            173.0027                                         !
 ! D15   D(1,4,7,11)            49.1429                                         !
 ! D16   D(5,4,7,8)            168.8385                                         !
 ! D17   D(5,4,7,9)             53.6961                                         !
 ! D18   D(5,4,7,11)           -70.1636                                         !
 ! D19   D(6,4,7,8)             48.4862                                         !
 ! D20   D(6,4,7,9)            -66.6562                                         !
 ! D21   D(6,4,7,11)           169.484                                          !
 ! D22   D(4,6,17,18)            4.1413                                         !
 ! D23   D(4,6,17,19)          175.5112                                         !
 ! D24   D(10,6,17,18)        -175.5787                                         !
 ! D25   D(10,6,17,19)          -4.2088                                         !
 ! D26   D(4,7,11,12)          -68.7957                                         !
 ! D27   D(4,7,11,13)          173.1332                                         !
 ! D28   D(4,7,11,14)           49.7798                                         !
 ! D29   D(8,7,11,12)           52.6457                                         !
 ! D30   D(8,7,11,13)          -65.4254                                         !
 ! D31   D(8,7,11,14)          171.2212                                         !
 ! D32   D(9,7,11,12)          168.0781                                         !
 ! D33   D(9,7,11,13)           50.0069                                         !
 ! D34   D(9,7,11,14)          -73.3464                                         !
 ! D35   D(7,11,14,15)         -67.82                                           !
 ! D36   D(7,11,14,16)         111.2037                                         !
 ! D37   D(12,11,14,15)         52.5522                                         !
 ! D38   D(12,11,14,16)       -128.4241                                         !
 ! D39   D(13,11,14,15)        169.3378                                         !
 ! D40   D(13,11,14,16)        -11.6385                                         !
 ! D41   D(11,14,16,61)        179.5446                                         !
 ! D42   D(15,14,16,61)         -1.4224                                         !
 ! D43   D(6,17,19,20)        -176.2691                                         !
 ! D44   D(6,17,19,21)         -63.0291                                         !
 ! D45   D(6,17,19,22)          65.9234                                         !
 ! D46   D(18,17,19,20)         -4.8217                                         !
 ! D47   D(18,17,19,21)        108.4183                                         !
 ! D48   D(18,17,19,22)       -122.6292                                         !
 ! D49   D(17,19,21,25)        -24.2589                                         !
 ! D50   D(17,19,21,38)        157.5789                                         !
 ! D51   D(20,19,21,25)         88.859                                          !
 ! D52   D(20,19,21,38)        -89.3031                                         !
 ! D53   D(22,19,21,25)       -151.995                                          !
 ! D54   D(22,19,21,38)         29.8428                                         !
 ! D55   D(17,19,22,23)        165.3589                                         !
 ! D56   D(17,19,22,24)        -77.6873                                         !
 ! D57   D(17,19,22,26)         44.398                                          !
 ! D58   D(20,19,22,23)         48.8631                                         !
 ! D59   D(20,19,22,24)        165.817                                          !
 ! D60   D(20,19,22,26)        -72.0978                                         !
 ! D61   D(21,19,22,23)        -69.1436                                         !
 ! D62   D(21,19,22,24)         47.8102                                         !
 ! D63   D(21,19,22,26)        169.8955                                         !
 ! D64   D(19,21,38,39)          3.8391                                         !
 ! D65   D(19,21,38,40)        167.5104                                         !
 ! D66   D(25,21,38,39)       -174.2961                                         !
 ! D67   D(25,21,38,40)        -10.6248                                         !
 ! D68   D(19,22,26,27)        -97.8185                                         !
 ! D69   D(19,22,26,29)         79.2265                                         !
 ! D70   D(23,22,26,27)        142.2023                                         !
 ! D71   D(23,22,26,29)        -40.7527                                         !
 ! D72   D(24,22,26,27)         23.3493                                         !
 ! D73   D(24,22,26,29)       -159.6057                                         !
 ! D74   D(22,26,27,28)         -3.2618                                         !
 ! D75   D(22,26,27,31)        176.7201                                         !
 ! D76   D(29,26,27,28)        179.6051                                         !
 ! D77   D(29,26,27,31)         -0.413                                          !
 ! D78   D(22,26,29,30)          3.7465                                         !
 ! D79   D(22,26,29,33)       -176.6893                                         !
 ! D80   D(27,26,29,30)       -179.1425                                         !
 ! D81   D(27,26,29,33)          0.4216                                         !
 ! D82   D(26,27,31,32)        179.1292                                         !
 ! D83   D(26,27,31,37)          0.0683                                         !
 ! D84   D(28,27,31,32)         -0.8889                                         !
 ! D85   D(28,27,31,37)       -179.9499                                         !
 ! D86   D(26,29,33,34)       -179.5128                                         !
 ! D87   D(26,29,33,37)         -0.0865                                         !
 ! D88   D(30,29,33,34)          0.0552                                         !
 ! D89   D(30,29,33,37)        179.4814                                         !
 ! D90   D(27,31,37,33)          0.2768                                         !
 ! D91   D(27,31,37,35)       -179.7513                                         !
 ! D92   D(32,31,37,33)       -178.8102                                         !
 ! D93   D(32,31,37,35)          1.1617                                         !
 ! D94   D(29,33,37,31)         -0.268                                          !
 ! D95   D(29,33,37,35)        179.7619                                         !
 ! D96   D(34,33,37,31)        179.1589                                         !
 ! D97   D(34,33,37,35)         -0.8112                                         !
 ! D98   D(36,35,37,31)       -176.7819                                         !
 ! D99   D(36,35,37,33)          3.1889                                         !
 ! D100  D(21,38,40,41)        -29.2466                                         !
 ! D101  D(21,38,40,42)       -145.6233                                         !
 ! D102  D(21,38,40,43)         92.5035                                         !
 ! D103  D(39,38,40,41)        135.3133                                         !
 ! D104  D(39,38,40,42)         18.9367                                         !
 ! D105  D(39,38,40,43)       -102.9366                                         !
 ! D106  D(38,40,42,46)        -12.0042                                         !
 ! D107  D(38,40,42,60)        169.2138                                         !
 ! D108  D(41,40,42,46)       -128.0464                                         !
 ! D109  D(41,40,42,60)         53.1716                                         !
 ! D110  D(43,40,42,46)        113.5395                                         !
 ! D111  D(43,40,42,60)        -65.2425                                         !
 ! D112  D(38,40,43,44)         58.4485                                         !
 ! D113  D(38,40,43,45)        173.1884                                         !
 ! D114  D(38,40,43,47)        -65.917                                          !
 ! D115  D(41,40,43,44)       -179.933                                          !
 ! D116  D(41,40,43,45)        -65.1931                                         !
 ! D117  D(41,40,43,47)         55.7016                                         !
 ! D118  D(42,40,43,44)        -61.3652                                         !
 ! D119  D(42,40,43,45)         53.3747                                         !
 ! D120  D(42,40,43,47)        174.2694                                         !
 ! D121  D(40,42,60,62)        178.2595                                         !
 ! D122  D(46,42,60,62)         -0.5156                                         !
 ! D123  D(40,43,47,48)        -35.6193                                         !
 ! D124  D(40,43,47,49)       -151.0163                                         !
 ! D125  D(40,43,47,50)         87.8524                                         !
 ! D126  D(44,43,47,48)       -159.2797                                         !
 ! D127  D(44,43,47,49)         85.3234                                         !
 ! D128  D(44,43,47,50)        -35.808                                          !
 ! D129  D(45,43,47,48)         83.5152                                         !
 ! D130  D(45,43,47,49)        -31.8817                                         !
 ! D131  D(45,43,47,50)       -153.0131                                         !
 ! D132  D(43,47,50,51)        -43.215                                          !
 ! D133  D(43,47,50,52)         73.5704                                         !
 ! D134  D(43,47,50,53)       -166.1915                                         !
 ! D135  D(48,47,50,51)         78.8727                                         !
 ! D136  D(48,47,50,52)       -164.3419                                         !
 ! D137  D(48,47,50,53)        -44.1038                                         !
 ! D138  D(49,47,50,51)       -164.3511                                         !
 ! D139  D(49,47,50,52)        -47.5657                                         !
 ! D140  D(49,47,50,53)         72.6724                                         !
 ! D141  D(47,50,53,54)       -178.7338                                         !
 ! D142  D(47,50,53,55)        -57.3784                                         !
 ! D143  D(47,50,53,56)         63.5598                                         !
 ! D144  D(51,50,53,54)         56.373                                          !
 ! D145  D(51,50,53,55)        177.7284                                         !
 ! D146  D(51,50,53,56)        -61.3334                                         !
 ! D147  D(52,50,53,54)        -57.3065                                         !
 ! D148  D(52,50,53,55)         64.0489                                         !
 ! D149  D(52,50,53,56)       -175.0128                                         !
 ! D150  D(50,53,56,57)       -108.6673                                         !
 ! D151  D(50,53,56,58)        129.1233                                         !
 ! D152  D(50,53,56,59)         11.11                                           !
 ! D153  D(54,53,56,57)        131.391                                          !
 ! D154  D(54,53,56,58)          9.1816                                         !
 ! D155  D(54,53,56,59)       -108.8317                                         !
 ! D156  D(55,53,56,57)         15.0008                                         !
 ! D157  D(55,53,56,58)       -107.2086                                         !
 ! D158  D(55,53,56,59)        134.7781                                         !
 --------------------------------------------------------------------------------
 Symmetry turned off by external request.
 Stoichiometry    C20H31N4O7(1+)
 Framework group  C1[X(C20H31N4O7)]
 Deg. of freedom   180
 Full point group                 C1      NOp   1
                          Input orientation:                          
 ---------------------------------------------------------------------
 Center     Atomic      Atomic             Coordinates (Angstroms)
 Number     Number       Type             X           Y           Z
 ---------------------------------------------------------------------
      1          7           0        2.051393   -2.635488    1.309049
      2          1           0        2.267352   -3.184979    2.142858
      3          1           0        1.932160   -3.276327    0.524294
      4          6           0        0.777200   -1.931382    1.558859
      5          1           0        0.879714   -1.456561    2.539286
      6          6           0        0.632331   -0.863781    0.471741
      7          6           0       -0.481702   -2.830701    1.553850
      8          1           0       -0.688435   -3.140369    0.522675
      9          1           0       -1.342890   -2.231581    1.870911
     10          8           0        1.034825   -1.081277   -0.675058
     11          6           0       -0.374667   -4.105795    2.419967
     12          1           0        0.346155   -4.796892    1.969751
     13          1           0       -1.344504   -4.607085    2.450315
     14          6           0        0.117326   -3.825224    3.823691
     15          8           0        1.246745   -3.446918    4.084986
     16          8           0       -0.825258   -4.015285    4.759224
     17          7           0        0.058205    0.301669    0.834469
     18          1           0       -0.190754    0.448768    1.801393
     19          6           0       -0.047370    1.426607   -0.084975
     20          1           0       -0.488356    2.244601    0.496322
     21          6           0        1.381011    1.893988   -0.458713
     22          6           0       -0.984628    1.137552   -1.292418
     23          1           0       -1.217028    2.092906   -1.779831
     24          1           0       -0.448471    0.514476   -2.011387
     25          8           0        2.341084    1.670331    0.294260
     26          6           0       -2.263588    0.459294   -0.861281
     27          6           0       -2.399227   -0.932728   -0.960374
     28          1           0       -1.592728   -1.513110   -1.401223
     29          6           0       -3.316792    1.187671   -0.298428
     30          1           0       -3.245525    2.270921   -0.221336
     31          6           0       -3.542438   -1.582073   -0.506244
     32          1           0       -3.656221   -2.657904   -0.594267
     33          6           0       -4.469758    0.552778    0.162038
     34          1           0       -5.281617    1.137349    0.589578
     35          8           0       -5.676590   -1.530661    0.492837
     36          1           0       -6.350564   -0.913463    0.818373
     37          6           0       -4.585313   -0.839139    0.061759
     38          7           0        1.515557    2.578216   -1.606813
     39          1           0        0.699840    2.820561   -2.159808
     40          6           0        2.729446    3.308506   -1.967122
     41          1           0        3.215493    3.640072   -1.043160
     42          6           0        2.264576    4.540036   -2.744436
     43          6           0        3.763816    2.516921   -2.807684
     44          1           0        3.287140    2.180562   -3.737488
     45          1           0        4.539400    3.235087   -3.091365
     46          8           0        1.135508    4.693902   -3.158745
     47          6           0        4.414168    1.325277   -2.076853
     48          1           0        4.544357    1.595665   -1.022459
     49          1           0        5.420418    1.167081   -2.483907
     50          6           0        3.613557    0.019800   -2.212988
     51          1           0        2.543917    0.192262   -2.082593
     52          1           0        3.734682   -0.373873   -3.229881
     53          6           0        4.028939   -1.090236   -1.250614
     54          1           0        3.427527   -1.981693   -1.431117
     55          1           0        5.086405   -1.349142   -1.350704
     56          7           0        3.790436   -0.708242    0.199672
     57          1           0        4.664380   -0.533188    0.698661
     58          1           0        3.240505   -1.476626    0.707524
     59          1           0        3.216939    0.161318    0.266489
     60          8           0        3.266724    5.411005   -2.930887
     61          1           0       -0.423202   -3.820386    5.628555
     62          1           0        2.918424    6.159046   -3.453902
 ---------------------------------------------------------------------
 Rotational constants (GHZ):           0.1765753           0.0910297           0.0658101
 Standard basis: 6-31G(d) (6D, 7F)
   527 basis functions,   992 primitive gaussians,   527 cartesian basis functions
   117 alpha electrons      117 beta electrons
       nuclear repulsion energy      3350.8348414050 Hartrees.
 NAtoms=   62 NActive=   62 NUniq=   62 SFac= 1.00D+00 NAtFMM=   60 NAOKFM=T Big=T
 Integral buffers will be    131072 words long.
 Raffenetti 2 integral format.
 Two-electron integral symmetry is turned off.
 Nuclear repulsion after empirical dispersion term =     3350.7483813249 Hartrees.
 One-electron integrals computed using PRISM.
 NBasis=   527 RedAO= T EigKep=  4.30D-04  NBF=   527
 NBsUse=   527 1.00D-06 EigRej= -1.00D+00 NBFU=   527
 Initial guess from the checkpoint file:  "conf-883.chk"
 B after Tr=     0.000000    0.000000    0.000000
         Rot=    1.000000    0.000000    0.000000    0.000000 Ang=   0.00 deg.
 Requested convergence on RMS density matrix=1.00D-08 within 128 cycles.
 Requested convergence on MAX density matrix=1.00D-06.
 Requested convergence on             energy=1.00D-06.
 No special actions if energy rises.
 SCF Done:  E(RB3LYP) =  -1526.33407664     A.U. after    1 cycles
            NFock=  1  Conv=0.73D-08     -V/T= 2.0093

 **********************************************************************

            Population analysis using the SCF Density.

 **********************************************************************

 Alpha  occ. eigenvalues --  -19.30410 -19.29876 -19.25621 -19.25055 -19.24374
 Alpha  occ. eigenvalues --  -19.24018 -19.23548 -14.53042 -14.48161 -14.48099
 Alpha  occ. eigenvalues --  -14.45545 -10.43047 -10.42575 -10.41251 -10.40398
 Alpha  occ. eigenvalues --  -10.35520 -10.35172 -10.35126 -10.34527 -10.33174
 Alpha  occ. eigenvalues --  -10.30851 -10.30658 -10.29793 -10.29522 -10.29466
 Alpha  occ. eigenvalues --  -10.29252 -10.27795 -10.27702 -10.27397 -10.27242
 Alpha  occ. eigenvalues --  -10.26742  -1.21524  -1.20847  -1.16362  -1.15075
 Alpha  occ. eigenvalues --   -1.13769  -1.12727  -1.11765  -1.08280  -1.04545
 Alpha  occ. eigenvalues --   -1.04474  -1.01817  -0.93973  -0.91845  -0.90317
 Alpha  occ. eigenvalues --   -0.89405  -0.87462  -0.84009  -0.83119  -0.82566
 Alpha  occ. eigenvalues --   -0.81234  -0.76562  -0.75582  -0.74934  -0.73062
 Alpha  occ. eigenvalues --   -0.70825  -0.70321  -0.69989  -0.69694  -0.69326
 Alpha  occ. eigenvalues --   -0.67680  -0.67232  -0.66633  -0.65286  -0.63705
 Alpha  occ. eigenvalues --   -0.62599  -0.61048  -0.60498  -0.60208  -0.59515
 Alpha  occ. eigenvalues --   -0.58908  -0.58208  -0.57907  -0.57479  -0.57255
 Alpha  occ. eigenvalues --   -0.56776  -0.56405  -0.55813  -0.55062  -0.54688
 Alpha  occ. eigenvalues --   -0.54477  -0.53975  -0.53268  -0.52965  -0.52444
 Alpha  occ. eigenvalues --   -0.51831  -0.51245  -0.50875  -0.50518  -0.50362
 Alpha  occ. eigenvalues --   -0.50010  -0.49577  -0.48630  -0.48519  -0.47856
 Alpha  occ. eigenvalues --   -0.47397  -0.47155  -0.46533  -0.46200  -0.45640
 Alpha  occ. eigenvalues --   -0.44877  -0.44538  -0.44174  -0.44026  -0.42425
 Alpha  occ. eigenvalues --   -0.41965  -0.41876  -0.41072  -0.39834  -0.38999
 Alpha  occ. eigenvalues --   -0.38107  -0.37743  -0.37539  -0.37329  -0.36847
 Alpha  occ. eigenvalues --   -0.33554  -0.30011
 Alpha virt. eigenvalues --   -0.10971  -0.10249  -0.09724  -0.09548  -0.08515
 Alpha virt. eigenvalues --   -0.07313  -0.05943  -0.04145  -0.03224  -0.02174
 Alpha virt. eigenvalues --   -0.01361  -0.00643  -0.00342   0.00230   0.00358
 Alpha virt. eigenvalues --    0.01441   0.01574   0.01870   0.02291   0.02816
 Alpha virt. eigenvalues --    0.03514   0.04151   0.04414   0.04803   0.04937
 Alpha virt. eigenvalues --    0.05594   0.06103   0.06503   0.06525   0.07279
 Alpha virt. eigenvalues --    0.07435   0.08072   0.08427   0.08689   0.09285
 Alpha virt. eigenvalues --    0.09535   0.09938   0.10172   0.10746   0.11066
 Alpha virt. eigenvalues --    0.11673   0.12115   0.12999   0.13131   0.13581
 Alpha virt. eigenvalues --    0.14008   0.14871   0.15473   0.15785   0.16686
 Alpha virt. eigenvalues --    0.17185   0.17357   0.18519   0.18705   0.19344
 Alpha virt. eigenvalues --    0.21604   0.22536   0.23040   0.24688   0.25859
 Alpha virt. eigenvalues --    0.26275   0.27332   0.28054   0.28555   0.28959
 Alpha virt. eigenvalues --    0.30162   0.32800   0.36739   0.37784   0.38037
 Alpha virt. eigenvalues --    0.39559   0.40299   0.41063   0.41430   0.42054
 Alpha virt. eigenvalues --    0.42575   0.43007   0.43820   0.44056   0.44720
 Alpha virt. eigenvalues --    0.45024   0.45471   0.45967   0.46690   0.47062
 Alpha virt. eigenvalues --    0.47293   0.47930   0.48699   0.49140   0.49920
 Alpha virt. eigenvalues --    0.50492   0.50784   0.51266   0.51701   0.52310
 Alpha virt. eigenvalues --    0.52830   0.53221   0.53663   0.53768   0.54536
 Alpha virt. eigenvalues --    0.55090   0.55668   0.56078   0.56510   0.57012
 Alpha virt. eigenvalues --    0.57208   0.57929   0.58911   0.59154   0.60125
 Alpha virt. eigenvalues --    0.60868   0.61719   0.62931   0.63365   0.64002
 Alpha virt. eigenvalues --    0.65022   0.65595   0.66505   0.66725   0.67394
 Alpha virt. eigenvalues --    0.67740   0.68397   0.68858   0.70082   0.70762
 Alpha virt. eigenvalues --    0.70955   0.71149   0.71763   0.72018   0.72211
 Alpha virt. eigenvalues --    0.72995   0.73251   0.73668   0.74520   0.74706
 Alpha virt. eigenvalues --    0.75262   0.76211   0.76342   0.76828   0.77034
 Alpha virt. eigenvalues --    0.77470   0.77846   0.79146   0.79249   0.79634
 Alpha virt. eigenvalues --    0.79911   0.80290   0.80887   0.81335   0.81446
 Alpha virt. eigenvalues --    0.81844   0.82273   0.82946   0.83166   0.83438
 Alpha virt. eigenvalues --    0.84314   0.84557   0.85200   0.86528   0.87035
 Alpha virt. eigenvalues --    0.87398   0.88072   0.88509   0.88922   0.89287
 Alpha virt. eigenvalues --    0.89756   0.90183   0.91283   0.91723   0.92462
 Alpha virt. eigenvalues --    0.93195   0.94194   0.94437   0.95124   0.96923
 Alpha virt. eigenvalues --    0.97662   0.98135   0.98484   0.99404   0.99984
 Alpha virt. eigenvalues --    1.00903   1.01725   1.02552   1.04823   1.05400
 Alpha virt. eigenvalues --    1.06214   1.06468   1.08312   1.08920   1.09869
 Alpha virt. eigenvalues --    1.11032   1.12260   1.12891   1.13424   1.15198
 Alpha virt. eigenvalues --    1.15963   1.16752   1.17172   1.17830   1.18982
 Alpha virt. eigenvalues --    1.21512   1.22509   1.23614   1.25174   1.26118
 Alpha virt. eigenvalues --    1.27251   1.28048   1.28792   1.28909   1.30553
 Alpha virt. eigenvalues --    1.31007   1.31489   1.32113   1.33722   1.34822
 Alpha virt. eigenvalues --    1.35531   1.36085   1.36335   1.38352   1.38849
 Alpha virt. eigenvalues --    1.39337   1.42364   1.42491   1.43479   1.44347
 Alpha virt. eigenvalues --    1.45586   1.46736   1.48426   1.50128   1.51881
 Alpha virt. eigenvalues --    1.52421   1.53310   1.54881   1.55715   1.56060
 Alpha virt. eigenvalues --    1.58225   1.59548   1.60167   1.60986   1.61410
 Alpha virt. eigenvalues --    1.62006   1.63001   1.64582   1.65711   1.65897
 Alpha virt. eigenvalues --    1.66270   1.66475   1.66678   1.68162   1.68602
 Alpha virt. eigenvalues --    1.68872   1.69473   1.70124   1.70343   1.71080
 Alpha virt. eigenvalues --    1.72290   1.72805   1.73562   1.73787   1.74714
 Alpha virt. eigenvalues --    1.75684   1.76335   1.76899   1.77312   1.78449
 Alpha virt. eigenvalues --    1.78961   1.79143   1.79715   1.80407   1.81327
 Alpha virt. eigenvalues --    1.81395   1.82518   1.84243   1.84638   1.85515
 Alpha virt. eigenvalues --    1.86172   1.86543   1.86844   1.87664   1.89473
 Alpha virt. eigenvalues --    1.90023   1.90661   1.91998   1.92421   1.93205
 Alpha virt. eigenvalues --    1.93816   1.94755   1.95456   1.95951   1.96985
 Alpha virt. eigenvalues --    1.98133   1.98309   1.99327   1.99754   2.00111
 Alpha virt. eigenvalues --    2.00676   2.03348   2.05099   2.05537   2.06971
 Alpha virt. eigenvalues --    2.07054   2.07978   2.08794   2.09880   2.10375
 Alpha virt. eigenvalues --    2.12568   2.14643   2.15280   2.17257   2.18719
 Alpha virt. eigenvalues --    2.19487   2.20007   2.20829   2.22486   2.22744
 Alpha virt. eigenvalues --    2.23298   2.23699   2.25604   2.26683   2.27239
 Alpha virt. eigenvalues --    2.28070   2.28577   2.30387   2.30838   2.31674
 Alpha virt. eigenvalues --    2.32513   2.32823   2.33465   2.33840   2.35385
 Alpha virt. eigenvalues --    2.36418   2.37252   2.37992   2.41059   2.41544
 Alpha virt. eigenvalues --    2.42282   2.42767   2.43829   2.47186   2.49649
 Alpha virt. eigenvalues --    2.50004   2.51143   2.51739   2.52536   2.53246
 Alpha virt. eigenvalues --    2.53777   2.54906   2.55705   2.57691   2.58037
 Alpha virt. eigenvalues --    2.59252   2.59971   2.60907   2.62474   2.64312
 Alpha virt. eigenvalues --    2.66577   2.67287   2.67729   2.68635   2.70294
 Alpha virt. eigenvalues --    2.71360   2.71797   2.74210   2.75570   2.79696
 Alpha virt. eigenvalues --    2.81297   2.82689   2.85041   2.87753   2.88193
 Alpha virt. eigenvalues --    2.89319   2.93140   2.95928   2.97962   3.00357
 Alpha virt. eigenvalues --    3.03903   3.05720   3.09579   3.33570   3.76685
 Alpha virt. eigenvalues --    3.76880   3.81466   3.85337   3.86583   3.88084
 Alpha virt. eigenvalues --    3.96882   4.01341   4.02736   4.03732   4.05601
 Alpha virt. eigenvalues --    4.07259   4.07598   4.12216   4.14885   4.16143
 Alpha virt. eigenvalues --    4.19813   4.22883   4.24719   4.26471   4.27144
 Alpha virt. eigenvalues --    4.30585   4.35220   4.38787   4.41777   4.43191
 Alpha virt. eigenvalues --    4.47503   4.54732   4.59759   4.60506   4.68627
          Condensed to atoms (all electrons):
 Mulliken charges:
               1
     1  N   -0.787529
     2  H    0.363955
     3  H    0.334899
     4  C   -0.071388
     5  H    0.173260
     6  C    0.640356
     7  C   -0.295855
     8  H    0.175842
     9  H    0.179690
    10  O   -0.564596
    11  C   -0.353318
    12  H    0.177324
    13  H    0.201293
    14  C    0.585747
    15  O   -0.473157
    16  O   -0.540082
    17  N   -0.577682
    18  H    0.348697
    19  C   -0.060614
    20  H    0.191412
    21  C    0.654697
    22  C   -0.397356
    23  H    0.164458
    24  H    0.188802
    25  O   -0.582255
    26  C    0.173481
    27  C   -0.200679
    28  H    0.144264
    29  C   -0.196786
    30  H    0.133280
    31  C   -0.167342
    32  H    0.149745
    33  C   -0.191050
    34  H    0.138637
    35  O   -0.631980
    36  H    0.417136
    37  C    0.354415
    38  N   -0.606992
    39  H    0.373676
    40  C   -0.041322
    41  H    0.204337
    42  C    0.588372
    43  C   -0.276902
    44  H    0.160990
    45  H    0.186113
    46  O   -0.456985
    47  C   -0.276845
    48  H    0.145213
    49  H    0.158830
    50  C   -0.313267
    51  H    0.198938
    52  H    0.171714
    53  C   -0.156602
    54  H    0.198479
    55  H    0.184072
    56  N   -0.826837
    57  H    0.381840
    58  H    0.440223
    59  H    0.457297
    60  O   -0.553916
    61  H    0.425211
    62  H    0.434640
 Sum of Mulliken charges =   1.00000
 Mulliken charges with hydrogens summed into heavy atoms:
               1
     1  N   -0.088675
     4  C    0.101872
     6  C    0.640356
     7  C    0.059677
    10  O   -0.564596
    11  C    0.025300
    14  C    0.585747
    15  O   -0.473157
    16  O   -0.114871
    17  N   -0.228985
    19  C    0.130798
    21  C    0.654697
    22  C   -0.044097
    25  O   -0.582255
    26  C    0.173481
    27  C   -0.056415
    29  C   -0.063506
    31  C   -0.017597
    33  C   -0.052413
    35  O   -0.214844
    37  C    0.354415
    38  N   -0.233316
    40  C    0.163015
    42  C    0.588372
    43  C    0.070201
    46  O   -0.456985
    47  C    0.027198
    50  C    0.057386
    53  C    0.225950
    56  N    0.452522
    60  O   -0.119276
 Electronic spatial extent (au):  <R**2>=          15988.2222
 Charge=              1.0000 electrons
 Dipole moment (field-independent basis, Debye):
    X=              7.4665    Y=              0.0220    Z=              1.6493  Tot=              7.6465
 Quadrupole moment (field-independent basis, Debye-Ang):
   XX=           -115.1246   YY=           -131.0438   ZZ=           -150.0617
   XY=              0.5761   XZ=            -23.8440   YZ=            -24.7307
 Traceless Quadrupole moment (field-independent basis, Debye-Ang):
   XX=             16.9521   YY=              1.0329   ZZ=            -17.9850
   XY=              0.5761   XZ=            -23.8440   YZ=            -24.7307
 Octapole moment (field-independent basis, Debye-Ang**2):
  XXX=           -164.0945  YYY=             60.7543  ZZZ=            152.9829  XYY=             22.1390
  XXY=             39.6037  XXZ=              5.8203  XZZ=            -39.7189  YZZ=            -13.9885
  YYZ=            -15.1421  XYZ=            -51.8963
 Hexadecapole moment (field-independent basis, Debye-Ang**3):
 XXXX=          -6384.4276 YYYY=          -5552.2691 ZZZZ=          -3577.3237 XXXY=          -1325.1175
 XXXZ=            543.7723 YYYX=           -638.3004 YYYZ=           1470.4682 ZZZX=            646.3526
 ZZZY=           1666.5728 XXYY=          -2410.1561 XXZZ=          -2028.2422 YYZZ=          -1381.4865
 XXYZ=            650.3865 YYXZ=            -32.6313 ZZXY=           -110.7952
 N-N= 3.350748381325D+03 E-N=-1.023613268555D+04  KE= 1.512273484743D+03
 Unable to Open any file for archive entry.
 1\1\GINC-AMR-134\SP\RB3LYP\6-31G(d)\C20H31N4O7(1+)\KENGMITH\01-Jun-202
 2\0\\# B3LYP/6-31G* empiricaldispersion=gd3 guess=read geom=check nosy
 mm integral(ultrafinegrid)\\Candidate Structure: Conf:883 Charge calc 
 in gas phase\\1,1\N,0,2.0513926654,-2.6354876778,1.3090492427\H,0,2.26
 73521223,-3.184979408,2.1428583004\H,0,1.9321596981,-3.2763274519,0.52
 42942364\C,0,0.7771997581,-1.9313822963,1.5588593894\H,0,0.8797136954,
 -1.4565606049,2.5392858028\C,0,0.6323308065,-0.8637805636,0.471741291\
 C,0,-0.481702125,-2.8307005714,1.5538503387\H,0,-0.6884345863,-3.14036
 87582,0.5226747943\H,0,-1.3428903462,-2.2315805571,1.8709106449\O,0,1.
 0348248731,-1.0812774222,-0.6750577065\C,0,-0.3746666828,-4.1057947161
 ,2.4199670898\H,0,0.3461545352,-4.7968923412,1.9697514941\H,0,-1.34450
 41344,-4.6070852296,2.4503149229\C,0,0.1173263311,-3.8252238524,3.8236
 912857\O,0,1.2467447525,-3.4469176823,4.0849858231\O,0,-0.8252577841,-
 4.0152853748,4.7592239803\N,0,0.0582054888,0.3016693274,0.8344685352\H
 ,0,-0.1907543985,0.4487681947,1.8013927047\C,0,-0.04736963,1.426606774
 5,-0.0849754523\H,0,-0.4883557913,2.244601431,0.4963223067\C,0,1.38101
 11307,1.8939882613,-0.4587128281\C,0,-0.9846275437,1.1375516754,-1.292
 4183332\H,0,-1.217028204,2.0929056329,-1.7798306542\H,0,-0.448470846,0
 .5144756223,-2.0113869777\O,0,2.3410840794,1.6703308748,0.2942602178\C
 ,0,-2.2635879724,0.4592935339,-0.8612813907\C,0,-2.399226647,-0.932728
 3146,-0.9603736917\H,0,-1.5927281649,-1.5131102072,-1.401223026\C,0,-3
 .3167915573,1.1876705605,-0.298428065\H,0,-3.2455248839,2.2709212401,-
 0.2213359247\C,0,-3.5424379523,-1.5820730958,-0.5062437425\H,0,-3.6562
 205576,-2.6579041911,-0.5942670454\C,0,-4.4697580461,0.5527783729,0.16
 20379882\H,0,-5.2816171885,1.1373486894,0.589577821\O,0,-5.6765903445,
 -1.5306612192,0.492836865\H,0,-6.3505638716,-0.9134626191,0.8183729043
 \C,0,-4.585312873,-0.8391393097,0.0617592143\N,0,1.5155567363,2.578215
 7128,-1.6068128537\H,0,0.6998400844,2.820561271,-2.159807876\C,0,2.729
 4462921,3.3085061772,-1.9671216453\H,0,3.2154931783,3.6400715274,-1.04
 31604114\C,0,2.2645758321,4.5400363511,-2.7444357246\C,0,3.7638163829,
 2.5169209371,-2.8076835101\H,0,3.2871395664,2.1805622517,-3.7374882104
 \H,0,4.5393999219,3.2350867568,-3.0913648778\O,0,1.1355084028,4.693901
 5129,-3.1587450083\C,0,4.4141676544,1.325276526,-2.0768525896\H,0,4.54
 43569695,1.5956652985,-1.022458684\H,0,5.4204176573,1.1670811265,-2.48
 39070563\C,0,3.6135566061,0.0198002329,-2.2129883019\H,0,2.5439168565,
 0.1922618609,-2.0825927434\H,0,3.7346821499,-0.3738725216,-3.229880579
 5\C,0,4.0289393133,-1.0902355497,-1.2506136247\H,0,3.427527206,-1.9816
 93319,-1.4311174402\H,0,5.0864045736,-1.3491422381,-1.3507044002\N,0,3
 .7904358101,-0.7082415645,0.1996720582\H,0,4.6643795221,-0.5331877507,
 0.6986605605\H,0,3.2405048524,-1.4766260313,0.7075243523\H,0,3.2169390
 286,0.1613183162,0.2664890967\O,0,3.2667237257,5.4110052746,-2.9308868
 578\H,0,-0.4232018345,-3.8203863031,5.6285554471\H,0,2.9184236464,6.15
 90464675,-3.4539023254\\Version=ES64L-G16RevC.01\HF=-1526.3340766\RMSD
 =7.263e-09\Dipole=2.058384,-0.0324748,0.8483358\Quadrupole=12.603456,0
 .7679408,-13.3713968,0.428351,-17.7274475,-18.386668\PG=C01 [X(C20H31N
 4O7)]\\@
 The archive entry for this job was punched.


 I think that all right-thinking people in this
 country are sick and tired of being told that
 ordinary, decent people are fed up in this country
 with being sick and tired.  I'm certainly not!
 But I'm sick and tired of being told that I am!
                               -- Monty Python
 Job cpu time:       0 days  0 hours  1 minutes  7.0 seconds.
 Elapsed time:       0 days  0 hours  0 minutes 17.4 seconds.
 File lengths (MBytes):  RWF=    264 Int=      0 D2E=      0 Chk=     40 Scr=     16
 Normal termination of Gaussian 16 at Wed Jun  1 23:25:10 2022.
