 Entering Gaussian System, Link 0=/opt/software/Gaussian/g16-AVX2-C.01/g16/g16
 Input=charge-conf-535.com
 Output=charge-conf-535.log
 Initial command:
 /opt/software/Gaussian/g16-AVX2-C.01/g16/l1.exe "/mnt/gs18/scratch/users/kengmith/Gau-108073.inp" -scrdir="/mnt/gs18/scratch/users/kengmith/"
 Entering Link 1 = /opt/software/Gaussian/g16-AVX2-C.01/g16/l1.exe PID=    108089.
  
 Copyright (c) 1988-2019, Gaussian, Inc.  All Rights Reserved.
  
 This is part of the Gaussian(R) 16 program.  It is based on
 the Gaussian(R) 09 system (copyright 2009, Gaussian, Inc.),
 the Gaussian(R) 03 system (copyright 2003, Gaussian, Inc.),
 the Gaussian(R) 98 system (copyright 1998, Gaussian, Inc.),
 the Gaussian(R) 94 system (copyright 1995, Gaussian, Inc.),
 the Gaussian 92(TM) system (copyright 1992, Gaussian, Inc.),
 the Gaussian 90(TM) system (copyright 1990, Gaussian, Inc.),
 the Gaussian 88(TM) system (copyright 1988, Gaussian, Inc.),
 the Gaussian 86(TM) system (copyright 1986, Carnegie Mellon
 University), and the Gaussian 82(TM) system (copyright 1983,
 Carnegie Mellon University). Gaussian is a federally registered
 trademark of Gaussian, Inc.
  
 This software contains proprietary and confidential information,
 including trade secrets, belonging to Gaussian, Inc.
  
 This software is provided under written license and may be
 used, copied, transmitted, or stored only in accord with that
 written license.
  
 The following legend is applicable only to US Government
 contracts under FAR:
  
                    RESTRICTED RIGHTS LEGEND
  
 Use, reproduction and disclosure by the US Government is
 subject to restrictions as set forth in subparagraphs (a)
 and (c) of the Commercial Computer Software - Restricted
 Rights clause in FAR 52.227-19.
  
 Gaussian, Inc.
 340 Quinnipiac St., Bldg. 40, Wallingford CT 06492
  
  
 ---------------------------------------------------------------
 Warning -- This program may not be used in any manner that
 competes with the business of Gaussian, Inc. or will provide
 assistance to any competitor of Gaussian, Inc.  The licensee
 of this program is prohibited from giving any competitor of
 Gaussian, Inc. access to this program.  By using this program,
 the user acknowledges that Gaussian, Inc. is engaged in the
 business of creating and licensing software in the field of
 computational chemistry and represents and warrants to the
 licensee that it is not a competitor of Gaussian, Inc. and that
 it will not use this program in any manner prohibited above.
 ---------------------------------------------------------------
  

 Cite this work as:
 Gaussian 16, Revision C.01,
 M. J. Frisch, G. W. Trucks, H. B. Schlegel, G. E. Scuseria, 
 M. A. Robb, J. R. Cheeseman, G. Scalmani, V. Barone, 
 G. A. Petersson, H. Nakatsuji, X. Li, M. Caricato, A. V. Marenich, 
 J. Bloino, B. G. Janesko, R. Gomperts, B. Mennucci, H. P. Hratchian, 
 J. V. Ortiz, A. F. Izmaylov, J. L. Sonnenberg, D. Williams-Young, 
 F. Ding, F. Lipparini, F. Egidi, J. Goings, B. Peng, A. Petrone, 
 T. Henderson, D. Ranasinghe, V. G. Zakrzewski, J. Gao, N. Rega, 
 G. Zheng, W. Liang, M. Hada, M. Ehara, K. Toyota, R. Fukuda, 
 J. Hasegawa, M. Ishida, T. Nakajima, Y. Honda, O. Kitao, H. Nakai, 
 T. Vreven, K. Throssell, J. A. Montgomery, Jr., J. E. Peralta, 
 F. Ogliaro, M. J. Bearpark, J. J. Heyd, E. N. Brothers, K. N. Kudin, 
 V. N. Staroverov, T. A. Keith, R. Kobayashi, J. Normand, 
 K. Raghavachari, A. P. Rendell, J. C. Burant, S. S. Iyengar, 
 J. Tomasi, M. Cossi, J. M. Millam, M. Klene, C. Adamo, R. Cammi, 
 J. W. Ochterski, R. L. Martin, K. Morokuma, O. Farkas, 
 J. B. Foresman, and D. J. Fox, Gaussian, Inc., Wallingford CT, 2019.
 
 ******************************************
 Gaussian 16:  ES64L-G16RevC.01  3-Jul-2019
                 1-Jun-2022 
 ******************************************
 %mem=8gb
 %nproc=4
 Will use up to    4 processors via shared memory.
 %chk=conf-535.chk
 ----------------------------------------------------------------------
 # B3LYP/6-31G* empiricaldispersion=gd3 guess=read geom=check nosymm in
 tegral(ultrafinegrid)
 ----------------------------------------------------------------------
 1/29=2,38=1,172=1/1;
 2/12=2,15=1,40=1/2;
 3/5=1,6=6,7=1,11=2,14=-4,25=1,30=1,74=-5,75=-5,116=-2,124=31/1,2,3;
 4/5=1/1;
 5/5=2,38=6/2;
 6/7=2,8=2,9=2,10=2,28=1/1;
 99/5=1,9=1/99;
 ------------------------------------------------------
 Candidate Structure: Conf:535 Charge calc in gas phase
 ------------------------------------------------------
 Structure from the checkpoint file:  "conf-535.chk"
 Charge =  1 Multiplicity = 1
 Redundant internal coordinates found in file.  (old form).
 N,0,-0.2637177352,-1.3530087171,4.0211866332
 H,0,-0.7749022687,-1.8375663685,4.7555533765
 H,0,0.6057340732,-1.8546527802,3.8531583778
 C,0,-1.0473916702,-1.3075363125,2.7913138968
 H,0,-1.8230656021,-0.5391003876,2.915530637
 C,0,-0.0907687961,-0.8689590819,1.6819769951
 C,0,-1.7787836601,-2.6246402243,2.4028971235
 H,0,-2.3883012505,-2.4614623507,1.5064141356
 H,0,-2.470589448,-2.8499749391,3.2233430188
 O,0,1.0445860309,-1.3267103219,1.5873802169
 C,0,-0.864410837,-3.8315872815,2.1763482811
 H,0,-1.4292990605,-4.7643823186,2.3027650207
 H,0,-0.0532446099,-3.8731541957,2.9099787578
 C,0,-0.2664547579,-3.8846573461,0.7874294863
 O,0,-0.6598540204,-3.256635977,-0.1761856419
 O,0,0.747571579,-4.7692423436,0.7207152207
 N,0,-0.5539976274,0.0857162385,0.8171571603
 H,0,-1.5297513101,0.3467875256,0.8653728677
 C,0,0.1878558154,0.4587990065,-0.3836093204
 H,0,-0.1816509436,1.4539535912,-0.660773688
 C,0,1.6851362906,0.6452155367,-0.0555767884
 C,0,-0.0165446967,-0.5087807113,-1.5643513394
 H,0,0.4020916644,-1.4785687804,-1.2938058602
 H,0,-1.0970538846,-0.6641857523,-1.6732207971
 O,0,2.5597845185,0.121000169,-0.7582165788
 C,0,0.5608732257,-0.0252138017,-2.8817128614
 C,0,1.3466158739,-0.8791097287,-3.6697551654
 H,0,1.5642648408,-1.8797333357,-3.3072851246
 C,0,0.3028278796,1.2578428853,-3.3866189389
 H,0,-0.3186155627,1.9499311113,-2.8238542046
 C,0,1.8468897226,-0.4839198688,-4.9129248721
 H,0,2.4164071853,-1.1677947352,-5.5353133192
 C,0,0.8064183555,1.6817782415,-4.6193405985
 H,0,0.5742389629,2.6783143698,-4.9896760025
 O,0,2.0956405706,1.1393240076,-6.614326263
 H,0,1.701543717,1.9677922058,-6.9309276314
 C,0,1.5702600849,0.8037762609,-5.4011206362
 N,0,1.9245532291,1.5429267818,0.9318045276
 H,0,1.1446782341,1.7897586421,1.5371351327
 C,0,3.2329509108,1.845018129,1.5088399465
 H,0,3.841592912,0.9331324844,1.4973811062
 C,0,2.9968966483,2.2527479717,2.9583492338
 C,0,4.0119322964,2.9661048386,0.7435928772
 H,0,3.5201048406,3.9353807356,0.8888997868
 H,0,5.0196908397,3.0312063664,1.1658655045
 O,0,1.9058412488,2.4711928382,3.4357270446
 C,0,4.0059577573,2.5417223077,-0.7199482266
 H,0,2.952590657,2.5568719346,-1.0205606525
 H,0,4.3064463554,1.4936392478,-0.7029674664
 C,0,4.7800705716,3.2027432375,-1.8574747893
 H,0,4.6556263543,4.2911994015,-1.8902964592
 H,0,5.8562324698,3.0027861701,-1.7911712372
 C,0,4.1949823416,2.6379610591,-3.1684549602
 H,0,3.2081455799,3.0625304697,-3.3690922424
 H,0,4.8342347779,2.8098839394,-4.0373278998
 N,0,3.9490368735,1.1349734824,-3.0981571819
 H,0,3.449399688,0.7959993585,-3.9377261939
 H,0,3.3525591973,0.841891116,-2.2869748714
 H,0,4.8257381569,0.6104693821,-3.0197255264
 O,0,4.1581707689,2.3734128823,3.6212760413
 H,0,1.0566087191,-4.7785334905,-0.2043657257
 H,0,3.9497281125,2.6533397947,4.5336650179
 Recover connectivity data from disk.
                           ----------------------------
                           !    Current Parameters    !
                           ! (Angstroms and Degrees)  !
 --------------------------                            --------------------------
 ! Name  Definition              Value                                          !
 --------------------------------------------------------------------------------
 ! R1    R(1,2)                  1.0175                                         !
 ! R2    R(1,3)                  1.0178                                         !
 ! R3    R(1,4)                  1.459                                          !
 ! R4    R(4,5)                  1.0989                                         !
 ! R5    R(4,6)                  1.5291                                         !
 ! R6    R(4,7)                  1.5558                                         !
 ! R7    R(6,10)                 1.2278                                         !
 ! R8    R(6,17)                 1.3689                                         !
 ! R9    R(7,8)                  1.0963                                         !
 ! R10   R(7,9)                  1.0966                                         !
 ! R11   R(7,11)                 1.5311                                         !
 ! R12   R(11,12)                1.0978                                         !
 ! R13   R(11,13)                1.0945                                         !
 ! R14   R(11,14)                1.5131                                         !
 ! R15   R(14,15)                1.2156                                         !
 ! R16   R(14,16)                1.3473                                         !
 ! R17   R(16,61)                0.9754                                         !
 ! R18   R(17,18)                1.0112                                         !
 ! R19   R(17,19)                1.4599                                         !
 ! R20   R(19,20)                1.0971                                         !
 ! R21   R(19,21)                1.5441                                         !
 ! R22   R(19,22)                1.5402                                         !
 ! R23   R(21,25)                1.2384                                         !
 ! R24   R(21,38)                1.3558                                         !
 ! R25   R(22,23)                1.0904                                         !
 ! R26   R(22,24)                1.097                                          !
 ! R27   R(22,26)                1.5175                                         !
 ! R28   R(26,27)                1.4027                                         !
 ! R29   R(26,29)                1.4028                                         !
 ! R30   R(27,28)                1.0863                                         !
 ! R31   R(27,31)                1.3971                                         !
 ! R32   R(29,30)                1.0871                                         !
 ! R33   R(29,33)                1.3975                                         !
 ! R34   R(31,32)                1.086                                          !
 ! R35   R(31,37)                1.4046                                         !
 ! R36   R(33,34)                1.0882                                         !
 ! R37   R(33,37)                1.402                                          !
 ! R38   R(35,36)                0.9705                                         !
 ! R39   R(35,37)                1.364                                          !
 ! R40   R(38,39)                1.0176                                         !
 ! R41   R(38,40)                1.4616                                         !
 ! R42   R(40,41)                1.0964                                         !
 ! R43   R(40,42)                1.5242                                         !
 ! R44   R(40,43)                1.565                                          !
 ! R45   R(42,46)                1.2108                                         !
 ! R46   R(42,60)                1.3426                                         !
 ! R47   R(43,44)                1.0966                                         !
 ! R48   R(43,45)                1.0946                                         !
 ! R49   R(43,47)                1.5238                                         !
 ! R50   R(47,48)                1.0955                                         !
 ! R51   R(47,49)                1.0904                                         !
 ! R52   R(47,50)                1.5265                                         !
 ! R53   R(50,51)                1.096                                          !
 ! R54   R(50,52)                1.0966                                         !
 ! R55   R(50,53)                1.5427                                         !
 ! R56   R(53,54)                1.0929                                         !
 ! R57   R(53,55)                1.0923                                         !
 ! R58   R(53,56)                1.5246                                         !
 ! R59   R(56,57)                1.0341                                         !
 ! R60   R(56,58)                1.0487                                         !
 ! R61   R(56,59)                1.0246                                         !
 ! R62   R(60,62)                0.9769                                         !
 ! A1    A(2,1,3)              108.2764                                         !
 ! A2    A(2,1,4)              110.6928                                         !
 ! A3    A(3,1,4)              109.5753                                         !
 ! A4    A(1,4,5)              107.7967                                         !
 ! A5    A(1,4,6)              106.5259                                         !
 ! A6    A(1,4,7)              115.8844                                         !
 ! A7    A(5,4,6)              108.8467                                         !
 ! A8    A(5,4,7)              106.7608                                         !
 ! A9    A(6,4,7)              110.8423                                         !
 ! A10   A(4,6,10)             121.8347                                         !
 ! A11   A(4,6,17)             116.5297                                         !
 ! A12   A(10,6,17)            121.6173                                         !
 ! A13   A(4,7,8)              109.8475                                         !
 ! A14   A(4,7,9)              106.4839                                         !
 ! A15   A(4,7,11)             115.0587                                         !
 ! A16   A(8,7,9)              106.9571                                         !
 ! A17   A(8,7,11)             109.1706                                         !
 ! A18   A(9,7,11)             108.9951                                         !
 ! A19   A(7,11,12)            110.2108                                         !
 ! A20   A(7,11,13)            111.9237                                         !
 ! A21   A(7,11,14)            113.5461                                         !
 ! A22   A(12,11,13)           105.7773                                         !
 ! A23   A(12,11,14)           106.2153                                         !
 ! A24   A(13,11,14)           108.7271                                         !
 ! A25   A(11,14,15)           125.5652                                         !
 ! A26   A(11,14,16)           111.4639                                         !
 ! A27   A(15,14,16)           122.9234                                         !
 ! A28   A(14,16,61)           106.9588                                         !
 ! A29   A(6,17,18)            118.4539                                         !
 ! A30   A(6,17,19)            121.7276                                         !
 ! A31   A(18,17,19)           117.6171                                         !
 ! A32   A(17,19,20)           105.5714                                         !
 ! A33   A(17,19,21)           110.4177                                         !
 ! A34   A(17,19,22)           113.7383                                         !
 ! A35   A(20,19,21)           105.7087                                         !
 ! A36   A(20,19,22)           109.3579                                         !
 ! A37   A(21,19,22)           111.5554                                         !
 ! A38   A(19,21,25)           120.8801                                         !
 ! A39   A(19,21,38)           113.9472                                         !
 ! A40   A(25,21,38)           124.6661                                         !
 ! A41   A(19,22,23)           108.5164                                         !
 ! A42   A(19,22,24)           107.2046                                         !
 ! A43   A(19,22,26)           114.5093                                         !
 ! A44   A(23,22,24)           106.0681                                         !
 ! A45   A(23,22,26)           110.6545                                         !
 ! A46   A(24,22,26)           109.4978                                         !
 ! A47   A(22,26,27)           120.4567                                         !
 ! A48   A(22,26,29)           122.2727                                         !
 ! A49   A(27,26,29)           117.2347                                         !
 ! A50   A(26,27,28)           119.0469                                         !
 ! A51   A(26,27,31)           121.8903                                         !
 ! A52   A(28,27,31)           119.0601                                         !
 ! A53   A(26,29,30)           120.0738                                         !
 ! A54   A(26,29,33)           121.9166                                         !
 ! A55   A(30,29,33)           118.0016                                         !
 ! A56   A(27,31,32)           121.3062                                         !
 ! A57   A(27,31,37)           119.8714                                         !
 ! A58   A(32,31,37)           118.7757                                         !
 ! A59   A(29,33,34)           120.0745                                         !
 ! A60   A(29,33,37)           119.8838                                         !
 ! A61   A(34,33,37)           119.9995                                         !
 ! A62   A(36,35,37)           110.1051                                         !
 ! A63   A(31,37,33)           119.1838                                         !
 ! A64   A(31,37,35)           117.3098                                         !
 ! A65   A(33,37,35)           123.4891                                         !
 ! A66   A(21,38,39)           117.2895                                         !
 ! A67   A(21,38,40)           125.6249                                         !
 ! A68   A(39,38,40)           113.6455                                         !
 ! A69   A(38,40,41)           108.7186                                         !
 ! A70   A(38,40,42)           106.985                                          !
 ! A71   A(38,40,43)           113.6158                                         !
 ! A72   A(41,40,42)           108.5665                                         !
 ! A73   A(41,40,43)           108.3224                                         !
 ! A74   A(42,40,43)           110.5169                                         !
 ! A75   A(40,42,46)           124.2486                                         !
 ! A76   A(40,42,60)           111.0796                                         !
 ! A77   A(46,42,60)           124.6469                                         !
 ! A78   A(40,43,44)           110.1905                                         !
 ! A79   A(40,43,45)           108.1938                                         !
 ! A80   A(40,43,47)           105.5556                                         !
 ! A81   A(44,43,45)           108.0133                                         !
 ! A82   A(44,43,47)           111.8186                                         !
 ! A83   A(45,43,47)           112.9974                                         !
 ! A84   A(43,47,48)           105.2755                                         !
 ! A85   A(43,47,49)           104.5746                                         !
 ! A86   A(43,47,50)           126.3786                                         !
 ! A87   A(48,47,49)           106.411                                          !
 ! A88   A(48,47,50)           106.0893                                         !
 ! A89   A(49,47,50)           106.7426                                         !
 ! A90   A(47,50,51)           113.2519                                         !
 ! A91   A(47,50,52)           111.9413                                         !
 ! A92   A(47,50,53)           106.4031                                         !
 ! A93   A(51,50,52)           107.1167                                         !
 ! A94   A(51,50,53)           107.1608                                         !
 ! A95   A(52,50,53)           110.905                                          !
 ! A96   A(50,53,54)           110.8699                                         !
 ! A97   A(50,53,55)           113.3523                                         !
 ! A98   A(50,53,56)           112.5137                                         !
 ! A99   A(54,53,55)           108.7397                                         !
 ! A100  A(54,53,56)           104.2281                                         !
 ! A101  A(55,53,56)           106.6335                                         !
 ! A102  A(53,56,57)           111.3244                                         !
 ! A103  A(53,56,58)           113.7623                                         !
 ! A104  A(53,56,59)           111.7244                                         !
 ! A105  A(57,56,58)           105.164                                          !
 ! A106  A(57,56,59)           107.9236                                         !
 ! A107  A(58,56,59)           106.5231                                         !
 ! A108  A(42,60,62)           107.5998                                         !
 ! D1    D(2,1,4,5)             76.2848                                         !
 ! D2    D(2,1,4,6)           -167.027                                          !
 ! D3    D(2,1,4,7)            -43.214                                          !
 ! D4    D(3,1,4,5)           -164.3674                                         !
 ! D5    D(3,1,4,6)            -47.6793                                         !
 ! D6    D(3,1,4,7)             76.1338                                         !
 ! D7    D(1,4,6,10)            43.2354                                         !
 ! D8    D(1,4,6,17)          -135.2323                                         !
 ! D9    D(5,4,6,10)           159.2211                                         !
 ! D10   D(5,4,6,17)           -19.2466                                         !
 ! D11   D(7,4,6,10)           -83.6496                                         !
 ! D12   D(7,4,6,17)            97.8827                                         !
 ! D13   D(1,4,7,8)            176.1863                                         !
 ! D14   D(1,4,7,9)             60.7076                                         !
 ! D15   D(1,4,7,11)           -60.1605                                         !
 ! D16   D(5,4,7,8)             56.1244                                         !
 ! D17   D(5,4,7,9)            -59.3543                                         !
 ! D18   D(5,4,7,11)           179.7777                                         !
 ! D19   D(6,4,7,8)            -62.2773                                         !
 ! D20   D(6,4,7,9)           -177.756                                          !
 ! D21   D(6,4,7,11)            61.3759                                         !
 ! D22   D(4,6,17,18)           -8.9597                                         !
 ! D23   D(4,6,17,19)         -171.6949                                         !
 ! D24   D(10,6,17,18)         172.569                                          !
 ! D25   D(10,6,17,19)           9.8338                                         !
 ! D26   D(4,7,11,12)          157.6328                                         !
 ! D27   D(4,7,11,13)           40.2137                                         !
 ! D28   D(4,7,11,14)          -83.3533                                         !
 ! D29   D(8,7,11,12)          -78.3562                                         !
 ! D30   D(8,7,11,13)          164.2247                                         !
 ! D31   D(8,7,11,14)           40.6577                                         !
 ! D32   D(9,7,11,12)           38.1464                                         !
 ! D33   D(9,7,11,13)          -79.2727                                         !
 ! D34   D(9,7,11,14)          157.1604                                         !
 ! D35   D(7,11,14,15)         -16.3428                                         !
 ! D36   D(7,11,14,16)         166.1114                                         !
 ! D37   D(12,11,14,15)        104.9355                                         !
 ! D38   D(12,11,14,16)        -72.6104                                         !
 ! D39   D(13,11,14,15)       -141.6374                                         !
 ! D40   D(13,11,14,16)         40.8168                                         !
 ! D41   D(11,14,16,61)        177.6151                                         !
 ! D42   D(15,14,16,61)         -0.0066                                         !
 ! D43   D(6,17,19,20)        -159.0124                                         !
 ! D44   D(6,17,19,21)         -45.2067                                         !
 ! D45   D(6,17,19,22)          81.09                                           !
 ! D46   D(18,17,19,20)         38.1145                                         !
 ! D47   D(18,17,19,21)        151.9203                                         !
 ! D48   D(18,17,19,22)        -81.783                                          !
 ! D49   D(17,19,21,25)        132.0148                                         !
 ! D50   D(17,19,21,38)        -55.7813                                         !
 ! D51   D(20,19,21,25)       -114.2667                                         !
 ! D52   D(20,19,21,38)         57.9372                                         !
 ! D53   D(22,19,21,25)          4.5051                                         !
 ! D54   D(22,19,21,38)        176.709                                          !
 ! D55   D(17,19,22,23)        -65.1984                                         !
 ! D56   D(17,19,22,24)         48.9604                                         !
 ! D57   D(17,19,22,26)        170.6406                                         !
 ! D58   D(20,19,22,23)        177.0703                                         !
 ! D59   D(20,19,22,24)        -68.7709                                         !
 ! D60   D(20,19,22,26)         52.9093                                         !
 ! D61   D(21,19,22,23)         60.4976                                         !
 ! D62   D(21,19,22,24)        174.6563                                         !
 ! D63   D(21,19,22,26)        -63.6635                                         !
 ! D64   D(19,21,38,39)         17.74                                           !
 ! D65   D(19,21,38,40)        175.3945                                         !
 ! D66   D(25,21,38,39)       -170.3974                                         !
 ! D67   D(25,21,38,40)        -12.7428                                         !
 ! D68   D(19,22,26,27)        132.3637                                         !
 ! D69   D(19,22,26,29)        -49.878                                          !
 ! D70   D(23,22,26,27)          9.3482                                         !
 ! D71   D(23,22,26,29)       -172.8935                                         !
 ! D72   D(24,22,26,27)       -107.2197                                         !
 ! D73   D(24,22,26,29)         70.5385                                         !
 ! D74   D(22,26,27,28)         -2.0975                                         !
 ! D75   D(22,26,27,31)        177.2962                                         !
 ! D76   D(29,26,27,28)       -179.9658                                         !
 ! D77   D(29,26,27,31)         -0.5721                                         !
 ! D78   D(22,26,29,30)          0.8638                                         !
 ! D79   D(22,26,29,33)       -178.0902                                         !
 ! D80   D(27,26,29,30)        178.6905                                         !
 ! D81   D(27,26,29,33)         -0.2635                                         !
 ! D82   D(26,27,31,32)       -177.1927                                         !
 ! D83   D(26,27,31,37)          0.2893                                         !
 ! D84   D(28,27,31,32)          2.201                                          !
 ! D85   D(28,27,31,37)        179.683                                          !
 ! D86   D(26,29,33,34)        179.0146                                         !
 ! D87   D(26,29,33,37)          1.3757                                         !
 ! D88   D(30,29,33,34)          0.0398                                         !
 ! D89   D(30,29,33,37)       -177.5991                                         !
 ! D90   D(27,31,37,33)          0.8269                                         !
 ! D91   D(27,31,37,35)        179.3652                                         !
 ! D92   D(32,31,37,33)        178.3724                                         !
 ! D93   D(32,31,37,35)         -3.0892                                         !
 ! D94   D(29,33,37,31)         -1.6365                                         !
 ! D95   D(29,33,37,35)        179.9207                                         !
 ! D96   D(34,33,37,31)       -179.2772                                         !
 ! D97   D(34,33,37,35)          2.2801                                         !
 ! D98   D(36,35,37,31)        168.6944                                         !
 ! D99   D(36,35,37,33)        -12.8357                                         !
 ! D100  D(21,38,40,41)        -32.7864                                         !
 ! D101  D(21,38,40,42)       -149.8524                                         !
 ! D102  D(21,38,40,43)         87.9046                                         !
 ! D103  D(39,38,40,41)        125.5694                                         !
 ! D104  D(39,38,40,42)          8.5034                                         !
 ! D105  D(39,38,40,43)       -113.7396                                         !
 ! D106  D(38,40,42,46)        -10.1673                                         !
 ! D107  D(38,40,42,60)        171.5774                                         !
 ! D108  D(41,40,42,46)       -127.3335                                         !
 ! D109  D(41,40,42,60)         54.4111                                         !
 ! D110  D(43,40,42,46)        113.9955                                         !
 ! D111  D(43,40,42,60)        -64.2598                                         !
 ! D112  D(38,40,43,44)         69.2436                                         !
 ! D113  D(38,40,43,45)       -172.8722                                         !
 ! D114  D(38,40,43,47)        -51.6489                                         !
 ! D115  D(41,40,43,44)       -169.8429                                         !
 ! D116  D(41,40,43,45)        -51.9587                                         !
 ! D117  D(41,40,43,47)         69.2647                                         !
 ! D118  D(42,40,43,44)        -51.0235                                         !
 ! D119  D(42,40,43,45)         66.8607                                         !
 ! D120  D(42,40,43,47)       -171.9159                                         !
 ! D121  D(40,42,60,62)        178.8035                                         !
 ! D122  D(46,42,60,62)          0.5565                                         !
 ! D123  D(40,43,47,48)         64.1526                                         !
 ! D124  D(40,43,47,49)        -47.7865                                         !
 ! D125  D(40,43,47,50)       -171.9283                                         !
 ! D126  D(44,43,47,48)        -55.6725                                         !
 ! D127  D(44,43,47,49)       -167.6116                                         !
 ! D128  D(44,43,47,50)         68.2465                                         !
 ! D129  D(45,43,47,48)       -177.798                                          !
 ! D130  D(45,43,47,49)         70.2629                                         !
 ! D131  D(45,43,47,50)        -53.8789                                         !
 ! D132  D(43,47,50,51)        -49.3879                                         !
 ! D133  D(43,47,50,52)         71.8398                                         !
 ! D134  D(43,47,50,53)       -166.8556                                         !
 ! D135  D(48,47,50,51)         74.1892                                         !
 ! D136  D(48,47,50,52)       -164.5832                                         !
 ! D137  D(48,47,50,53)        -43.2785                                         !
 ! D138  D(49,47,50,51)       -172.6179                                         !
 ! D139  D(49,47,50,52)        -51.3903                                         !
 ! D140  D(49,47,50,53)         69.9144                                         !
 ! D141  D(47,50,53,54)         73.5732                                         !
 ! D142  D(47,50,53,55)       -163.8034                                         !
 ! D143  D(47,50,53,56)        -42.7077                                         !
 ! D144  D(51,50,53,54)        -47.8666                                         !
 ! D145  D(51,50,53,55)         74.7568                                         !
 ! D146  D(51,50,53,56)       -164.1475                                         !
 ! D147  D(52,50,53,54)       -164.4622                                         !
 ! D148  D(52,50,53,55)        -41.8387                                         !
 ! D149  D(52,50,53,56)         79.257                                          !
 ! D150  D(50,53,56,57)        172.881                                          !
 ! D151  D(50,53,56,58)         54.2813                                         !
 ! D152  D(50,53,56,59)        -66.3775                                         !
 ! D153  D(54,53,56,57)         52.6862                                         !
 ! D154  D(54,53,56,58)        -65.9135                                         !
 ! D155  D(54,53,56,59)        173.4277                                         !
 ! D156  D(55,53,56,57)        -62.2533                                         !
 ! D157  D(55,53,56,58)        179.1469                                         !
 ! D158  D(55,53,56,59)         58.4882                                         !
 --------------------------------------------------------------------------------
 Symmetry turned off by external request.
 Stoichiometry    C20H31N4O7(1+)
 Framework group  C1[X(C20H31N4O7)]
 Deg. of freedom   180
 Full point group                 C1      NOp   1
                          Input orientation:                          
 ---------------------------------------------------------------------
 Center     Atomic      Atomic             Coordinates (Angstroms)
 Number     Number       Type             X           Y           Z
 ---------------------------------------------------------------------
      1          7           0       -0.263718   -1.353009    4.021187
      2          1           0       -0.774902   -1.837566    4.755553
      3          1           0        0.605734   -1.854653    3.853158
      4          6           0       -1.047392   -1.307536    2.791314
      5          1           0       -1.823066   -0.539100    2.915531
      6          6           0       -0.090769   -0.868959    1.681977
      7          6           0       -1.778784   -2.624640    2.402897
      8          1           0       -2.388301   -2.461462    1.506414
      9          1           0       -2.470589   -2.849975    3.223343
     10          8           0        1.044586   -1.326710    1.587380
     11          6           0       -0.864411   -3.831587    2.176348
     12          1           0       -1.429299   -4.764382    2.302765
     13          1           0       -0.053245   -3.873154    2.909979
     14          6           0       -0.266455   -3.884657    0.787429
     15          8           0       -0.659854   -3.256636   -0.176186
     16          8           0        0.747572   -4.769242    0.720715
     17          7           0       -0.553998    0.085716    0.817157
     18          1           0       -1.529751    0.346788    0.865373
     19          6           0        0.187856    0.458799   -0.383609
     20          1           0       -0.181651    1.453954   -0.660774
     21          6           0        1.685136    0.645216   -0.055577
     22          6           0       -0.016545   -0.508781   -1.564351
     23          1           0        0.402092   -1.478569   -1.293806
     24          1           0       -1.097054   -0.664186   -1.673221
     25          8           0        2.559785    0.121000   -0.758217
     26          6           0        0.560873   -0.025214   -2.881713
     27          6           0        1.346616   -0.879110   -3.669755
     28          1           0        1.564265   -1.879733   -3.307285
     29          6           0        0.302828    1.257843   -3.386619
     30          1           0       -0.318616    1.949931   -2.823854
     31          6           0        1.846890   -0.483920   -4.912925
     32          1           0        2.416407   -1.167795   -5.535313
     33          6           0        0.806418    1.681778   -4.619341
     34          1           0        0.574239    2.678314   -4.989676
     35          8           0        2.095641    1.139324   -6.614326
     36          1           0        1.701544    1.967792   -6.930928
     37          6           0        1.570260    0.803776   -5.401121
     38          7           0        1.924553    1.542927    0.931805
     39          1           0        1.144678    1.789759    1.537135
     40          6           0        3.232951    1.845018    1.508840
     41          1           0        3.841593    0.933132    1.497381
     42          6           0        2.996897    2.252748    2.958349
     43          6           0        4.011932    2.966105    0.743593
     44          1           0        3.520105    3.935381    0.888900
     45          1           0        5.019691    3.031206    1.165866
     46          8           0        1.905841    2.471193    3.435727
     47          6           0        4.005958    2.541722   -0.719948
     48          1           0        2.952591    2.556872   -1.020561
     49          1           0        4.306446    1.493639   -0.702967
     50          6           0        4.780071    3.202743   -1.857475
     51          1           0        4.655626    4.291199   -1.890296
     52          1           0        5.856232    3.002786   -1.791171
     53          6           0        4.194982    2.637961   -3.168455
     54          1           0        3.208146    3.062530   -3.369092
     55          1           0        4.834235    2.809884   -4.037328
     56          7           0        3.949037    1.134973   -3.098157
     57          1           0        3.449400    0.795999   -3.937726
     58          1           0        3.352559    0.841891   -2.286975
     59          1           0        4.825738    0.610469   -3.019726
     60          8           0        4.158171    2.373413    3.621276
     61          1           0        1.056609   -4.778533   -0.204366
     62          1           0        3.949728    2.653340    4.533665
 ---------------------------------------------------------------------
 Rotational constants (GHZ):           0.1661835           0.1097198           0.0746242
 Standard basis: 6-31G(d) (6D, 7F)
   527 basis functions,   992 primitive gaussians,   527 cartesian basis functions
   117 alpha electrons      117 beta electrons
       nuclear repulsion energy      3411.0468431449 Hartrees.
 NAtoms=   62 NActive=   62 NUniq=   62 SFac= 1.00D+00 NAtFMM=   60 NAOKFM=T Big=T
 Integral buffers will be    131072 words long.
 Raffenetti 2 integral format.
 Two-electron integral symmetry is turned off.
 Nuclear repulsion after empirical dispersion term =     3410.9618877879 Hartrees.
 One-electron integrals computed using PRISM.
 NBasis=   527 RedAO= T EigKep=  4.30D-04  NBF=   527
 NBsUse=   527 1.00D-06 EigRej= -1.00D+00 NBFU=   527
 Initial guess from the checkpoint file:  "conf-535.chk"
 B after Tr=     0.000000    0.000000    0.000000
         Rot=    1.000000    0.000000    0.000000    0.000000 Ang=   0.00 deg.
 Requested convergence on RMS density matrix=1.00D-08 within 128 cycles.
 Requested convergence on MAX density matrix=1.00D-06.
 Requested convergence on             energy=1.00D-06.
 No special actions if energy rises.
 SCF Done:  E(RB3LYP) =  -1526.29257014     A.U. after    1 cycles
            NFock=  1  Conv=0.96D-08     -V/T= 2.0093

 **********************************************************************

            Population analysis using the SCF Density.

 **********************************************************************

 Alpha  occ. eigenvalues --  -19.29891 -19.28819 -19.26940 -19.24473 -19.23260
 Alpha  occ. eigenvalues --  -19.21494 -19.21249 -14.57752 -14.46804 -14.46500
 Alpha  occ. eigenvalues --  -14.38972 -10.42510 -10.40587 -10.39658 -10.38406
 Alpha  occ. eigenvalues --  -10.38059 -10.36614 -10.34899 -10.34467 -10.32446
 Alpha  occ. eigenvalues --  -10.30813 -10.30679 -10.30625 -10.30484 -10.30403
 Alpha  occ. eigenvalues --  -10.30239 -10.30171 -10.30044 -10.28395 -10.27606
 Alpha  occ. eigenvalues --  -10.27162  -1.20953  -1.17965  -1.16981  -1.15036
 Alpha  occ. eigenvalues --   -1.13162  -1.12418  -1.12179  -1.08904  -1.03942
 Alpha  occ. eigenvalues --   -1.02298  -0.96755  -0.96603  -0.93470  -0.89919
 Alpha  occ. eigenvalues --   -0.88705  -0.86718  -0.86146  -0.84536  -0.83171
 Alpha  occ. eigenvalues --   -0.79275  -0.77760  -0.76335  -0.73574  -0.73332
 Alpha  occ. eigenvalues --   -0.72487  -0.71451  -0.70848  -0.69520  -0.68922
 Alpha  occ. eigenvalues --   -0.68536  -0.67948  -0.65996  -0.65560  -0.62859
 Alpha  occ. eigenvalues --   -0.62147  -0.61277  -0.61024  -0.59790  -0.59130
 Alpha  occ. eigenvalues --   -0.58358  -0.57846  -0.57606  -0.57466  -0.56904
 Alpha  occ. eigenvalues --   -0.55998  -0.55808  -0.55423  -0.55388  -0.54525
 Alpha  occ. eigenvalues --   -0.53744  -0.53403  -0.53246  -0.52645  -0.52250
 Alpha  occ. eigenvalues --   -0.51830  -0.51481  -0.50930  -0.50380  -0.50024
 Alpha  occ. eigenvalues --   -0.49488  -0.49077  -0.48922  -0.47983  -0.47627
 Alpha  occ. eigenvalues --   -0.47134  -0.46505  -0.46167  -0.45843  -0.45767
 Alpha  occ. eigenvalues --   -0.44955  -0.44730  -0.44183  -0.43423  -0.43322
 Alpha  occ. eigenvalues --   -0.42888  -0.41984  -0.39101  -0.38319  -0.37301
 Alpha  occ. eigenvalues --   -0.37077  -0.36897  -0.35950  -0.35302  -0.34583
 Alpha  occ. eigenvalues --   -0.32876  -0.31100
 Alpha virt. eigenvalues --   -0.12430  -0.10500  -0.10014  -0.09146  -0.08295
 Alpha virt. eigenvalues --   -0.07076  -0.06323  -0.03786  -0.03059  -0.02340
 Alpha virt. eigenvalues --   -0.01883  -0.01666  -0.01346  -0.00311  -0.00034
 Alpha virt. eigenvalues --    0.00784   0.00947   0.01173   0.01707   0.02538
 Alpha virt. eigenvalues --    0.03010   0.03254   0.03796   0.04183   0.04616
 Alpha virt. eigenvalues --    0.05316   0.05552   0.06367   0.06565   0.06989
 Alpha virt. eigenvalues --    0.07160   0.07600   0.07901   0.08265   0.08442
 Alpha virt. eigenvalues --    0.09118   0.10197   0.10431   0.10934   0.11140
 Alpha virt. eigenvalues --    0.11683   0.12441   0.12824   0.13266   0.13916
 Alpha virt. eigenvalues --    0.14203   0.14948   0.15106   0.15741   0.15837
 Alpha virt. eigenvalues --    0.16396   0.18020   0.18070   0.18496   0.21136
 Alpha virt. eigenvalues --    0.21776   0.22505   0.22835   0.23442   0.24210
 Alpha virt. eigenvalues --    0.24651   0.25440   0.28324   0.29270   0.30371
 Alpha virt. eigenvalues --    0.32079   0.33106   0.35073   0.36142   0.37938
 Alpha virt. eigenvalues --    0.38908   0.39618   0.40952   0.41094   0.41603
 Alpha virt. eigenvalues --    0.41919   0.42729   0.42933   0.43616   0.44476
 Alpha virt. eigenvalues --    0.44675   0.45530   0.45835   0.46484   0.47536
 Alpha virt. eigenvalues --    0.48168   0.48616   0.48936   0.49305   0.49594
 Alpha virt. eigenvalues --    0.50311   0.50710   0.51182   0.52056   0.52555
 Alpha virt. eigenvalues --    0.52963   0.53548   0.54085   0.54390   0.54963
 Alpha virt. eigenvalues --    0.55166   0.56038   0.56286   0.56713   0.57999
 Alpha virt. eigenvalues --    0.58043   0.58550   0.59221   0.59341   0.60458
 Alpha virt. eigenvalues --    0.60530   0.61655   0.62708   0.63869   0.64591
 Alpha virt. eigenvalues --    0.64693   0.65342   0.65910   0.66414   0.67134
 Alpha virt. eigenvalues --    0.67308   0.69506   0.69672   0.70440   0.70920
 Alpha virt. eigenvalues --    0.71144   0.71451   0.72111   0.72321   0.72542
 Alpha virt. eigenvalues --    0.73007   0.73542   0.73650   0.74706   0.74892
 Alpha virt. eigenvalues --    0.75164   0.76107   0.76904   0.77114   0.77529
 Alpha virt. eigenvalues --    0.78165   0.78254   0.78910   0.79335   0.79471
 Alpha virt. eigenvalues --    0.80395   0.80723   0.81253   0.81468   0.81773
 Alpha virt. eigenvalues --    0.82155   0.82555   0.82775   0.83059   0.83818
 Alpha virt. eigenvalues --    0.84501   0.85015   0.85094   0.85556   0.85986
 Alpha virt. eigenvalues --    0.86269   0.87198   0.87997   0.88831   0.88915
 Alpha virt. eigenvalues --    0.89546   0.90513   0.91042   0.91499   0.92366
 Alpha virt. eigenvalues --    0.93188   0.93570   0.94264   0.96047   0.96235
 Alpha virt. eigenvalues --    0.97158   0.97996   0.98491   0.99301   1.00321
 Alpha virt. eigenvalues --    1.01116   1.01630   1.03520   1.03897   1.04430
 Alpha virt. eigenvalues --    1.05610   1.07139   1.08052   1.08663   1.09501
 Alpha virt. eigenvalues --    1.10068   1.10483   1.12324   1.14265   1.14855
 Alpha virt. eigenvalues --    1.15596   1.16274   1.17223   1.18992   1.19986
 Alpha virt. eigenvalues --    1.20565   1.22164   1.23173   1.24616   1.25542
 Alpha virt. eigenvalues --    1.27335   1.27567   1.28739   1.29540   1.30555
 Alpha virt. eigenvalues --    1.31865   1.32015   1.32785   1.33418   1.33956
 Alpha virt. eigenvalues --    1.34735   1.36374   1.36948   1.38779   1.40016
 Alpha virt. eigenvalues --    1.40629   1.40868   1.42759   1.43533   1.44699
 Alpha virt. eigenvalues --    1.45476   1.47680   1.48259   1.49043   1.50068
 Alpha virt. eigenvalues --    1.51761   1.52218   1.53610   1.55063   1.57769
 Alpha virt. eigenvalues --    1.59655   1.60365   1.61499   1.62333   1.62674
 Alpha virt. eigenvalues --    1.63352   1.64035   1.64663   1.64769   1.65788
 Alpha virt. eigenvalues --    1.66199   1.67472   1.67953   1.68705   1.69068
 Alpha virt. eigenvalues --    1.70330   1.70891   1.71733   1.71948   1.72567
 Alpha virt. eigenvalues --    1.73339   1.74286   1.74890   1.75485   1.75754
 Alpha virt. eigenvalues --    1.76468   1.77580   1.78021   1.78400   1.79060
 Alpha virt. eigenvalues --    1.79333   1.80168   1.81565   1.81743   1.82220
 Alpha virt. eigenvalues --    1.82906   1.83266   1.83963   1.85004   1.85683
 Alpha virt. eigenvalues --    1.86434   1.86878   1.87853   1.88214   1.88701
 Alpha virt. eigenvalues --    1.89121   1.90956   1.91549   1.92080   1.92974
 Alpha virt. eigenvalues --    1.93851   1.94737   1.95513   1.95811   1.96806
 Alpha virt. eigenvalues --    1.97993   1.98929   1.99277   2.00451   2.01390
 Alpha virt. eigenvalues --    2.02356   2.02662   2.03712   2.03966   2.04783
 Alpha virt. eigenvalues --    2.05724   2.06556   2.08271   2.09933   2.12265
 Alpha virt. eigenvalues --    2.13670   2.14646   2.15634   2.16981   2.17750
 Alpha virt. eigenvalues --    2.18472   2.19576   2.19724   2.20606   2.22200
 Alpha virt. eigenvalues --    2.23264   2.24540   2.24648   2.25707   2.26841
 Alpha virt. eigenvalues --    2.27607   2.28116   2.29309   2.30072   2.30483
 Alpha virt. eigenvalues --    2.31543   2.32288   2.33991   2.34355   2.36140
 Alpha virt. eigenvalues --    2.37284   2.38308   2.39048   2.39682   2.40316
 Alpha virt. eigenvalues --    2.41652   2.43547   2.45648   2.46398   2.47093
 Alpha virt. eigenvalues --    2.47718   2.48702   2.49982   2.50545   2.52231
 Alpha virt. eigenvalues --    2.53926   2.54282   2.55005   2.56730   2.57247
 Alpha virt. eigenvalues --    2.57601   2.59906   2.63129   2.63384   2.64570
 Alpha virt. eigenvalues --    2.66009   2.67466   2.68515   2.69175   2.71397
 Alpha virt. eigenvalues --    2.72474   2.75756   2.77226   2.79178   2.81012
 Alpha virt. eigenvalues --    2.81881   2.83332   2.85492   2.88959   2.90665
 Alpha virt. eigenvalues --    2.93763   2.94284   2.98947   2.99885   3.01596
 Alpha virt. eigenvalues --    3.02428   3.07564   3.10020   3.29600   3.71512
 Alpha virt. eigenvalues --    3.76943   3.77891   3.78467   3.90651   3.90761
 Alpha virt. eigenvalues --    3.93130   4.00811   4.03416   4.05835   4.06824
 Alpha virt. eigenvalues --    4.09508   4.13054   4.14505   4.15873   4.18436
 Alpha virt. eigenvalues --    4.20797   4.24002   4.25010   4.26606   4.28602
 Alpha virt. eigenvalues --    4.29591   4.36239   4.38834   4.45434   4.47848
 Alpha virt. eigenvalues --    4.50972   4.54245   4.58513   4.65805   4.66906
          Condensed to atoms (all electrons):
 Mulliken charges:
               1
     1  N   -0.716475
     2  H    0.308070
     3  H    0.323621
     4  C   -0.067165
     5  H    0.144125
     6  C    0.662009
     7  C   -0.280645
     8  H    0.162034
     9  H    0.155978
    10  O   -0.535665
    11  C   -0.356199
    12  H    0.196206
    13  H    0.178118
    14  C    0.606138
    15  O   -0.486584
    16  O   -0.553051
    17  N   -0.627856
    18  H    0.343566
    19  C   -0.067389
    20  H    0.162039
    21  C    0.664222
    22  C   -0.342042
    23  H    0.210629
    24  H    0.171116
    25  O   -0.573397
    26  C    0.176688
    27  C   -0.185762
    28  H    0.160383
    29  C   -0.201426
    30  H    0.146661
    31  C   -0.232992
    32  H    0.171333
    33  C   -0.213328
    34  H    0.147346
    35  O   -0.634215
    36  H    0.422409
    37  C    0.334875
    38  N   -0.607583
    39  H    0.371863
    40  C   -0.038900
    41  H    0.209304
    42  C    0.589871
    43  C   -0.272531
    44  H    0.162767
    45  H    0.181223
    46  O   -0.449617
    47  C   -0.297028
    48  H    0.146590
    49  H    0.161836
    50  C   -0.276721
    51  H    0.186400
    52  H    0.172295
    53  C   -0.193232
    54  H    0.208337
    55  H    0.207558
    56  N   -0.797878
    57  H    0.414753
    58  H    0.462532
    59  H    0.399886
    60  O   -0.559387
    61  H    0.410559
    62  H    0.433730
 Sum of Mulliken charges =   1.00000
 Mulliken charges with hydrogens summed into heavy atoms:
               1
     1  N   -0.084785
     4  C    0.076961
     6  C    0.662009
     7  C    0.037367
    10  O   -0.535665
    11  C    0.018125
    14  C    0.606138
    15  O   -0.486584
    16  O   -0.142492
    17  N   -0.284290
    19  C    0.094650
    21  C    0.664222
    22  C    0.039703
    25  O   -0.573397
    26  C    0.176688
    27  C   -0.025379
    29  C   -0.054765
    31  C   -0.061660
    33  C   -0.065982
    35  O   -0.211806
    37  C    0.334875
    38  N   -0.235719
    40  C    0.170404
    42  C    0.589871
    43  C    0.071458
    46  O   -0.449617
    47  C    0.011398
    50  C    0.081974
    53  C    0.222663
    56  N    0.479292
    60  O   -0.125657
 Electronic spatial extent (au):  <R**2>=          16279.6847
 Charge=              1.0000 electrons
 Dipole moment (field-independent basis, Debye):
    X=             11.7990    Y=              6.4949    Z=             -8.0397  Tot=             15.6855
 Quadrupole moment (field-independent basis, Debye-Ang):
   XX=           -110.2116   YY=           -140.3697   ZZ=           -114.9940
   XY=             31.6461   XZ=            -34.7193   YZ=            -27.0319
 Traceless Quadrupole moment (field-independent basis, Debye-Ang):
   XX=             11.6468   YY=            -18.5113   ZZ=              6.8644
   XY=             31.6461   XZ=            -34.7193   YZ=            -27.0319
 Octapole moment (field-independent basis, Debye-Ang**2):
  XXX=           -494.4531  YYY=            -71.4451  ZZZ=            105.3521  XYY=           -175.8399
  XXY=             92.2790  XXZ=            -21.3672  XZZ=            -91.9822  YZZ=             79.8833
  YYZ=             31.4636  XYZ=             -0.1559
 Hexadecapole moment (field-independent basis, Debye-Ang**3):
 XXXX=          -4809.9654 YYYY=          -4780.4172 ZZZZ=          -7607.1385 XXXY=          -1210.8703
 XXXZ=            398.0400 YYYX=          -1473.8096 YYYZ=            650.6812 ZZZX=            835.2220
 ZZZY=             70.0604 XXYY=          -1523.1303 XXZZ=          -1820.2695 YYZZ=          -1790.6516
 XXYZ=            167.1837 YYXZ=            148.2776 ZZXY=           -136.8846
 N-N= 3.410961887788D+03 E-N=-1.035699675097D+04  KE= 1.512268200057D+03
 Unable to Open any file for archive entry.
 1\1\GINC-AMR-116\SP\RB3LYP\6-31G(d)\C20H31N4O7(1+)\KENGMITH\01-Jun-202
 2\0\\# B3LYP/6-31G* empiricaldispersion=gd3 guess=read geom=check nosy
 mm integral(ultrafinegrid)\\Candidate Structure: Conf:535 Charge calc 
 in gas phase\\1,1\N,0,-0.2637177352,-1.3530087171,4.0211866332\H,0,-0.
 7749022687,-1.8375663685,4.7555533765\H,0,0.6057340732,-1.8546527802,3
 .8531583778\C,0,-1.0473916702,-1.3075363125,2.7913138968\H,0,-1.823065
 6021,-0.5391003876,2.915530637\C,0,-0.0907687961,-0.8689590819,1.68197
 69951\C,0,-1.7787836601,-2.6246402243,2.4028971235\H,0,-2.3883012505,-
 2.4614623507,1.5064141356\H,0,-2.470589448,-2.8499749391,3.2233430188\
 O,0,1.0445860309,-1.3267103219,1.5873802169\C,0,-0.864410837,-3.831587
 2815,2.1763482811\H,0,-1.4292990605,-4.7643823186,2.3027650207\H,0,-0.
 0532446099,-3.8731541957,2.9099787578\C,0,-0.2664547579,-3.8846573461,
 0.7874294863\O,0,-0.6598540204,-3.256635977,-0.1761856419\O,0,0.747571
 579,-4.7692423436,0.7207152207\N,0,-0.5539976274,0.0857162385,0.817157
 1603\H,0,-1.5297513101,0.3467875256,0.8653728677\C,0,0.1878558154,0.45
 87990065,-0.3836093204\H,0,-0.1816509436,1.4539535912,-0.660773688\C,0
 ,1.6851362906,0.6452155367,-0.0555767884\C,0,-0.0165446967,-0.50878071
 13,-1.5643513394\H,0,0.4020916644,-1.4785687804,-1.2938058602\H,0,-1.0
 970538846,-0.6641857523,-1.6732207971\O,0,2.5597845185,0.121000169,-0.
 7582165788\C,0,0.5608732257,-0.0252138017,-2.8817128614\C,0,1.34661587
 39,-0.8791097287,-3.6697551654\H,0,1.5642648408,-1.8797333357,-3.30728
 51246\C,0,0.3028278796,1.2578428853,-3.3866189389\H,0,-0.3186155627,1.
 9499311113,-2.8238542046\C,0,1.8468897226,-0.4839198688,-4.9129248721\
 H,0,2.4164071853,-1.1677947352,-5.5353133192\C,0,0.8064183555,1.681778
 2415,-4.6193405985\H,0,0.5742389629,2.6783143698,-4.9896760025\O,0,2.0
 956405706,1.1393240076,-6.614326263\H,0,1.701543717,1.9677922058,-6.93
 09276314\C,0,1.5702600849,0.8037762609,-5.4011206362\N,0,1.9245532291,
 1.5429267818,0.9318045276\H,0,1.1446782341,1.7897586421,1.5371351327\C
 ,0,3.2329509108,1.845018129,1.5088399465\H,0,3.841592912,0.9331324844,
 1.4973811062\C,0,2.9968966483,2.2527479717,2.9583492338\C,0,4.01193229
 64,2.9661048386,0.7435928772\H,0,3.5201048406,3.9353807356,0.888899786
 8\H,0,5.0196908397,3.0312063664,1.1658655045\O,0,1.9058412488,2.471192
 8382,3.4357270446\C,0,4.0059577573,2.5417223077,-0.7199482266\H,0,2.95
 2590657,2.5568719346,-1.0205606525\H,0,4.3064463554,1.4936392478,-0.70
 29674664\C,0,4.7800705716,3.2027432375,-1.8574747893\H,0,4.6556263543,
 4.2911994015,-1.8902964592\H,0,5.8562324698,3.0027861701,-1.7911712372
 \C,0,4.1949823416,2.6379610591,-3.1684549602\H,0,3.2081455799,3.062530
 4697,-3.3690922424\H,0,4.8342347779,2.8098839394,-4.0373278998\N,0,3.9
 490368735,1.1349734824,-3.0981571819\H,0,3.449399688,0.7959993585,-3.9
 377261939\H,0,3.3525591973,0.841891116,-2.2869748714\H,0,4.8257381569,
 0.6104693821,-3.0197255264\O,0,4.1581707689,2.3734128823,3.6212760413\
 H,0,1.0566087191,-4.7785334905,-0.2043657257\H,0,3.9497281125,2.653339
 7947,4.5336650179\\Version=ES64L-G16RevC.01\HF=-1526.2925701\RMSD=9.55
 1e-09\Dipole=1.8584004,2.3042169,-2.4416889\Quadrupole=8.6591467,-13.7
 626774,5.1035307,23.5280661,-25.8129644,-20.097563\PG=C01 [X(C20H31N4O
 7)]\\@
 The archive entry for this job was punched.


 SEE YOU NOW,
 YOUR BAIT OF FALSEHOOD TAKES THIS CARP OF TRUTH.
 AND THUS DO WE OF WISDOM AND OF REACH...
 BY INDIRECTIONS FIND DIRECTIONS OUT.    -- HAMLET, II, 1
 Job cpu time:       0 days  0 hours  1 minutes 12.8 seconds.
 Elapsed time:       0 days  0 hours  0 minutes 18.9 seconds.
 File lengths (MBytes):  RWF=    264 Int=      0 D2E=      0 Chk=     40 Scr=     16
 Normal termination of Gaussian 16 at Wed Jun  1 23:25:17 2022.
