 Entering Gaussian System, Link 0=/opt/software/Gaussian/g16-AVX2-C.01/g16/g16
 Input=charge-conf-950.com
 Output=charge-conf-950.log
 Initial command:
 /opt/software/Gaussian/g16-AVX2-C.01/g16/l1.exe "/mnt/gs18/scratch/users/kengmith/Gau-54804.inp" -scrdir="/mnt/gs18/scratch/users/kengmith/"
 Entering Link 1 = /opt/software/Gaussian/g16-AVX2-C.01/g16/l1.exe PID=     54814.
  
 Copyright (c) 1988-2019, Gaussian, Inc.  All Rights Reserved.
  
 This is part of the Gaussian(R) 16 program.  It is based on
 the Gaussian(R) 09 system (copyright 2009, Gaussian, Inc.),
 the Gaussian(R) 03 system (copyright 2003, Gaussian, Inc.),
 the Gaussian(R) 98 system (copyright 1998, Gaussian, Inc.),
 the Gaussian(R) 94 system (copyright 1995, Gaussian, Inc.),
 the Gaussian 92(TM) system (copyright 1992, Gaussian, Inc.),
 the Gaussian 90(TM) system (copyright 1990, Gaussian, Inc.),
 the Gaussian 88(TM) system (copyright 1988, Gaussian, Inc.),
 the Gaussian 86(TM) system (copyright 1986, Carnegie Mellon
 University), and the Gaussian 82(TM) system (copyright 1983,
 Carnegie Mellon University). Gaussian is a federally registered
 trademark of Gaussian, Inc.
  
 This software contains proprietary and confidential information,
 including trade secrets, belonging to Gaussian, Inc.
  
 This software is provided under written license and may be
 used, copied, transmitted, or stored only in accord with that
 written license.
  
 The following legend is applicable only to US Government
 contracts under FAR:
  
                    RESTRICTED RIGHTS LEGEND
  
 Use, reproduction and disclosure by the US Government is
 subject to restrictions as set forth in subparagraphs (a)
 and (c) of the Commercial Computer Software - Restricted
 Rights clause in FAR 52.227-19.
  
 Gaussian, Inc.
 340 Quinnipiac St., Bldg. 40, Wallingford CT 06492
  
  
 ---------------------------------------------------------------
 Warning -- This program may not be used in any manner that
 competes with the business of Gaussian, Inc. or will provide
 assistance to any competitor of Gaussian, Inc.  The licensee
 of this program is prohibited from giving any competitor of
 Gaussian, Inc. access to this program.  By using this program,
 the user acknowledges that Gaussian, Inc. is engaged in the
 business of creating and licensing software in the field of
 computational chemistry and represents and warrants to the
 licensee that it is not a competitor of Gaussian, Inc. and that
 it will not use this program in any manner prohibited above.
 ---------------------------------------------------------------
  

 Cite this work as:
 Gaussian 16, Revision C.01,
 M. J. Frisch, G. W. Trucks, H. B. Schlegel, G. E. Scuseria, 
 M. A. Robb, J. R. Cheeseman, G. Scalmani, V. Barone, 
 G. A. Petersson, H. Nakatsuji, X. Li, M. Caricato, A. V. Marenich, 
 J. Bloino, B. G. Janesko, R. Gomperts, B. Mennucci, H. P. Hratchian, 
 J. V. Ortiz, A. F. Izmaylov, J. L. Sonnenberg, D. Williams-Young, 
 F. Ding, F. Lipparini, F. Egidi, J. Goings, B. Peng, A. Petrone, 
 T. Henderson, D. Ranasinghe, V. G. Zakrzewski, J. Gao, N. Rega, 
 G. Zheng, W. Liang, M. Hada, M. Ehara, K. Toyota, R. Fukuda, 
 J. Hasegawa, M. Ishida, T. Nakajima, Y. Honda, O. Kitao, H. Nakai, 
 T. Vreven, K. Throssell, J. A. Montgomery, Jr., J. E. Peralta, 
 F. Ogliaro, M. J. Bearpark, J. J. Heyd, E. N. Brothers, K. N. Kudin, 
 V. N. Staroverov, T. A. Keith, R. Kobayashi, J. Normand, 
 K. Raghavachari, A. P. Rendell, J. C. Burant, S. S. Iyengar, 
 J. Tomasi, M. Cossi, J. M. Millam, M. Klene, C. Adamo, R. Cammi, 
 J. W. Ochterski, R. L. Martin, K. Morokuma, O. Farkas, 
 J. B. Foresman, and D. J. Fox, Gaussian, Inc., Wallingford CT, 2019.
 
 ******************************************
 Gaussian 16:  ES64L-G16RevC.01  3-Jul-2019
                 2-Jun-2022 
 ******************************************
 %mem=8gb
 %nproc=4
 Will use up to    4 processors via shared memory.
 %chk=conf-950.chk
 ----------------------------------------------------------------------
 # B3LYP/6-31G* empiricaldispersion=gd3 guess=read geom=check nosymm in
 tegral(ultrafinegrid)
 ----------------------------------------------------------------------
 1/29=2,38=1,172=1/1;
 2/12=2,15=1,40=1/2;
 3/5=1,6=6,7=1,11=2,14=-4,25=1,30=1,74=-5,75=-5,116=-2,124=31/1,2,3;
 4/5=1/1;
 5/5=2,38=6/2;
 6/7=2,8=2,9=2,10=2,28=1/1;
 99/5=1,9=1/99;
 ------------------------------------------------------
 Candidate Structure: Conf:950 Charge calc in gas phase
 ------------------------------------------------------
 Structure from the checkpoint file:  "conf-950.chk"
 Charge =  1 Multiplicity = 1
 Redundant internal coordinates found in file.  (old form).
 N,0,-4.2812634572,1.1678218799,3.0388487332
 H,0,-5.2209730997,0.8787198852,2.7767836265
 H,0,-4.3464475284,1.5674198951,3.9708570373
 C,0,-3.3642780669,0.0240383332,3.0194259015
 H,0,-3.8146177316,-0.9459449896,3.2694865747
 H,0,-2.5619756937,0.1898770891,3.7477417129
 C,0,-2.6874870116,-0.1425422949,1.6594165944
 O,0,-2.0695027321,-1.1728064386,1.3634945496
 N,0,-2.7933461859,0.9278306464,0.8395935215
 H,0,-3.3238717188,1.7101525497,1.2174660445
 C,0,-2.3593449162,0.904192638,-0.5527629748
 H,0,-2.542819624,-0.1126595868,-0.9213862935
 C,0,-0.8320283868,1.1399256661,-0.6393811266
 C,0,-3.1399240397,1.9196823443,-1.3902936374
 H,0,-2.8484926882,2.931141789,-1.0827226704
 H,0,-2.810233193,1.8164220289,-2.4348572056
 O,0,-0.335378634,2.1620201289,-1.1545322196
 C,0,-4.6729280066,1.7682880043,-1.3467394303
 H,0,-5.0061968259,1.9474448121,-0.3145479169
 C,0,-5.3202958828,2.8386913136,-2.2368226489
 H,0,-5.042705857,2.692079397,-3.2890310657
 H,0,-6.4124959462,2.7918356904,-2.1745617575
 H,0,-5.0092314135,3.8482590651,-1.9440048437
 C,0,-5.1329913159,0.3614854984,-1.7538248801
 H,0,-4.7719637045,0.1068909784,-2.7594267453
 H,0,-4.7762102665,-0.4087483844,-1.0609867385
 H,0,-6.2262862579,0.3031205316,-1.7738190448
 N,0,-0.0968453784,0.1436335547,-0.1274161826
 H,0,-0.6169677777,-0.6050635363,0.3457248506
 C,0,1.3458809432,0.1991290328,0.0437971574
 H,0,1.5818125947,1.0025025792,0.7557713809
 C,0,2.0516039173,0.5225626096,-1.2812110262
 C,0,1.8368774151,-1.1509397601,0.6462366689
 H,0,1.2032600431,-1.3081389424,1.5309841381
 O,0,1.6400931143,0.1207461267,-2.3805320631
 C,0,1.6301882342,-2.3330695319,-0.3117892189
 H,0,2.2564858741,-2.2344129625,-1.2044829204
 H,0,1.897874337,-3.2676454488,0.1907728363
 H,0,0.5902829243,-2.4170966601,-0.6429313024
 C,0,3.291895714,-1.0633536504,1.1255915351
 H,0,3.9916640761,-0.9416131045,0.2922714983
 H,0,3.5636069824,-1.9825742128,1.6535031645
 H,0,3.4416662566,-0.2277698923,1.8209774553
 N,0,3.1905053047,1.2324998721,-1.144987306
 H,0,3.4976424341,1.4878767728,-0.2156957454
 C,0,4.068756646,1.5730815001,-2.2553401507
 H,0,3.8395547096,0.8747596136,-3.0644615974
 C,0,5.544379277,1.3643978764,-1.9241580535
 C,0,3.8601457449,3.0284475428,-2.7424016714
 H,0,4.111594246,3.7083593811,-1.9190810101
 H,0,4.5812331178,3.217304569,-3.5450084098
 O,0,6.4236315764,1.524376941,-2.7337939816
 C,0,2.425612036,3.3071903869,-3.2114472712
 H,0,2.2979491324,4.3886675207,-3.3402050238
 H,0,1.733633322,3.0136509968,-2.4132050964
 C,0,2.0834769532,2.6009393326,-4.5345401354
 H,0,2.5590263707,3.1260154477,-5.3708793598
 H,0,2.4824126571,1.5802466388,-4.545269629
 C,0,0.5894835794,2.5165708373,-4.8323697981
 H,0,0.1023029506,3.4953091974,-4.8161391188
 H,0,0.411049149,2.0543491929,-5.8062149702
 N,0,-0.1065593636,1.656670181,-3.8009237244
 H,0,-0.312339308,2.1503047855,-2.9010829042
 H,0,-0.9882441465,1.2766682597,-4.1526841858
 H,0,0.5056514657,0.8734375821,-3.4723282525
 O,0,5.7556265604,1.0176890892,-0.6324476846
 H,0,6.7211593594,0.9281276215,-0.5129579485
 Recover connectivity data from disk.
                           ----------------------------
                           !    Current Parameters    !
                           ! (Angstroms and Degrees)  !
 --------------------------                            --------------------------
 ! Name  Definition              Value                                          !
 --------------------------------------------------------------------------------
 ! R1    R(1,2)                  1.0175                                         !
 ! R2    R(1,3)                  1.0162                                         !
 ! R3    R(1,4)                  1.4661                                         !
 ! R4    R(4,5)                  1.0983                                         !
 ! R5    R(4,6)                  1.0962                                         !
 ! R6    R(4,7)                  1.5282                                         !
 ! R7    R(7,8)                  1.2373                                         !
 ! R8    R(7,9)                  1.3524                                         !
 ! R9    R(9,10)                 1.018                                          !
 ! R10   R(9,11)                 1.4586                                         !
 ! R11   R(11,12)                1.0971                                         !
 ! R12   R(11,13)                1.5478                                         !
 ! R13   R(11,14)                1.5304                                         !
 ! R14   R(13,17)                1.2477                                         !
 ! R15   R(13,28)                1.3399                                         !
 ! R16   R(14,15)                1.0966                                         !
 ! R17   R(14,16)                1.1002                                         !
 ! R18   R(14,18)                1.5411                                         !
 ! R19   R(18,19)                1.0994                                         !
 ! R20   R(18,20)                1.5353                                         !
 ! R21   R(18,24)                1.5351                                         !
 ! R22   R(20,21)                1.098                                          !
 ! R23   R(20,22)                1.095                                          !
 ! R24   R(20,23)                1.0962                                         !
 ! R25   R(24,25)                1.0984                                         !
 ! R26   R(24,26)                1.0957                                         !
 ! R27   R(24,27)                1.095                                          !
 ! R28   R(28,29)                1.0271                                         !
 ! R29   R(28,30)                1.4539                                         !
 ! R30   R(30,31)                1.0991                                         !
 ! R31   R(30,32)                1.5357                                         !
 ! R32   R(30,33)                1.5578                                         !
 ! R33   R(32,35)                1.2407                                         !
 ! R34   R(32,44)                1.3489                                         !
 ! R35   R(33,34)                1.0995                                         !
 ! R36   R(33,36)                1.5356                                         !
 ! R37   R(33,40)                1.5344                                         !
 ! R38   R(36,37)                1.0949                                         !
 ! R39   R(36,38)                1.0944                                         !
 ! R40   R(36,39)                1.0946                                         !
 ! R41   R(40,41)                1.095                                          !
 ! R42   R(40,42)                1.0943                                         !
 ! R43   R(40,43)                1.0974                                         !
 ! R44   R(44,45)                1.0115                                         !
 ! R45   R(44,46)                1.4561                                         !
 ! R46   R(46,47)                1.0931                                         !
 ! R47   R(46,48)                1.5267                                         !
 ! R48   R(46,49)                1.5488                                         !
 ! R49   R(48,52)                1.2059                                         !
 ! R50   R(48,66)                1.354                                          !
 ! R51   R(49,50)                1.097                                          !
 ! R52   R(49,51)                1.0954                                         !
 ! R53   R(49,53)                1.5348                                         !
 ! R54   R(53,54)                1.0966                                         !
 ! R55   R(53,55)                1.0964                                         !
 ! R56   R(53,56)                1.5383                                         !
 ! R57   R(56,57)                1.096                                          !
 ! R58   R(56,58)                1.0959                                         !
 ! R59   R(56,59)                1.5257                                         !
 ! R60   R(59,60)                1.0934                                         !
 ! R61   R(59,61)                1.0926                                         !
 ! R62   R(59,62)                1.5125                                         !
 ! R63   R(62,63)                1.0468                                         !
 ! R64   R(62,64)                1.0225                                         !
 ! R65   R(62,65)                1.047                                          !
 ! R66   R(66,67)                0.977                                          !
 ! A1    A(2,1,3)              106.7813                                         !
 ! A2    A(2,1,4)              110.644                                          !
 ! A3    A(3,1,4)              111.0426                                         !
 ! A4    A(1,4,5)              115.4383                                         !
 ! A5    A(1,4,6)              109.326                                          !
 ! A6    A(1,4,7)              111.9515                                         !
 ! A7    A(5,4,6)              106.4065                                         !
 ! A8    A(5,4,7)              106.7352                                         !
 ! A9    A(6,4,7)              106.4774                                         !
 ! A10   A(4,7,8)              121.6549                                         !
 ! A11   A(4,7,9)              114.7423                                         !
 ! A12   A(8,7,9)              123.5823                                         !
 ! A13   A(7,9,10)             115.0883                                         !
 ! A14   A(7,9,11)             122.8567                                         !
 ! A15   A(10,9,11)            121.457                                          !
 ! A16   A(9,11,12)            106.619                                          !
 ! A17   A(9,11,13)            110.1543                                         !
 ! A18   A(9,11,14)            111.0939                                         !
 ! A19   A(12,11,13)           106.7016                                         !
 ! A20   A(12,11,14)           110.2341                                         !
 ! A21   A(13,11,14)           111.8155                                         !
 ! A22   A(11,13,17)           122.7279                                         !
 ! A23   A(11,13,28)           114.0042                                         !
 ! A24   A(17,13,28)           123.2634                                         !
 ! A25   A(11,14,15)           108.8436                                         !
 ! A26   A(11,14,16)           107.7264                                         !
 ! A27   A(11,14,18)           115.2607                                         !
 ! A28   A(15,14,16)           105.8556                                         !
 ! A29   A(15,14,18)           110.3067                                         !
 ! A30   A(16,14,18)           108.4033                                         !
 ! A31   A(14,18,19)           108.185                                          !
 ! A32   A(14,18,20)           109.5466                                         !
 ! A33   A(14,18,24)           112.3749                                         !
 ! A34   A(19,18,20)           107.631                                          !
 ! A35   A(19,18,24)           107.9074                                         !
 ! A36   A(20,18,24)           111.0281                                         !
 ! A37   A(18,20,21)           110.8464                                         !
 ! A38   A(18,20,22)           110.9646                                         !
 ! A39   A(18,20,23)           111.5661                                         !
 ! A40   A(21,20,22)           107.5139                                         !
 ! A41   A(21,20,23)           107.8902                                         !
 ! A42   A(22,20,23)           107.8941                                         !
 ! A43   A(18,24,25)           110.8982                                         !
 ! A44   A(18,24,26)           112.2682                                         !
 ! A45   A(18,24,27)           110.6655                                         !
 ! A46   A(25,24,26)           107.9959                                         !
 ! A47   A(25,24,27)           107.4038                                         !
 ! A48   A(26,24,27)           107.4082                                         !
 ! A49   A(13,28,29)           116.1158                                         !
 ! A50   A(13,28,30)           124.1318                                         !
 ! A51   A(29,28,30)           118.4297                                         !
 ! A52   A(28,30,31)           108.4934                                         !
 ! A53   A(28,30,32)           111.2508                                         !
 ! A54   A(28,30,33)           108.9792                                         !
 ! A55   A(31,30,32)           107.8381                                         !
 ! A56   A(31,30,33)           108.3793                                         !
 ! A57   A(32,30,33)           111.7995                                         !
 ! A58   A(30,32,35)           122.9476                                         !
 ! A59   A(30,32,44)           114.312                                          !
 ! A60   A(35,32,44)           122.6808                                         !
 ! A61   A(30,33,34)           104.6823                                         !
 ! A62   A(30,33,36)           112.5495                                         !
 ! A63   A(30,33,40)           111.729                                          !
 ! A64   A(34,33,36)           108.3241                                         !
 ! A65   A(34,33,40)           107.6512                                         !
 ! A66   A(36,33,40)           111.4985                                         !
 ! A67   A(33,36,37)           111.2414                                         !
 ! A68   A(33,36,38)           109.7547                                         !
 ! A69   A(33,36,39)           112.0687                                         !
 ! A70   A(37,36,38)           108.1458                                         !
 ! A71   A(37,36,39)           107.6793                                         !
 ! A72   A(38,36,39)           107.8035                                         !
 ! A73   A(33,40,41)           111.9996                                         !
 ! A74   A(33,40,42)           109.7674                                         !
 ! A75   A(33,40,43)           111.7677                                         !
 ! A76   A(41,40,42)           107.5694                                         !
 ! A77   A(41,40,43)           108.0827                                         !
 ! A78   A(42,40,43)           107.4596                                         !
 ! A79   A(32,44,45)           118.8171                                         !
 ! A80   A(32,44,46)           123.7335                                         !
 ! A81   A(45,44,46)           117.2827                                         !
 ! A82   A(44,46,47)           106.7714                                         !
 ! A83   A(44,46,48)           112.6808                                         !
 ! A84   A(44,46,49)           112.2317                                         !
 ! A85   A(47,46,48)           106.0169                                         !
 ! A86   A(47,46,49)           109.8331                                         !
 ! A87   A(48,46,49)           109.0778                                         !
 ! A88   A(46,48,52)           122.7497                                         !
 ! A89   A(46,48,66)           113.1259                                         !
 ! A90   A(52,48,66)           124.1055                                         !
 ! A91   A(46,49,50)           108.3916                                         !
 ! A92   A(46,49,51)           107.6841                                         !
 ! A93   A(46,49,53)           113.1198                                         !
 ! A94   A(50,49,51)           106.9886                                         !
 ! A95   A(50,49,53)           109.3325                                         !
 ! A96   A(51,49,53)           111.1042                                         !
 ! A97   A(49,53,54)           108.8938                                         !
 ! A98   A(49,53,55)           108.5886                                         !
 ! A99   A(49,53,56)           112.7897                                         !
 ! A100  A(54,53,55)           106.0242                                         !
 ! A101  A(54,53,56)           109.0203                                         !
 ! A102  A(55,53,56)           111.278                                          !
 ! A103  A(53,56,57)           109.868                                          !
 ! A104  A(53,56,58)           110.7962                                         !
 ! A105  A(53,56,59)           114.2717                                         !
 ! A106  A(57,56,58)           106.3059                                         !
 ! A107  A(57,56,59)           107.6014                                         !
 ! A108  A(58,56,59)           107.6397                                         !
 ! A109  A(56,59,60)           112.5755                                         !
 ! A110  A(56,59,61)           110.9335                                         !
 ! A111  A(56,59,62)           110.422                                          !
 ! A112  A(60,59,61)           108.6106                                         !
 ! A113  A(60,59,62)           107.0814                                         !
 ! A114  A(61,59,62)           106.986                                          !
 ! A115  A(59,62,63)           114.1153                                         !
 ! A116  A(59,62,64)           111.9311                                         !
 ! A117  A(59,62,65)           111.7295                                         !
 ! A118  A(63,62,64)           107.5463                                         !
 ! A119  A(63,62,65)           101.4159                                         !
 ! A120  A(64,62,65)           109.5211                                         !
 ! A121  A(48,66,67)           107.1173                                         !
 ! D1    D(2,1,4,5)            -31.2532                                         !
 ! D2    D(2,1,4,6)           -151.1385                                         !
 ! D3    D(2,1,4,7)             91.1243                                         !
 ! D4    D(3,1,4,5)             87.1399                                         !
 ! D5    D(3,1,4,6)            -32.7454                                         !
 ! D6    D(3,1,4,7)           -150.4826                                         !
 ! D7    D(1,4,7,8)           -166.9053                                         !
 ! D8    D(1,4,7,9)             14.6856                                         !
 ! D9    D(5,4,7,8)            -39.692                                          !
 ! D10   D(5,4,7,9)            141.8989                                         !
 ! D11   D(6,4,7,8)             73.6682                                         !
 ! D12   D(6,4,7,9)           -104.7409                                         !
 ! D13   D(4,7,9,10)            -1.0255                                         !
 ! D14   D(4,7,9,11)          -172.2646                                         !
 ! D15   D(8,7,9,10)          -179.4                                            !
 ! D16   D(8,7,9,11)             9.3609                                         !
 ! D17   D(7,9,11,12)           33.4025                                         !
 ! D18   D(7,9,11,13)          -82.0032                                         !
 ! D19   D(7,9,11,14)          153.5343                                         !
 ! D20   D(10,9,11,12)        -137.2915                                         !
 ! D21   D(10,9,11,13)         107.3028                                         !
 ! D22   D(10,9,11,14)         -17.1597                                         !
 ! D23   D(9,11,13,17)        -113.3501                                         !
 ! D24   D(9,11,13,28)          67.3975                                         !
 ! D25   D(12,11,13,17)        131.2964                                         !
 ! D26   D(12,11,13,28)        -47.9561                                         !
 ! D27   D(14,11,13,17)         10.696                                          !
 ! D28   D(14,11,13,28)       -168.5564                                         !
 ! D29   D(9,11,14,15)          68.7627                                         !
 ! D30   D(9,11,14,16)        -176.8964                                         !
 ! D31   D(9,11,14,18)         -55.7442                                         !
 ! D32   D(12,11,14,15)       -173.2746                                         !
 ! D33   D(12,11,14,16)        -58.9337                                         !
 ! D34   D(12,11,14,18)         62.2185                                         !
 ! D35   D(13,11,14,15)        -54.7548                                         !
 ! D36   D(13,11,14,16)         59.5861                                         !
 ! D37   D(13,11,14,18)       -179.2617                                         !
 ! D38   D(11,13,28,29)         -6.1353                                         !
 ! D39   D(11,13,28,30)       -172.7555                                         !
 ! D40   D(17,13,28,29)        174.6168                                         !
 ! D41   D(17,13,28,30)          7.9966                                         !
 ! D42   D(11,14,18,19)         63.4342                                         !
 ! D43   D(11,14,18,20)       -179.5052                                         !
 ! D44   D(11,14,18,24)        -55.5929                                         !
 ! D45   D(15,14,18,19)        -60.3049                                         !
 ! D46   D(15,14,18,20)         56.7557                                         !
 ! D47   D(15,14,18,24)       -179.332                                          !
 ! D48   D(16,14,18,19)       -175.7815                                         !
 ! D49   D(16,14,18,20)        -58.7209                                         !
 ! D50   D(16,14,18,24)         65.1914                                         !
 ! D51   D(14,18,20,21)         64.1126                                         !
 ! D52   D(14,18,20,22)       -176.4976                                         !
 ! D53   D(14,18,20,23)        -56.1498                                         !
 ! D54   D(19,18,20,21)       -178.479                                          !
 ! D55   D(19,18,20,22)        -59.0892                                         !
 ! D56   D(19,18,20,23)         61.2587                                         !
 ! D57   D(24,18,20,21)        -60.5853                                         !
 ! D58   D(24,18,20,22)         58.8044                                         !
 ! D59   D(24,18,20,23)        179.1523                                         !
 ! D60   D(14,18,24,25)        -57.366                                          !
 ! D61   D(14,18,24,26)         63.5449                                         !
 ! D62   D(14,18,24,27)       -176.4571                                         !
 ! D63   D(19,18,24,25)       -176.5555                                         !
 ! D64   D(19,18,24,26)        -55.6446                                         !
 ! D65   D(19,18,24,27)         64.3534                                         !
 ! D66   D(20,18,24,25)         65.7188                                         !
 ! D67   D(20,18,24,26)       -173.3702                                         !
 ! D68   D(20,18,24,27)        -53.3723                                         !
 ! D69   D(13,28,30,31)         63.0159                                         !
 ! D70   D(13,28,30,32)        -55.4508                                         !
 ! D71   D(13,28,30,33)       -179.169                                          !
 ! D72   D(29,28,30,31)       -103.3174                                         !
 ! D73   D(29,28,30,32)        138.216                                          !
 ! D74   D(29,28,30,33)         14.4977                                         !
 ! D75   D(28,30,32,35)        -34.7058                                         !
 ! D76   D(28,30,32,44)        148.0333                                         !
 ! D77   D(31,30,32,35)       -153.5658                                         !
 ! D78   D(31,30,32,44)         29.1733                                         !
 ! D79   D(33,30,32,35)         87.3924                                         !
 ! D80   D(33,30,32,44)        -89.8685                                         !
 ! D81   D(28,30,33,34)        -51.8583                                         !
 ! D82   D(28,30,33,36)         65.5743                                         !
 ! D83   D(28,30,33,40)       -168.0806                                         !
 ! D84   D(31,30,33,34)         66.0288                                         !
 ! D85   D(31,30,33,36)       -176.5386                                         !
 ! D86   D(31,30,33,40)        -50.1935                                         !
 ! D87   D(32,30,33,34)       -175.2502                                         !
 ! D88   D(32,30,33,36)        -57.8176                                         !
 ! D89   D(32,30,33,40)         68.5275                                         !
 ! D90   D(30,32,44,45)          0.5411                                         !
 ! D91   D(30,32,44,46)        175.7141                                         !
 ! D92   D(35,32,44,45)       -176.7281                                         !
 ! D93   D(35,32,44,46)         -1.5551                                         !
 ! D94   D(30,33,36,37)         65.8605                                         !
 ! D95   D(30,33,36,38)       -174.4943                                         !
 ! D96   D(30,33,36,39)        -54.7483                                         !
 ! D97   D(34,33,36,37)       -178.8864                                         !
 ! D98   D(34,33,36,38)        -59.2412                                         !
 ! D99   D(34,33,36,39)         60.5048                                         !
 ! D100  D(40,33,36,37)        -60.6084                                         !
 ! D101  D(40,33,36,38)         59.0368                                         !
 ! D102  D(40,33,36,39)        178.7828                                         !
 ! D103  D(30,33,40,41)        -67.6207                                         !
 ! D104  D(30,33,40,42)        172.9632                                         !
 ! D105  D(30,33,40,43)         53.8324                                         !
 ! D106  D(34,33,40,41)        177.977                                          !
 ! D107  D(34,33,40,42)         58.5608                                         !
 ! D108  D(34,33,40,43)        -60.57                                           !
 ! D109  D(36,33,40,41)         59.2962                                         !
 ! D110  D(36,33,40,42)        -60.1199                                         !
 ! D111  D(36,33,40,43)       -179.2507                                         !
 ! D112  D(32,44,46,47)        -19.9986                                         !
 ! D113  D(32,44,46,48)       -135.9929                                         !
 ! D114  D(32,44,46,49)        100.3988                                         !
 ! D115  D(45,44,46,47)        155.2429                                         !
 ! D116  D(45,44,46,48)         39.2487                                         !
 ! D117  D(45,44,46,49)        -84.3597                                         !
 ! D118  D(44,46,48,52)        176.0837                                         !
 ! D119  D(44,46,48,66)         -5.4399                                         !
 ! D120  D(47,46,48,52)         59.6387                                         !
 ! D121  D(47,46,48,66)       -121.8849                                         !
 ! D122  D(49,46,48,52)        -58.5761                                         !
 ! D123  D(49,46,48,66)        119.9002                                         !
 ! D124  D(44,46,49,50)         62.288                                          !
 ! D125  D(44,46,49,51)        177.7042                                         !
 ! D126  D(44,46,49,53)        -59.1308                                         !
 ! D127  D(47,46,49,50)       -179.1046                                         !
 ! D128  D(47,46,49,51)        -63.6884                                         !
 ! D129  D(47,46,49,53)         59.4765                                         !
 ! D130  D(48,46,49,50)        -63.3127                                         !
 ! D131  D(48,46,49,51)         52.1035                                         !
 ! D132  D(48,46,49,53)        175.2685                                         !
 ! D133  D(46,48,66,67)       -178.6822                                         !
 ! D134  D(52,48,66,67)         -0.2298                                         !
 ! D135  D(46,49,53,54)        168.3427                                         !
 ! D136  D(46,49,53,55)         53.323                                          !
 ! D137  D(46,49,53,56)        -70.4973                                         !
 ! D138  D(50,49,53,54)         47.4556                                         !
 ! D139  D(50,49,53,55)        -67.5641                                         !
 ! D140  D(50,49,53,56)        168.6156                                         !
 ! D141  D(51,49,53,54)        -70.404                                          !
 ! D142  D(51,49,53,55)        174.5764                                         !
 ! D143  D(51,49,53,56)         50.756                                          !
 ! D144  D(49,53,56,57)        -75.508                                          !
 ! D145  D(49,53,56,58)         41.6588                                         !
 ! D146  D(49,53,56,59)        163.4507                                         !
 ! D147  D(54,53,56,57)         45.58                                           !
 ! D148  D(54,53,56,58)        162.7468                                         !
 ! D149  D(54,53,56,59)        -75.4613                                         !
 ! D150  D(55,53,56,57)        162.1696                                         !
 ! D151  D(55,53,56,58)        -80.6637                                         !
 ! D152  D(55,53,56,59)         41.1283                                         !
 ! D153  D(53,56,59,60)         55.031                                          !
 ! D154  D(53,56,59,61)        176.9746                                         !
 ! D155  D(53,56,59,62)        -64.5886                                         !
 ! D156  D(57,56,59,60)        -67.2568                                         !
 ! D157  D(57,56,59,61)         54.6868                                         !
 ! D158  D(57,56,59,62)        173.1236                                         !
 ! D159  D(58,56,59,60)        178.5405                                         !
 ! D160  D(58,56,59,61)        -59.516                                          !
 ! D161  D(58,56,59,62)         58.9209                                         !
 ! D162  D(56,59,62,63)         80.3115                                         !
 ! D163  D(56,59,62,64)       -157.2561                                         !
 ! D164  D(56,59,62,65)        -34.0096                                         !
 ! D165  D(60,59,62,63)        -42.5741                                         !
 ! D166  D(60,59,62,64)         79.8583                                         !
 ! D167  D(60,59,62,65)       -156.8952                                         !
 ! D168  D(61,59,62,63)       -158.8667                                         !
 ! D169  D(61,59,62,64)        -36.4342                                         !
 ! D170  D(61,59,62,65)         86.8122                                         !
 --------------------------------------------------------------------------------
 Symmetry turned off by external request.
 Stoichiometry    C19H38N5O5(1+)
 Framework group  C1[X(C19H38N5O5)]
 Deg. of freedom   195
 Full point group                 C1      NOp   1
                          Input orientation:                          
 ---------------------------------------------------------------------
 Center     Atomic      Atomic             Coordinates (Angstroms)
 Number     Number       Type             X           Y           Z
 ---------------------------------------------------------------------
      1          7           0       -4.281263    1.167822    3.038849
      2          1           0       -5.220973    0.878720    2.776784
      3          1           0       -4.346448    1.567420    3.970857
      4          6           0       -3.364278    0.024038    3.019426
      5          1           0       -3.814618   -0.945945    3.269487
      6          1           0       -2.561976    0.189877    3.747742
      7          6           0       -2.687487   -0.142542    1.659417
      8          8           0       -2.069503   -1.172806    1.363495
      9          7           0       -2.793346    0.927831    0.839594
     10          1           0       -3.323872    1.710153    1.217466
     11          6           0       -2.359345    0.904193   -0.552763
     12          1           0       -2.542820   -0.112660   -0.921386
     13          6           0       -0.832028    1.139926   -0.639381
     14          6           0       -3.139924    1.919682   -1.390294
     15          1           0       -2.848493    2.931142   -1.082723
     16          1           0       -2.810233    1.816422   -2.434857
     17          8           0       -0.335379    2.162020   -1.154532
     18          6           0       -4.672928    1.768288   -1.346739
     19          1           0       -5.006197    1.947445   -0.314548
     20          6           0       -5.320296    2.838691   -2.236823
     21          1           0       -5.042706    2.692079   -3.289031
     22          1           0       -6.412496    2.791836   -2.174562
     23          1           0       -5.009231    3.848259   -1.944005
     24          6           0       -5.132991    0.361485   -1.753825
     25          1           0       -4.771964    0.106891   -2.759427
     26          1           0       -4.776210   -0.408748   -1.060987
     27          1           0       -6.226286    0.303121   -1.773819
     28          7           0       -0.096845    0.143634   -0.127416
     29          1           0       -0.616968   -0.605064    0.345725
     30          6           0        1.345881    0.199129    0.043797
     31          1           0        1.581813    1.002503    0.755771
     32          6           0        2.051604    0.522563   -1.281211
     33          6           0        1.836877   -1.150940    0.646237
     34          1           0        1.203260   -1.308139    1.530984
     35          8           0        1.640093    0.120746   -2.380532
     36          6           0        1.630188   -2.333070   -0.311789
     37          1           0        2.256486   -2.234413   -1.204483
     38          1           0        1.897874   -3.267645    0.190773
     39          1           0        0.590283   -2.417097   -0.642931
     40          6           0        3.291896   -1.063354    1.125592
     41          1           0        3.991664   -0.941613    0.292271
     42          1           0        3.563607   -1.982574    1.653503
     43          1           0        3.441666   -0.227770    1.820977
     44          7           0        3.190505    1.232500   -1.144987
     45          1           0        3.497642    1.487877   -0.215696
     46          6           0        4.068757    1.573082   -2.255340
     47          1           0        3.839555    0.874760   -3.064462
     48          6           0        5.544379    1.364398   -1.924158
     49          6           0        3.860146    3.028448   -2.742402
     50          1           0        4.111594    3.708359   -1.919081
     51          1           0        4.581233    3.217305   -3.545008
     52          8           0        6.423632    1.524377   -2.733794
     53          6           0        2.425612    3.307190   -3.211447
     54          1           0        2.297949    4.388668   -3.340205
     55          1           0        1.733633    3.013651   -2.413205
     56          6           0        2.083477    2.600939   -4.534540
     57          1           0        2.559026    3.126015   -5.370879
     58          1           0        2.482413    1.580247   -4.545270
     59          6           0        0.589484    2.516571   -4.832370
     60          1           0        0.102303    3.495309   -4.816139
     61          1           0        0.411049    2.054349   -5.806215
     62          7           0       -0.106559    1.656670   -3.800924
     63          1           0       -0.312339    2.150305   -2.901083
     64          1           0       -0.988244    1.276668   -4.152684
     65          1           0        0.505651    0.873438   -3.472328
     66          8           0        5.755627    1.017689   -0.632448
     67          1           0        6.721159    0.928128   -0.512958
 ---------------------------------------------------------------------
 Rotational constants (GHZ):           0.2338277           0.0936086           0.0737759
 Standard basis: 6-31G(d) (6D, 7F)
   511 basis functions,   964 primitive gaussians,   511 cartesian basis functions
   113 alpha electrons      113 beta electrons
       nuclear repulsion energy      3171.3710936015 Hartrees.
 NAtoms=   67 NActive=   67 NUniq=   67 SFac= 1.00D+00 NAtFMM=   60 NAOKFM=T Big=T
 Integral buffers will be    131072 words long.
 Raffenetti 2 integral format.
 Two-electron integral symmetry is turned off.
 Nuclear repulsion after empirical dispersion term =     3171.2829272774 Hartrees.
 One-electron integrals computed using PRISM.
 NBasis=   511 RedAO= T EigKep=  1.68D-03  NBF=   511
 NBsUse=   511 1.00D-06 EigRej= -1.00D+00 NBFU=   511
 Initial guess from the checkpoint file:  "conf-950.chk"
 B after Tr=     0.000000    0.000000    0.000000
         Rot=    1.000000    0.000000    0.000000    0.000000 Ang=   0.00 deg.
 Requested convergence on RMS density matrix=1.00D-08 within 128 cycles.
 Requested convergence on MAX density matrix=1.00D-06.
 Requested convergence on             energy=1.00D-06.
 No special actions if energy rises.
 SCF Done:  E(RB3LYP) =  -1396.76680657     A.U. after    3 cycles
            NFock=  3  Conv=0.91D-09     -V/T= 2.0095

 **********************************************************************

            Population analysis using the SCF Density.

 **********************************************************************

 Alpha  occ. eigenvalues --  -19.30462 -19.24233 -19.24197 -19.24100 -19.21793
 Alpha  occ. eigenvalues --  -14.55628 -14.48414 -14.46898 -14.46082 -14.42577
 Alpha  occ. eigenvalues --  -10.42593 -10.41283 -10.40490 -10.38599 -10.37151
 Alpha  occ. eigenvalues --  -10.35088 -10.34612 -10.34252 -10.31724 -10.31142
 Alpha  occ. eigenvalues --  -10.30059 -10.29914 -10.29722 -10.29339 -10.28642
 Alpha  occ. eigenvalues --  -10.26973 -10.26325 -10.26266 -10.26076  -1.21047
 Alpha  occ. eigenvalues --   -1.16301  -1.15051  -1.13409  -1.12110  -1.10836
 Alpha  occ. eigenvalues --   -1.04961  -1.04085  -1.02933  -0.98526  -0.92781
 Alpha  occ. eigenvalues --   -0.91311  -0.90713  -0.88597  -0.85630  -0.83697
 Alpha  occ. eigenvalues --   -0.81142  -0.79427  -0.77781  -0.77230  -0.76887
 Alpha  occ. eigenvalues --   -0.74982  -0.72784  -0.71987  -0.70960  -0.70010
 Alpha  occ. eigenvalues --   -0.68739  -0.68659  -0.68169  -0.66727  -0.65879
 Alpha  occ. eigenvalues --   -0.64074  -0.62091  -0.61868  -0.61427  -0.61066
 Alpha  occ. eigenvalues --   -0.59575  -0.59283  -0.58854  -0.57998  -0.57617
 Alpha  occ. eigenvalues --   -0.56884  -0.56423  -0.55666  -0.55518  -0.54197
 Alpha  occ. eigenvalues --   -0.54178  -0.53741  -0.52893  -0.52784  -0.52227
 Alpha  occ. eigenvalues --   -0.51915  -0.51710  -0.50848  -0.50444  -0.50155
 Alpha  occ. eigenvalues --   -0.49728  -0.49485  -0.48995  -0.48776  -0.48264
 Alpha  occ. eigenvalues --   -0.47791  -0.47286  -0.47039  -0.46072  -0.45505
 Alpha  occ. eigenvalues --   -0.45332  -0.45153  -0.44529  -0.43752  -0.43477
 Alpha  occ. eigenvalues --   -0.43291  -0.42181  -0.42037  -0.42002  -0.41890
 Alpha  occ. eigenvalues --   -0.39387  -0.39127  -0.38523  -0.37382  -0.36692
 Alpha  occ. eigenvalues --   -0.36472  -0.35173  -0.34174
 Alpha virt. eigenvalues --   -0.10859  -0.10539  -0.09351  -0.08218  -0.07627
 Alpha virt. eigenvalues --   -0.03537  -0.02397  -0.02132  -0.01183  -0.00288
 Alpha virt. eigenvalues --   -0.00082   0.00188   0.01026   0.01549   0.01871
 Alpha virt. eigenvalues --    0.02317   0.02901   0.03134   0.03416   0.03979
 Alpha virt. eigenvalues --    0.04315   0.04644   0.04915   0.05509   0.05735
 Alpha virt. eigenvalues --    0.05832   0.06297   0.06426   0.06775   0.07058
 Alpha virt. eigenvalues --    0.07437   0.08002   0.08222   0.08550   0.09119
 Alpha virt. eigenvalues --    0.09189   0.09368   0.09818   0.09951   0.10483
 Alpha virt. eigenvalues --    0.11105   0.11401   0.11608   0.11648   0.11915
 Alpha virt. eigenvalues --    0.12448   0.12482   0.12677   0.13505   0.14107
 Alpha virt. eigenvalues --    0.14674   0.14852   0.15162   0.15597   0.15792
 Alpha virt. eigenvalues --    0.16535   0.16875   0.17367   0.17523   0.19333
 Alpha virt. eigenvalues --    0.19720   0.20521   0.21630   0.24297   0.25860
 Alpha virt. eigenvalues --    0.27884   0.29519   0.30391   0.31314   0.33494
 Alpha virt. eigenvalues --    0.36458   0.37750   0.38254   0.39515   0.39771
 Alpha virt. eigenvalues --    0.39899   0.40918   0.41642   0.42640   0.42880
 Alpha virt. eigenvalues --    0.43364   0.43935   0.44387   0.44621   0.44897
 Alpha virt. eigenvalues --    0.45754   0.45985   0.46245   0.47060   0.47435
 Alpha virt. eigenvalues --    0.48467   0.48752   0.49225   0.50076   0.50620
 Alpha virt. eigenvalues --    0.50975   0.51601   0.52664   0.52892   0.53399
 Alpha virt. eigenvalues --    0.54264   0.55361   0.55866   0.56473   0.56939
 Alpha virt. eigenvalues --    0.57578   0.57861   0.58878   0.59429   0.60525
 Alpha virt. eigenvalues --    0.60995   0.61632   0.61954   0.62328   0.62624
 Alpha virt. eigenvalues --    0.63334   0.63943   0.64084   0.64261   0.66261
 Alpha virt. eigenvalues --    0.66669   0.67555   0.68357   0.68823   0.69725
 Alpha virt. eigenvalues --    0.70160   0.70824   0.71355   0.71622   0.72086
 Alpha virt. eigenvalues --    0.72322   0.72904   0.74162   0.74313   0.74734
 Alpha virt. eigenvalues --    0.75041   0.75483   0.76360   0.77022   0.77567
 Alpha virt. eigenvalues --    0.78005   0.78337   0.78850   0.79355   0.79658
 Alpha virt. eigenvalues --    0.79789   0.80332   0.80521   0.81101   0.81597
 Alpha virt. eigenvalues --    0.81779   0.82023   0.82256   0.82452   0.82986
 Alpha virt. eigenvalues --    0.83558   0.83912   0.84020   0.84647   0.84797
 Alpha virt. eigenvalues --    0.84914   0.85350   0.85784   0.86343   0.86670
 Alpha virt. eigenvalues --    0.87565   0.88424   0.88762   0.89609   0.89808
 Alpha virt. eigenvalues --    0.90406   0.90828   0.91779   0.92531   0.93185
 Alpha virt. eigenvalues --    0.94567   0.95022   0.95806   0.96116   0.97123
 Alpha virt. eigenvalues --    0.99150   0.99501   0.99815   1.00356   1.01489
 Alpha virt. eigenvalues --    1.01706   1.03039   1.04163   1.04964   1.06375
 Alpha virt. eigenvalues --    1.07188   1.07558   1.08828   1.10949   1.11910
 Alpha virt. eigenvalues --    1.14241   1.15575   1.16583   1.17875   1.19383
 Alpha virt. eigenvalues --    1.21066   1.21580   1.22816   1.23850   1.25898
 Alpha virt. eigenvalues --    1.26934   1.27313   1.28945   1.29369   1.30879
 Alpha virt. eigenvalues --    1.31356   1.32123   1.34107   1.34945   1.35783
 Alpha virt. eigenvalues --    1.36673   1.37798   1.38969   1.39587   1.40229
 Alpha virt. eigenvalues --    1.41425   1.42556   1.43487   1.45363   1.47983
 Alpha virt. eigenvalues --    1.48576   1.49223   1.51616   1.52306   1.52723
 Alpha virt. eigenvalues --    1.55188   1.55631   1.56992   1.58489   1.58795
 Alpha virt. eigenvalues --    1.59759   1.60438   1.62242   1.62544   1.63524
 Alpha virt. eigenvalues --    1.64249   1.65868   1.66398   1.67298   1.68139
 Alpha virt. eigenvalues --    1.68390   1.68876   1.69322   1.69836   1.70170
 Alpha virt. eigenvalues --    1.71199   1.71429   1.72191   1.72801   1.73850
 Alpha virt. eigenvalues --    1.74351   1.75344   1.76368   1.76611   1.77641
 Alpha virt. eigenvalues --    1.78130   1.79279   1.79588   1.80679   1.80792
 Alpha virt. eigenvalues --    1.82374   1.82807   1.82970   1.83886   1.85218
 Alpha virt. eigenvalues --    1.85611   1.85756   1.86388   1.87911   1.88376
 Alpha virt. eigenvalues --    1.89204   1.89731   1.90420   1.91449   1.92552
 Alpha virt. eigenvalues --    1.93018   1.93555   1.94667   1.95217   1.95856
 Alpha virt. eigenvalues --    1.96475   1.97436   1.98331   1.99309   1.99685
 Alpha virt. eigenvalues --    2.00895   2.01479   2.02234   2.02492   2.03265
 Alpha virt. eigenvalues --    2.03743   2.05468   2.06177   2.07784   2.08746
 Alpha virt. eigenvalues --    2.10687   2.12292   2.13604   2.14135   2.14611
 Alpha virt. eigenvalues --    2.15572   2.15788   2.17594   2.18270   2.18597
 Alpha virt. eigenvalues --    2.19805   2.21159   2.23116   2.24358   2.25251
 Alpha virt. eigenvalues --    2.26477   2.26710   2.27983   2.28932   2.30028
 Alpha virt. eigenvalues --    2.31138   2.31198   2.32582   2.32913   2.33438
 Alpha virt. eigenvalues --    2.34418   2.36140   2.36255   2.37825   2.39676
 Alpha virt. eigenvalues --    2.39827   2.41340   2.42077   2.44728   2.45345
 Alpha virt. eigenvalues --    2.45838   2.47216   2.48742   2.49880   2.51681
 Alpha virt. eigenvalues --    2.52950   2.54545   2.55283   2.55904   2.58469
 Alpha virt. eigenvalues --    2.59267   2.59319   2.60374   2.60770   2.62136
 Alpha virt. eigenvalues --    2.63820   2.64636   2.68188   2.69403   2.70000
 Alpha virt. eigenvalues --    2.71053   2.75493   2.77593   2.82458   2.83752
 Alpha virt. eigenvalues --    2.88492   2.90255   2.92699   2.93953   2.97801
 Alpha virt. eigenvalues --    3.00861   3.05225   3.06936   3.11955   3.73386
 Alpha virt. eigenvalues --    3.75665   3.76488   3.90568   3.93458   3.96309
 Alpha virt. eigenvalues --    4.00761   4.03936   4.05938   4.07891   4.11373
 Alpha virt. eigenvalues --    4.12057   4.13827   4.16644   4.18266   4.20654
 Alpha virt. eigenvalues --    4.22569   4.26148   4.27567   4.29417   4.34842
 Alpha virt. eigenvalues --    4.41830   4.43829   4.46121   4.47703   4.52236
 Alpha virt. eigenvalues --    4.55870   4.57802   4.62441
          Condensed to atoms (all electrons):
 Mulliken charges:
               1
     1  N   -0.751216
     2  H    0.326958
     3  H    0.333266
     4  C   -0.236351
     5  H    0.188362
     6  H    0.192301
     7  C    0.600465
     8  O   -0.548383
     9  N   -0.591354
    10  H    0.374922
    11  C   -0.066176
    12  H    0.185784
    13  C    0.628904
    14  C   -0.278394
    15  H    0.167291
    16  H    0.097994
    17  O   -0.586777
    18  C   -0.079897
    19  H    0.133670
    20  C   -0.444368
    21  H    0.137336
    22  H    0.164240
    23  H    0.151016
    24  C   -0.455202
    25  H    0.136302
    26  H    0.154669
    27  H    0.166090
    28  N   -0.629902
    29  H    0.408321
    30  C   -0.017980
    31  H    0.163103
    32  C    0.668798
    33  C   -0.126467
    34  H    0.165236
    35  O   -0.599833
    36  C   -0.452896
    37  H    0.161931
    38  H    0.168403
    39  H    0.159616
    40  C   -0.472244
    41  H    0.163628
    42  H    0.175678
    43  H    0.144389
    44  N   -0.585375
    45  H    0.360188
    46  C   -0.077135
    47  H    0.213434
    48  C    0.601295
    49  C   -0.270876
    50  H    0.159527
    51  H    0.189202
    52  O   -0.434692
    53  C   -0.302044
    54  H    0.166340
    55  H    0.169760
    56  C   -0.293414
    57  H    0.185970
    58  H    0.174406
    59  C   -0.180488
    60  H    0.203487
    61  H    0.201850
    62  N   -0.803919
    63  H    0.444554
    64  H    0.393729
    65  H    0.446308
    66  O   -0.576881
    67  H    0.433541
 Sum of Mulliken charges =   1.00000
 Mulliken charges with hydrogens summed into heavy atoms:
               1
     1  N   -0.090992
     4  C    0.144312
     7  C    0.600465
     8  O   -0.548383
     9  N   -0.216433
    11  C    0.119608
    13  C    0.628904
    14  C   -0.013108
    17  O   -0.586777
    18  C    0.053772
    20  C    0.008224
    24  C    0.001859
    28  N   -0.221581
    30  C    0.145123
    32  C    0.668798
    33  C    0.038769
    35  O   -0.599833
    36  C    0.037055
    40  C    0.011451
    44  N   -0.225187
    46  C    0.136298
    48  C    0.601295
    49  C    0.077853
    52  O   -0.434692
    53  C    0.034057
    56  C    0.066963
    59  C    0.224848
    62  N    0.480672
    66  O   -0.143339
 Electronic spatial extent (au):  <R**2>=          16352.5746
 Charge=              1.0000 electrons
 Dipole moment (field-independent basis, Debye):
    X=             -1.5800    Y=              7.5709    Z=             -6.0391  Tot=              9.8125
 Quadrupole moment (field-independent basis, Debye-Ang):
   XX=           -114.5321   YY=           -159.8413   ZZ=           -110.4384
   XY=             -2.9713   XZ=             -4.3280   YZ=            -20.2973
 Traceless Quadrupole moment (field-independent basis, Debye-Ang):
   XX=             13.7385   YY=            -31.5706   ZZ=             17.8322
   XY=             -2.9713   XZ=             -4.3280   YZ=            -20.2973
 Octapole moment (field-independent basis, Debye-Ang**2):
  XXX=           -173.5363  YYY=           -466.9783  ZZZ=            372.6501  XYY=             -4.7917
  XXY=           -113.4808  XXZ=            298.4726  XZZ=           -126.3347  YZZ=            -45.4258
  YYZ=            119.4567  XYZ=            -17.6107
 Hexadecapole moment (field-independent basis, Debye-Ang**3):
 XXXX=         -10560.4429 YYYY=          -3134.8465 ZZZZ=          -4209.5319 XXXY=           -287.6333
 XXXZ=           1466.1587 YYYX=            -39.2273 YYYZ=           1260.5424 ZZZX=           1010.1544
 ZZZY=            999.9296 XXYY=          -2452.5060 XXZZ=          -2843.4864 YYZZ=          -1190.3627
 XXYZ=            573.1718 YYXZ=            354.3474 ZZXY=            -67.3280
 N-N= 3.171282927277D+03 E-N=-9.570133788599D+03  KE= 1.383643648153D+03
 Unable to Open any file for archive entry.
 1\1\GINC-AMR-098\SP\RB3LYP\6-31G(d)\C19H38N5O5(1+)\KENGMITH\02-Jun-202
 2\0\\# B3LYP/6-31G* empiricaldispersion=gd3 guess=read geom=check nosy
 mm integral(ultrafinegrid)\\Candidate Structure: Conf:950 Charge calc 
 in gas phase\\1,1\N,0,-4.2812634572,1.1678218799,3.0388487332\H,0,-5.2
 209730997,0.8787198852,2.7767836265\H,0,-4.3464475284,1.5674198951,3.9
 708570373\C,0,-3.3642780669,0.0240383332,3.0194259015\H,0,-3.814617731
 6,-0.9459449896,3.2694865747\H,0,-2.5619756937,0.1898770891,3.74774171
 29\C,0,-2.6874870116,-0.1425422949,1.6594165944\O,0,-2.0695027321,-1.1
 728064386,1.3634945496\N,0,-2.7933461859,0.9278306464,0.8395935215\H,0
 ,-3.3238717188,1.7101525497,1.2174660445\C,0,-2.3593449162,0.904192638
 ,-0.5527629748\H,0,-2.542819624,-0.1126595868,-0.9213862935\C,0,-0.832
 0283868,1.1399256661,-0.6393811266\C,0,-3.1399240397,1.9196823443,-1.3
 902936374\H,0,-2.8484926882,2.931141789,-1.0827226704\H,0,-2.810233193
 ,1.8164220289,-2.4348572056\O,0,-0.335378634,2.1620201289,-1.154532219
 6\C,0,-4.6729280066,1.7682880043,-1.3467394303\H,0,-5.0061968259,1.947
 4448121,-0.3145479169\C,0,-5.3202958828,2.8386913136,-2.2368226489\H,0
 ,-5.042705857,2.692079397,-3.2890310657\H,0,-6.4124959462,2.7918356904
 ,-2.1745617575\H,0,-5.0092314135,3.8482590651,-1.9440048437\C,0,-5.132
 9913159,0.3614854984,-1.7538248801\H,0,-4.7719637045,0.1068909784,-2.7
 594267453\H,0,-4.7762102665,-0.4087483844,-1.0609867385\H,0,-6.2262862
 579,0.3031205316,-1.7738190448\N,0,-0.0968453784,0.1436335547,-0.12741
 61826\H,0,-0.6169677777,-0.6050635363,0.3457248506\C,0,1.3458809432,0.
 1991290328,0.0437971574\H,0,1.5818125947,1.0025025792,0.7557713809\C,0
 ,2.0516039173,0.5225626096,-1.2812110262\C,0,1.8368774151,-1.150939760
 1,0.6462366689\H,0,1.2032600431,-1.3081389424,1.5309841381\O,0,1.64009
 31143,0.1207461267,-2.3805320631\C,0,1.6301882342,-2.3330695319,-0.311
 7892189\H,0,2.2564858741,-2.2344129625,-1.2044829204\H,0,1.897874337,-
 3.2676454488,0.1907728363\H,0,0.5902829243,-2.4170966601,-0.6429313024
 \C,0,3.291895714,-1.0633536504,1.1255915351\H,0,3.9916640761,-0.941613
 1045,0.2922714983\H,0,3.5636069824,-1.9825742128,1.6535031645\H,0,3.44
 16662566,-0.2277698923,1.8209774553\N,0,3.1905053047,1.2324998721,-1.1
 44987306\H,0,3.4976424341,1.4878767728,-0.2156957454\C,0,4.068756646,1
 .5730815001,-2.2553401507\H,0,3.8395547096,0.8747596136,-3.0644615974\
 C,0,5.544379277,1.3643978764,-1.9241580535\C,0,3.8601457449,3.02844754
 28,-2.7424016714\H,0,4.111594246,3.7083593811,-1.9190810101\H,0,4.5812
 331178,3.217304569,-3.5450084098\O,0,6.4236315764,1.524376941,-2.73379
 39816\C,0,2.425612036,3.3071903869,-3.2114472712\H,0,2.2979491324,4.38
 86675207,-3.3402050238\H,0,1.733633322,3.0136509968,-2.4132050964\C,0,
 2.0834769532,2.6009393326,-4.5345401354\H,0,2.5590263707,3.1260154477,
 -5.3708793598\H,0,2.4824126571,1.5802466388,-4.545269629\C,0,0.5894835
 794,2.5165708373,-4.8323697981\H,0,0.1023029506,3.4953091974,-4.816139
 1188\H,0,0.411049149,2.0543491929,-5.8062149702\N,0,-0.1065593636,1.65
 6670181,-3.8009237244\H,0,-0.312339308,2.1503047855,-2.9010829042\H,0,
 -0.9882441465,1.2766682597,-4.1526841858\H,0,0.5056514657,0.8734375821
 ,-3.4723282525\O,0,5.7556265604,1.0176890892,-0.6324476846\H,0,6.72115
 93594,0.9281276215,-0.5129579485\\Version=ES64L-G16RevC.01\HF=-1396.76
 68066\RMSD=9.139e-10\Dipole=-1.0774413,1.1397056,-0.4455697\Quadrupole
 =10.2142251,-23.4720023,13.2577772,-2.2091046,-3.2177329,-15.0905376\P
 G=C01 [X(C19H38N5O5)]\\@
 The archive entry for this job was punched.


 Ideas are like rabbits. You get a couple and learn
 how to handle them, and pretty soon you have a dozen.
                                    -- John Steinbeck
 Job cpu time:       0 days  0 hours  2 minutes 24.2 seconds.
 Elapsed time:       0 days  0 hours  0 minutes 38.2 seconds.
 File lengths (MBytes):  RWF=    256 Int=      0 D2E=      0 Chk=     40 Scr=     16
 Normal termination of Gaussian 16 at Thu Jun  2 03:31:03 2022.
