 Entering Gaussian System, Link 0=/opt/software/Gaussian/g16-AVX2-C.01/g16/g16
 Input=charge-conf-605.com
 Output=charge-conf-605.log
 Initial command:
 /opt/software/Gaussian/g16-AVX2-C.01/g16/l1.exe "/mnt/gs18/scratch/users/kengmith/Gau-37241.inp" -scrdir="/mnt/gs18/scratch/users/kengmith/"
 Entering Link 1 = /opt/software/Gaussian/g16-AVX2-C.01/g16/l1.exe PID=     37251.
  
 Copyright (c) 1988-2019, Gaussian, Inc.  All Rights Reserved.
  
 This is part of the Gaussian(R) 16 program.  It is based on
 the Gaussian(R) 09 system (copyright 2009, Gaussian, Inc.),
 the Gaussian(R) 03 system (copyright 2003, Gaussian, Inc.),
 the Gaussian(R) 98 system (copyright 1998, Gaussian, Inc.),
 the Gaussian(R) 94 system (copyright 1995, Gaussian, Inc.),
 the Gaussian 92(TM) system (copyright 1992, Gaussian, Inc.),
 the Gaussian 90(TM) system (copyright 1990, Gaussian, Inc.),
 the Gaussian 88(TM) system (copyright 1988, Gaussian, Inc.),
 the Gaussian 86(TM) system (copyright 1986, Carnegie Mellon
 University), and the Gaussian 82(TM) system (copyright 1983,
 Carnegie Mellon University). Gaussian is a federally registered
 trademark of Gaussian, Inc.
  
 This software contains proprietary and confidential information,
 including trade secrets, belonging to Gaussian, Inc.
  
 This software is provided under written license and may be
 used, copied, transmitted, or stored only in accord with that
 written license.
  
 The following legend is applicable only to US Government
 contracts under FAR:
  
                    RESTRICTED RIGHTS LEGEND
  
 Use, reproduction and disclosure by the US Government is
 subject to restrictions as set forth in subparagraphs (a)
 and (c) of the Commercial Computer Software - Restricted
 Rights clause in FAR 52.227-19.
  
 Gaussian, Inc.
 340 Quinnipiac St., Bldg. 40, Wallingford CT 06492
  
  
 ---------------------------------------------------------------
 Warning -- This program may not be used in any manner that
 competes with the business of Gaussian, Inc. or will provide
 assistance to any competitor of Gaussian, Inc.  The licensee
 of this program is prohibited from giving any competitor of
 Gaussian, Inc. access to this program.  By using this program,
 the user acknowledges that Gaussian, Inc. is engaged in the
 business of creating and licensing software in the field of
 computational chemistry and represents and warrants to the
 licensee that it is not a competitor of Gaussian, Inc. and that
 it will not use this program in any manner prohibited above.
 ---------------------------------------------------------------
  

 Cite this work as:
 Gaussian 16, Revision C.01,
 M. J. Frisch, G. W. Trucks, H. B. Schlegel, G. E. Scuseria, 
 M. A. Robb, J. R. Cheeseman, G. Scalmani, V. Barone, 
 G. A. Petersson, H. Nakatsuji, X. Li, M. Caricato, A. V. Marenich, 
 J. Bloino, B. G. Janesko, R. Gomperts, B. Mennucci, H. P. Hratchian, 
 J. V. Ortiz, A. F. Izmaylov, J. L. Sonnenberg, D. Williams-Young, 
 F. Ding, F. Lipparini, F. Egidi, J. Goings, B. Peng, A. Petrone, 
 T. Henderson, D. Ranasinghe, V. G. Zakrzewski, J. Gao, N. Rega, 
 G. Zheng, W. Liang, M. Hada, M. Ehara, K. Toyota, R. Fukuda, 
 J. Hasegawa, M. Ishida, T. Nakajima, Y. Honda, O. Kitao, H. Nakai, 
 T. Vreven, K. Throssell, J. A. Montgomery, Jr., J. E. Peralta, 
 F. Ogliaro, M. J. Bearpark, J. J. Heyd, E. N. Brothers, K. N. Kudin, 
 V. N. Staroverov, T. A. Keith, R. Kobayashi, J. Normand, 
 K. Raghavachari, A. P. Rendell, J. C. Burant, S. S. Iyengar, 
 J. Tomasi, M. Cossi, J. M. Millam, M. Klene, C. Adamo, R. Cammi, 
 J. W. Ochterski, R. L. Martin, K. Morokuma, O. Farkas, 
 J. B. Foresman, and D. J. Fox, Gaussian, Inc., Wallingford CT, 2019.
 
 ******************************************
 Gaussian 16:  ES64L-G16RevC.01  3-Jul-2019
                 2-Jun-2022 
 ******************************************
 %mem=8gb
 %nproc=4
 Will use up to    4 processors via shared memory.
 %chk=conf-605.chk
 ----------------------------------------------------------------------
 # B3LYP/6-31G* empiricaldispersion=gd3 guess=read geom=check nosymm in
 tegral(ultrafinegrid)
 ----------------------------------------------------------------------
 1/29=2,38=1,172=1/1;
 2/12=2,15=1,40=1/2;
 3/5=1,6=6,7=1,11=2,14=-4,25=1,30=1,74=-5,75=-5,116=-2,124=31/1,2,3;
 4/5=1/1;
 5/5=2,38=6/2;
 6/7=2,8=2,9=2,10=2,28=1/1;
 99/5=1,9=1/99;
 ------------------------------------------------------
 Candidate Structure: Conf:605 Charge calc in gas phase
 ------------------------------------------------------
 Structure from the checkpoint file:  "conf-605.chk"
 Charge =  1 Multiplicity = 1
 Redundant internal coordinates found in file.  (old form).
 N,0,-2.229573429,4.0315220528,2.6662465596
 H,0,-2.3603768999,5.0124781927,2.8982526673
 H,0,-1.6685333666,3.6268621404,3.4130083566
 C,0,-3.5189777272,3.3440499341,2.5619337641
 H,0,-4.2330645263,4.0068930491,2.0586694026
 H,0,-3.9819313246,3.0528849869,3.5152309794
 C,0,-3.4340003558,2.0705601578,1.7150467193
 O,0,-4.3172995854,1.2178462551,1.7445918548
 N,0,-2.3337954834,1.9999882519,0.9163855562
 H,0,-1.612077309,2.703080431,1.0659618717
 C,0,-1.9891936635,0.80172739,0.1886105165
 H,0,-2.5298766922,-0.0344887044,0.6453213635
 C,0,-0.4738710412,0.5789983026,0.310996673
 C,0,-2.3667553026,0.8936212344,-1.3129625806
 H,0,-1.8140413947,1.7472159484,-1.7328334836
 H,0,-2.0017737818,-0.0103850835,-1.8266799893
 O,0,0.2914547989,1.5081087049,0.5729497896
 C,0,-3.8725617042,1.0566208433,-1.5864996182
 H,0,-4.2254139685,1.9235642403,-1.015564619
 C,0,-4.1141233078,1.3482293617,-3.0776971404
 H,0,-3.8371895014,0.4613278568,-3.6717355246
 H,0,-5.169975394,1.5567301739,-3.2786720677
 H,0,-3.5285866171,2.2234416434,-3.4068757682
 C,0,-4.6852935989,-0.1709381364,-1.152693272
 H,0,-4.3037092951,-1.0840691545,-1.6313985768
 H,0,-4.654125413,-0.2893153041,-0.0678464406
 H,0,-5.7376315876,-0.0595395317,-1.4370714892
 N,0,-0.0506832445,-0.6826828546,0.0515298885
 H,0,-0.7351217016,-1.3990687009,-0.1459125305
 C,0,1.3641104553,-1.0775243616,0.0705269039
 H,0,1.8305567554,-0.5102874858,0.8836387486
 C,0,2.0184854663,-0.6262669212,-1.2565000727
 C,0,1.529311613,-2.5842436817,0.3619792441
 H,0,2.5872907151,-2.8009298217,0.1693886662
 O,0,2.1908261285,-1.3696741753,-2.2208269173
 C,0,1.2281457108,-2.8757303351,1.8395290533
 H,0,0.1894617432,-2.624895145,2.0880512882
 H,0,1.3741879534,-3.9384270023,2.0591059143
 H,0,1.8801397131,-2.3004128221,2.506375711
 C,0,0.6995144414,-3.495014584,-0.5599050288
 H,0,-0.3775892106,-3.4236601531,-0.3476456422
 H,0,0.9724534372,-4.5408109327,-0.3855786688
 H,0,0.877152724,-3.259949437,-1.6106520838
 N,0,2.339559436,0.6944920937,-1.2705203969
 H,0,2.0926090615,1.2754065538,-0.472828015
 C,0,2.8755974424,1.3492792535,-2.4423331343
 H,0,3.429806465,0.6070368086,-3.0248406665
 C,0,3.8338428917,2.4470205071,-1.9920396016
 C,0,1.7687807677,1.9697341585,-3.3307561388
 H,0,1.2111793932,2.6973718507,-2.7250759949
 H,0,2.2435368434,2.5195668753,-4.1520307931
 O,0,3.9012262905,2.8883275319,-0.8693203031
 C,0,0.8082136815,0.9135608125,-3.8868476883
 H,0,0.37364998,0.3385506578,-3.0632110426
 H,0,1.3641231826,0.1964058976,-4.5023834675
 C,0,-0.3292224232,1.5490258329,-4.7002752087
 H,0,-0.9259092268,2.1974586543,-4.0439809664
 H,0,0.0796962246,2.1789536195,-5.5025919517
 C,0,-1.2169406599,0.4666574329,-5.2976583375
 H,0,-0.7013730233,-0.1245361321,-6.0580335627
 H,0,-1.6161899785,-0.2041224803,-4.5331356402
 N,0,-2.4358236256,1.0880578199,-5.9794520386
 H,0,-3.0133739114,0.3882210154,-6.4602912318
 H,0,-3.0299865728,1.5466232117,-5.2728841561
 H,0,-2.1550636518,1.7944394814,-6.6698664048
 O,0,4.5695870425,2.8992527319,-3.0302871857
 H,0,5.1427117728,3.6117096287,-2.687332971
 Recover connectivity data from disk.
                           ----------------------------
                           !    Current Parameters    !
                           ! (Angstroms and Degrees)  !
 --------------------------                            --------------------------
 ! Name  Definition              Value                                          !
 --------------------------------------------------------------------------------
 ! R1    R(1,2)                  1.0165                                         !
 ! R2    R(1,3)                  1.0179                                         !
 ! R3    R(1,4)                  1.4649                                         !
 ! R4    R(4,5)                  1.0966                                         !
 ! R5    R(4,6)                  1.099                                          !
 ! R6    R(4,7)                  1.5317                                         !
 ! R7    R(7,8)                  1.2281                                         !
 ! R8    R(7,9)                  1.3614                                         !
 ! R9    R(9,10)                 1.0186                                         !
 ! R10   R(9,11)                 1.4437                                         !
 ! R11   R(11,12)                1.0955                                         !
 ! R12   R(11,13)                1.5365                                         !
 ! R13   R(11,14)                1.551                                          !
 ! R14   R(13,17)                1.2319                                         !
 ! R15   R(13,28)                1.3558                                         !
 ! R16   R(14,15)                1.1002                                         !
 ! R17   R(14,16)                1.102                                          !
 ! R18   R(14,18)                1.5391                                         !
 ! R19   R(18,19)                1.0964                                         !
 ! R20   R(18,20)                1.5385                                         !
 ! R21   R(18,24)                1.5348                                         !
 ! R22   R(20,21)                1.1028                                         !
 ! R23   R(20,22)                1.0948                                         !
 ! R24   R(20,23)                1.1033                                         !
 ! R25   R(24,25)                1.0994                                         !
 ! R26   R(24,26)                1.0917                                         !
 ! R27   R(24,27)                1.0958                                         !
 ! R28   R(28,29)                1.0103                                         !
 ! R29   R(28,30)                1.469                                          !
 ! R30   R(30,31)                1.0957                                         !
 ! R31   R(30,32)                1.5469                                         !
 ! R32   R(30,33)                1.5435                                         !
 ! R33   R(32,35)                1.2297                                         !
 ! R34   R(32,44)                1.3593                                         !
 ! R35   R(33,34)                1.097                                          !
 ! R36   R(33,36)                1.5358                                         !
 ! R37   R(33,40)                1.5388                                         !
 ! R38   R(36,37)                1.0971                                         !
 ! R39   R(36,38)                1.0949                                         !
 ! R40   R(36,39)                1.0958                                         !
 ! R41   R(40,41)                1.1001                                         !
 ! R42   R(40,42)                1.0948                                         !
 ! R43   R(40,43)                1.0913                                         !
 ! R44   R(44,45)                1.0172                                         !
 ! R45   R(44,46)                1.4454                                         !
 ! R46   R(46,47)                1.0943                                         !
 ! R47   R(46,48)                1.5251                                         !
 ! R48   R(46,49)                1.549                                          !
 ! R49   R(48,52)                1.2082                                         !
 ! R50   R(48,66)                1.3505                                         !
 ! R51   R(49,50)                1.0987                                         !
 ! R52   R(49,51)                1.0964                                         !
 ! R53   R(49,53)                1.5321                                         !
 ! R54   R(53,54)                1.0945                                         !
 ! R55   R(53,55)                1.0965                                         !
 ! R56   R(53,56)                1.536                                          !
 ! R57   R(56,57)                1.0987                                         !
 ! R58   R(56,58)                1.099                                          !
 ! R59   R(56,59)                1.522                                          !
 ! R60   R(59,60)                1.0925                                         !
 ! R61   R(59,61)                1.0926                                         !
 ! R62   R(59,62)                1.5286                                         !
 ! R63   R(62,63)                1.0269                                         !
 ! R64   R(62,64)                1.0308                                         !
 ! R65   R(62,65)                1.0269                                         !
 ! R66   R(66,67)                0.9766                                         !
 ! A1    A(2,1,3)              106.686                                          !
 ! A2    A(2,1,4)              110.847                                          !
 ! A3    A(3,1,4)              110.5362                                         !
 ! A4    A(1,4,5)              108.7942                                         !
 ! A5    A(1,4,6)              115.6786                                         !
 ! A6    A(1,4,7)              112.3772                                         !
 ! A7    A(5,4,6)              106.4935                                         !
 ! A8    A(5,4,7)              106.5545                                         !
 ! A9    A(6,4,7)              106.4205                                         !
 ! A10   A(4,7,8)              121.6059                                         !
 ! A11   A(4,7,9)              114.3493                                         !
 ! A12   A(8,7,9)              124.0137                                         !
 ! A13   A(7,9,10)             116.7872                                         !
 ! A14   A(7,9,11)             122.1188                                         !
 ! A15   A(10,9,11)            118.5419                                         !
 ! A16   A(9,11,12)            107.7929                                         !
 ! A17   A(9,11,13)            108.3953                                         !
 ! A18   A(9,11,14)            112.3803                                         !
 ! A19   A(12,11,13)           110.0527                                         !
 ! A20   A(12,11,14)           109.1884                                         !
 ! A21   A(13,11,14)           109.0125                                         !
 ! A22   A(11,13,17)           121.3527                                         !
 ! A23   A(11,13,28)           115.3077                                         !
 ! A24   A(17,13,28)           123.2726                                         !
 ! A25   A(11,14,15)           107.0461                                         !
 ! A26   A(11,14,16)           108.7891                                         !
 ! A27   A(11,14,18)           114.6132                                         !
 ! A28   A(15,14,16)           106.9884                                         !
 ! A29   A(15,14,18)           109.9694                                         !
 ! A30   A(16,14,18)           109.1517                                         !
 ! A31   A(14,18,19)           107.8221                                         !
 ! A32   A(14,18,20)           110.2393                                         !
 ! A33   A(14,18,24)           112.5283                                         !
 ! A34   A(19,18,20)           107.7173                                         !
 ! A35   A(19,18,24)           108.3505                                         !
 ! A36   A(20,18,24)           110.0235                                         !
 ! A37   A(18,20,21)           109.283                                          !
 ! A38   A(18,20,22)           111.434                                          !
 ! A39   A(18,20,23)           110.8681                                         !
 ! A40   A(21,20,22)           107.2446                                         !
 ! A41   A(21,20,23)           110.1201                                         !
 ! A42   A(22,20,23)           107.8173                                         !
 ! A43   A(18,24,25)           110.944                                          !
 ! A44   A(18,24,26)           110.6385                                         !
 ! A45   A(18,24,27)           110.7251                                         !
 ! A46   A(25,24,26)           109.4342                                         !
 ! A47   A(25,24,27)           107.7448                                         !
 ! A48   A(26,24,27)           107.2373                                         !
 ! A49   A(13,28,29)           119.0654                                         !
 ! A50   A(13,28,30)           123.2478                                         !
 ! A51   A(29,28,30)           117.6727                                         !
 ! A52   A(28,30,31)           106.2877                                         !
 ! A53   A(28,30,32)           108.5372                                         !
 ! A54   A(28,30,33)           111.5863                                         !
 ! A55   A(31,30,32)           107.7897                                         !
 ! A56   A(31,30,33)           108.6433                                         !
 ! A57   A(32,30,33)           113.6705                                         !
 ! A58   A(30,32,35)           123.7554                                         !
 ! A59   A(30,32,44)           113.0927                                         !
 ! A60   A(35,32,44)           123.106                                          !
 ! A61   A(30,33,34)           105.2419                                         !
 ! A62   A(30,33,36)           110.2388                                         !
 ! A63   A(30,33,40)           114.0115                                         !
 ! A64   A(34,33,36)           108.6951                                         !
 ! A65   A(34,33,40)           107.3366                                         !
 ! A66   A(36,33,40)           110.9945                                         !
 ! A67   A(33,36,37)           111.1124                                         !
 ! A68   A(33,36,38)           110.547                                          !
 ! A69   A(33,36,39)           111.6622                                         !
 ! A70   A(37,36,38)           107.6238                                         !
 ! A71   A(37,36,39)           107.7843                                         !
 ! A72   A(38,36,39)           107.9488                                         !
 ! A73   A(33,40,41)           111.9613                                         !
 ! A74   A(33,40,42)           109.6057                                         !
 ! A75   A(33,40,43)           111.1967                                         !
 ! A76   A(41,40,42)           105.9812                                         !
 ! A77   A(41,40,43)           109.3401                                         !
 ! A78   A(42,40,43)           108.5722                                         !
 ! A79   A(32,44,45)           119.3046                                         !
 ! A80   A(32,44,46)           122.4203                                         !
 ! A81   A(45,44,46)           117.8444                                         !
 ! A82   A(44,46,47)           108.1867                                         !
 ! A83   A(44,46,48)           108.6453                                         !
 ! A84   A(44,46,49)           112.4237                                         !
 ! A85   A(47,46,48)           109.0976                                         !
 ! A86   A(47,46,49)           109.1644                                         !
 ! A87   A(48,46,49)           109.2679                                         !
 ! A88   A(46,48,52)           124.9104                                         !
 ! A89   A(46,48,66)           110.8756                                         !
 ! A90   A(52,48,66)           124.1734                                         !
 ! A91   A(46,49,50)           108.1632                                         !
 ! A92   A(46,49,51)           108.7285                                         !
 ! A93   A(46,49,53)           112.3359                                         !
 ! A94   A(50,49,51)           107.4906                                         !
 ! A95   A(50,49,53)           109.7811                                         !
 ! A96   A(51,49,53)           110.1993                                         !
 ! A97   A(49,53,54)           109.7528                                         !
 ! A98   A(49,53,55)           109.6801                                         !
 ! A99   A(49,53,56)           111.7951                                         !
 ! A100  A(54,53,55)           106.2688                                         !
 ! A101  A(54,53,56)           108.7757                                         !
 ! A102  A(55,53,56)           110.4108                                         !
 ! A103  A(53,56,57)           109.2681                                         !
 ! A104  A(53,56,58)           110.3788                                         !
 ! A105  A(53,56,59)           110.2164                                         !
 ! A106  A(57,56,58)           107.4498                                         !
 ! A107  A(57,56,59)           109.7183                                         !
 ! A108  A(58,56,59)           109.7618                                         !
 ! A109  A(56,59,60)           112.5056                                         !
 ! A110  A(56,59,61)           112.029                                          !
 ! A111  A(56,59,62)           110.5517                                         !
 ! A112  A(60,59,61)           109.1007                                         !
 ! A113  A(60,59,62)           106.6099                                         !
 ! A114  A(61,59,62)           105.6812                                         !
 ! A115  A(59,62,63)           112.3501                                         !
 ! A116  A(59,62,64)           109.5562                                         !
 ! A117  A(59,62,65)           111.1926                                         !
 ! A118  A(63,62,64)           107.4545                                         !
 ! A119  A(63,62,65)           107.9238                                         !
 ! A120  A(64,62,65)           108.2064                                         !
 ! A121  A(48,66,67)           107.1003                                         !
 ! D1    D(2,1,4,5)             40.0701                                         !
 ! D2    D(2,1,4,6)            -79.6911                                         !
 ! D3    D(2,1,4,7)            157.8187                                         !
 ! D4    D(3,1,4,5)            158.1525                                         !
 ! D5    D(3,1,4,6)             38.3913                                         !
 ! D6    D(3,1,4,7)            -84.0989                                         !
 ! D7    D(1,4,7,8)            164.1698                                         !
 ! D8    D(1,4,7,9)            -17.7839                                         !
 ! D9    D(5,4,7,8)            -76.7621                                         !
 ! D10   D(5,4,7,9)            101.2843                                         !
 ! D11   D(6,4,7,8)             36.5899                                         !
 ! D12   D(6,4,7,9)           -145.3638                                         !
 ! D13   D(4,7,9,10)             9.7384                                         !
 ! D14   D(4,7,9,11)           171.3407                                         !
 ! D15   D(8,7,9,10)          -172.2689                                         !
 ! D16   D(8,7,9,11)           -10.6666                                         !
 ! D17   D(7,9,11,12)          -18.145                                          !
 ! D18   D(7,9,11,13)         -137.2381                                         !
 ! D19   D(7,9,11,14)          102.2165                                         !
 ! D20   D(10,9,11,12)         143.1486                                         !
 ! D21   D(10,9,11,13)          24.0555                                         !
 ! D22   D(10,9,11,14)         -96.49                                           !
 ! D23   D(9,11,13,17)         -22.421                                          !
 ! D24   D(9,11,13,28)         160.4636                                         !
 ! D25   D(12,11,13,17)       -140.0798                                         !
 ! D26   D(12,11,13,28)         42.8048                                         !
 ! D27   D(14,11,13,17)        100.1946                                         !
 ! D28   D(14,11,13,28)        -76.9208                                         !
 ! D29   D(9,11,14,15)          59.9064                                         !
 ! D30   D(9,11,14,16)         175.1912                                         !
 ! D31   D(9,11,14,18)         -62.3273                                         !
 ! D32   D(12,11,14,15)        179.4581                                         !
 ! D33   D(12,11,14,16)        -65.2571                                         !
 ! D34   D(12,11,14,18)         57.2244                                         !
 ! D35   D(13,11,14,15)        -60.2825                                         !
 ! D36   D(13,11,14,16)         55.0024                                         !
 ! D37   D(13,11,14,18)        177.4839                                         !
 ! D38   D(11,13,28,29)         -3.6248                                         !
 ! D39   D(11,13,28,30)        177.7706                                         !
 ! D40   D(17,13,28,29)        179.3217                                         !
 ! D41   D(17,13,28,30)          0.717                                          !
 ! D42   D(11,14,18,19)         54.1894                                         !
 ! D43   D(11,14,18,20)        171.527                                          !
 ! D44   D(11,14,18,24)        -65.2413                                         !
 ! D45   D(15,14,18,19)        -66.4429                                         !
 ! D46   D(15,14,18,20)         50.8947                                         !
 ! D47   D(15,14,18,24)        174.1263                                         !
 ! D48   D(16,14,18,19)        176.4743                                         !
 ! D49   D(16,14,18,20)        -66.188                                          !
 ! D50   D(16,14,18,24)         57.0436                                         !
 ! D51   D(14,18,20,21)         66.7659                                         !
 ! D52   D(14,18,20,22)       -174.8906                                         !
 ! D53   D(14,18,20,23)        -54.7943                                         !
 ! D54   D(19,18,20,21)       -175.8315                                         !
 ! D55   D(19,18,20,22)        -57.4881                                         !
 ! D56   D(19,18,20,23)         62.6083                                         !
 ! D57   D(24,18,20,21)        -57.9143                                         !
 ! D58   D(24,18,20,22)         60.4291                                         !
 ! D59   D(24,18,20,23)       -179.4745                                         !
 ! D60   D(14,18,24,25)        -55.6204                                         !
 ! D61   D(14,18,24,26)         66.0379                                         !
 ! D62   D(14,18,24,27)       -175.2068                                         !
 ! D63   D(19,18,24,25)       -174.7433                                         !
 ! D64   D(19,18,24,26)        -53.085                                          !
 ! D65   D(19,18,24,27)         65.6703                                         !
 ! D66   D(20,18,24,25)         67.7317                                         !
 ! D67   D(20,18,24,26)       -170.61                                           !
 ! D68   D(20,18,24,27)        -51.8547                                         !
 ! D69   D(13,28,30,31)         36.5741                                         !
 ! D70   D(13,28,30,32)        -79.128                                          !
 ! D71   D(13,28,30,33)        154.8531                                         !
 ! D72   D(29,28,30,31)       -142.0488                                         !
 ! D73   D(29,28,30,32)        102.2492                                         !
 ! D74   D(29,28,30,33)        -23.7698                                         !
 ! D75   D(28,30,32,35)        -98.0705                                         !
 ! D76   D(28,30,32,44)         79.5291                                         !
 ! D77   D(31,30,32,35)        147.2051                                         !
 ! D78   D(31,30,32,44)        -35.1953                                         !
 ! D79   D(33,30,32,35)         26.7262                                         !
 ! D80   D(33,30,32,44)       -155.6742                                         !
 ! D81   D(28,30,33,34)        169.7994                                         !
 ! D82   D(28,30,33,36)        -73.1652                                         !
 ! D83   D(28,30,33,40)         52.4453                                         !
 ! D84   D(31,30,33,34)        -73.3413                                         !
 ! D85   D(31,30,33,36)         43.6941                                         !
 ! D86   D(31,30,33,40)        169.3046                                         !
 ! D87   D(32,30,33,34)         46.6556                                         !
 ! D88   D(32,30,33,36)        163.691                                          !
 ! D89   D(32,30,33,40)        -70.6984                                         !
 ! D90   D(30,32,44,45)         -3.3279                                         !
 ! D91   D(30,32,44,46)       -175.6293                                         !
 ! D92   D(35,32,44,45)        174.2896                                         !
 ! D93   D(35,32,44,46)          1.9882                                         !
 ! D94   D(30,33,36,37)         62.3378                                         !
 ! D95   D(30,33,36,38)       -178.2346                                         !
 ! D96   D(30,33,36,39)        -58.0368                                         !
 ! D97   D(34,33,36,37)        177.2079                                         !
 ! D98   D(34,33,36,38)        -63.3644                                         !
 ! D99   D(34,33,36,39)         56.8333                                         !
 ! D100  D(40,33,36,37)        -64.9649                                         !
 ! D101  D(40,33,36,38)         54.4628                                         !
 ! D102  D(40,33,36,39)        174.6606                                         !
 ! D103  D(30,33,40,41)        -70.4242                                         !
 ! D104  D(30,33,40,42)        172.2683                                         !
 ! D105  D(30,33,40,43)         52.2172                                         !
 ! D106  D(34,33,40,41)        173.4364                                         !
 ! D107  D(34,33,40,42)         56.1289                                         !
 ! D108  D(34,33,40,43)        -63.9222                                         !
 ! D109  D(36,33,40,41)         54.7865                                         !
 ! D110  D(36,33,40,42)        -62.5211                                         !
 ! D111  D(36,33,40,43)        177.4278                                         !
 ! D112  D(32,44,46,47)        -29.0189                                         !
 ! D113  D(32,44,46,48)       -147.3332                                         !
 ! D114  D(32,44,46,49)         91.6033                                         !
 ! D115  D(45,44,46,47)        158.573                                          !
 ! D116  D(45,44,46,48)         40.2586                                         !
 ! D117  D(45,44,46,49)        -80.8049                                         !
 ! D118  D(44,46,48,52)        -15.1055                                         !
 ! D119  D(44,46,48,66)        167.1336                                         !
 ! D120  D(47,46,48,52)       -132.8425                                         !
 ! D121  D(47,46,48,66)         49.3966                                         !
 ! D122  D(49,46,48,52)        107.8795                                         !
 ! D123  D(49,46,48,66)        -69.8813                                         !
 ! D124  D(44,46,49,50)         58.875                                          !
 ! D125  D(44,46,49,51)        175.3127                                         !
 ! D126  D(44,46,49,53)        -62.4476                                         !
 ! D127  D(47,46,49,50)        178.9325                                         !
 ! D128  D(47,46,49,51)        -64.6298                                         !
 ! D129  D(47,46,49,53)         57.6099                                         !
 ! D130  D(48,46,49,50)        -61.8309                                         !
 ! D131  D(48,46,49,51)         54.6067                                         !
 ! D132  D(48,46,49,53)        176.8464                                         !
 ! D133  D(46,48,66,67)        178.5143                                         !
 ! D134  D(52,48,66,67)          0.7337                                         !
 ! D135  D(46,49,53,54)         56.0006                                         !
 ! D136  D(46,49,53,55)        -60.3944                                         !
 ! D137  D(46,49,53,56)        176.7914                                         !
 ! D138  D(50,49,53,54)        -64.3912                                         !
 ! D139  D(50,49,53,55)        179.2138                                         !
 ! D140  D(50,49,53,56)         56.3996                                         !
 ! D141  D(51,49,53,54)        177.4025                                         !
 ! D142  D(51,49,53,55)         61.0075                                         !
 ! D143  D(51,49,53,56)        -61.8067                                         !
 ! D144  D(49,53,56,57)        -62.4303                                         !
 ! D145  D(49,53,56,58)         55.5217                                         !
 ! D146  D(49,53,56,59)        176.9319                                         !
 ! D147  D(54,53,56,57)         58.9273                                         !
 ! D148  D(54,53,56,58)        176.8792                                         !
 ! D149  D(54,53,56,59)        -61.7106                                         !
 ! D150  D(55,53,56,57)        175.1724                                         !
 ! D151  D(55,53,56,58)        -66.8757                                         !
 ! D152  D(55,53,56,59)         54.5345                                         !
 ! D153  D(53,56,59,60)        -67.1218                                         !
 ! D154  D(53,56,59,61)         56.2277                                         !
 ! D155  D(53,56,59,62)        173.8141                                         !
 ! D156  D(57,56,59,60)        172.5108                                         !
 ! D157  D(57,56,59,61)        -64.1397                                         !
 ! D158  D(57,56,59,62)         53.4467                                         !
 ! D159  D(58,56,59,60)         54.6549                                         !
 ! D160  D(58,56,59,61)        178.0045                                         !
 ! D161  D(58,56,59,62)        -64.4091                                         !
 ! D162  D(56,59,62,63)        175.2037                                         !
 ! D163  D(56,59,62,64)        -65.4415                                         !
 ! D164  D(56,59,62,65)         54.1193                                         !
 ! D165  D(60,59,62,63)         52.627                                          !
 ! D166  D(60,59,62,64)        171.9818                                         !
 ! D167  D(60,59,62,65)        -68.4574                                         !
 ! D168  D(61,59,62,63)        -63.3763                                         !
 ! D169  D(61,59,62,64)         55.9785                                         !
 ! D170  D(61,59,62,65)        175.5393                                         !
 --------------------------------------------------------------------------------
 Symmetry turned off by external request.
 Stoichiometry    C19H38N5O5(1+)
 Framework group  C1[X(C19H38N5O5)]
 Deg. of freedom   195
 Full point group                 C1      NOp   1
                          Input orientation:                          
 ---------------------------------------------------------------------
 Center     Atomic      Atomic             Coordinates (Angstroms)
 Number     Number       Type             X           Y           Z
 ---------------------------------------------------------------------
      1          7           0       -2.229573    4.031522    2.666247
      2          1           0       -2.360377    5.012478    2.898253
      3          1           0       -1.668533    3.626862    3.413008
      4          6           0       -3.518978    3.344050    2.561934
      5          1           0       -4.233065    4.006893    2.058669
      6          1           0       -3.981931    3.052885    3.515231
      7          6           0       -3.434000    2.070560    1.715047
      8          8           0       -4.317300    1.217846    1.744592
      9          7           0       -2.333795    1.999988    0.916386
     10          1           0       -1.612077    2.703080    1.065962
     11          6           0       -1.989194    0.801727    0.188611
     12          1           0       -2.529877   -0.034489    0.645321
     13          6           0       -0.473871    0.578998    0.310997
     14          6           0       -2.366755    0.893621   -1.312963
     15          1           0       -1.814041    1.747216   -1.732833
     16          1           0       -2.001774   -0.010385   -1.826680
     17          8           0        0.291455    1.508109    0.572950
     18          6           0       -3.872562    1.056621   -1.586500
     19          1           0       -4.225414    1.923564   -1.015565
     20          6           0       -4.114123    1.348229   -3.077697
     21          1           0       -3.837190    0.461328   -3.671736
     22          1           0       -5.169975    1.556730   -3.278672
     23          1           0       -3.528587    2.223442   -3.406876
     24          6           0       -4.685294   -0.170938   -1.152693
     25          1           0       -4.303709   -1.084069   -1.631399
     26          1           0       -4.654125   -0.289315   -0.067846
     27          1           0       -5.737632   -0.059540   -1.437071
     28          7           0       -0.050683   -0.682683    0.051530
     29          1           0       -0.735122   -1.399069   -0.145913
     30          6           0        1.364110   -1.077524    0.070527
     31          1           0        1.830557   -0.510287    0.883639
     32          6           0        2.018485   -0.626267   -1.256500
     33          6           0        1.529312   -2.584244    0.361979
     34          1           0        2.587291   -2.800930    0.169389
     35          8           0        2.190826   -1.369674   -2.220827
     36          6           0        1.228146   -2.875730    1.839529
     37          1           0        0.189462   -2.624895    2.088051
     38          1           0        1.374188   -3.938427    2.059106
     39          1           0        1.880140   -2.300413    2.506376
     40          6           0        0.699514   -3.495015   -0.559905
     41          1           0       -0.377589   -3.423660   -0.347646
     42          1           0        0.972453   -4.540811   -0.385579
     43          1           0        0.877153   -3.259949   -1.610652
     44          7           0        2.339559    0.694492   -1.270520
     45          1           0        2.092609    1.275407   -0.472828
     46          6           0        2.875597    1.349279   -2.442333
     47          1           0        3.429806    0.607037   -3.024841
     48          6           0        3.833843    2.447021   -1.992040
     49          6           0        1.768781    1.969734   -3.330756
     50          1           0        1.211179    2.697372   -2.725076
     51          1           0        2.243537    2.519567   -4.152031
     52          8           0        3.901226    2.888328   -0.869320
     53          6           0        0.808214    0.913561   -3.886848
     54          1           0        0.373650    0.338551   -3.063211
     55          1           0        1.364123    0.196406   -4.502383
     56          6           0       -0.329222    1.549026   -4.700275
     57          1           0       -0.925909    2.197459   -4.043981
     58          1           0        0.079696    2.178954   -5.502592
     59          6           0       -1.216941    0.466657   -5.297658
     60          1           0       -0.701373   -0.124536   -6.058034
     61          1           0       -1.616190   -0.204122   -4.533136
     62          7           0       -2.435824    1.088058   -5.979452
     63          1           0       -3.013374    0.388221   -6.460291
     64          1           0       -3.029987    1.546623   -5.272884
     65          1           0       -2.155064    1.794439   -6.669866
     66          8           0        4.569587    2.899253   -3.030287
     67          1           0        5.142712    3.611710   -2.687333
 ---------------------------------------------------------------------
 Rotational constants (GHZ):           0.1517738           0.1080712           0.0949048
 Standard basis: 6-31G(d) (6D, 7F)
   511 basis functions,   964 primitive gaussians,   511 cartesian basis functions
   113 alpha electrons      113 beta electrons
       nuclear repulsion energy      3149.4237840443 Hartrees.
 NAtoms=   67 NActive=   67 NUniq=   67 SFac= 1.00D+00 NAtFMM=   60 NAOKFM=T Big=T
 Integral buffers will be    131072 words long.
 Raffenetti 2 integral format.
 Two-electron integral symmetry is turned off.
 Nuclear repulsion after empirical dispersion term =     3149.3384672491 Hartrees.
 One-electron integrals computed using PRISM.
 NBasis=   511 RedAO= T EigKep=  1.99D-03  NBF=   511
 NBsUse=   511 1.00D-06 EigRej= -1.00D+00 NBFU=   511
 Initial guess from the checkpoint file:  "conf-605.chk"
 B after Tr=     0.000000    0.000000    0.000000
         Rot=    1.000000    0.000000    0.000000    0.000000 Ang=   0.00 deg.
 Requested convergence on RMS density matrix=1.00D-08 within 128 cycles.
 Requested convergence on MAX density matrix=1.00D-06.
 Requested convergence on             energy=1.00D-06.
 No special actions if energy rises.
 SCF Done:  E(RB3LYP) =  -1396.71437244     A.U. after    1 cycles
            NFock=  1  Conv=0.98D-08     -V/T= 2.0095

 **********************************************************************

            Population analysis using the SCF Density.

 **********************************************************************

 Alpha  occ. eigenvalues --  -19.28367 -19.22731 -19.21423 -19.19863 -19.18178
 Alpha  occ. eigenvalues --  -14.64418 -14.45987 -14.43895 -14.42613 -14.39929
 Alpha  occ. eigenvalues --  -10.41816 -10.40764 -10.38330 -10.36956 -10.35385
 Alpha  occ. eigenvalues --  -10.34621 -10.32942 -10.32356 -10.31725 -10.30951
 Alpha  occ. eigenvalues --  -10.30830 -10.29867 -10.29459 -10.29425 -10.29015
 Alpha  occ. eigenvalues --  -10.27452 -10.25694 -10.24949 -10.24686  -1.19251
 Alpha  occ. eigenvalues --   -1.18513  -1.13417  -1.11686  -1.10414  -1.10063
 Alpha  occ. eigenvalues --   -1.02215  -1.01010  -0.99995  -0.95994  -0.95669
 Alpha  occ. eigenvalues --   -0.91490  -0.89539  -0.88361  -0.84820  -0.84270
 Alpha  occ. eigenvalues --   -0.80073  -0.79176  -0.78492  -0.77366  -0.76891
 Alpha  occ. eigenvalues --   -0.75843  -0.75578  -0.74091  -0.71356  -0.70594
 Alpha  occ. eigenvalues --   -0.68334  -0.66843  -0.66724  -0.66294  -0.65549
 Alpha  occ. eigenvalues --   -0.65246  -0.63063  -0.61776  -0.59765  -0.58728
 Alpha  occ. eigenvalues --   -0.58036  -0.57796  -0.57529  -0.56666  -0.56478
 Alpha  occ. eigenvalues --   -0.56253  -0.55857  -0.55054  -0.54229  -0.53836
 Alpha  occ. eigenvalues --   -0.53682  -0.52855  -0.52292  -0.51811  -0.51678
 Alpha  occ. eigenvalues --   -0.50725  -0.50528  -0.50103  -0.49900  -0.49015
 Alpha  occ. eigenvalues --   -0.48958  -0.48173  -0.48063  -0.47878  -0.47642
 Alpha  occ. eigenvalues --   -0.46849  -0.46375  -0.46106  -0.45532  -0.45457
 Alpha  occ. eigenvalues --   -0.44842  -0.44310  -0.43471  -0.43107  -0.42709
 Alpha  occ. eigenvalues --   -0.41841  -0.41630  -0.41130  -0.41050  -0.40444
 Alpha  occ. eigenvalues --   -0.36905  -0.36232  -0.35574  -0.33818  -0.33476
 Alpha  occ. eigenvalues --   -0.32826  -0.32196  -0.31120
 Alpha virt. eigenvalues --   -0.14703  -0.08592  -0.08161  -0.07864  -0.07518
 Alpha virt. eigenvalues --   -0.07073  -0.06187  -0.04868  -0.04211  -0.03137
 Alpha virt. eigenvalues --   -0.02515  -0.01814  -0.00545  -0.00260   0.00837
 Alpha virt. eigenvalues --    0.01397   0.01896   0.03082   0.03168   0.03610
 Alpha virt. eigenvalues --    0.04059   0.04551   0.05235   0.05827   0.06325
 Alpha virt. eigenvalues --    0.06464   0.06771   0.06968   0.07328   0.07735
 Alpha virt. eigenvalues --    0.08187   0.08346   0.08813   0.08993   0.09318
 Alpha virt. eigenvalues --    0.09500   0.09795   0.10028   0.10407   0.10629
 Alpha virt. eigenvalues --    0.11257   0.11645   0.11990   0.12748   0.13012
 Alpha virt. eigenvalues --    0.13631   0.13779   0.14105   0.14323   0.15157
 Alpha virt. eigenvalues --    0.15628   0.15910   0.16574   0.16682   0.17198
 Alpha virt. eigenvalues --    0.17538   0.17983   0.18565   0.19216   0.20391
 Alpha virt. eigenvalues --    0.21260   0.23108   0.23742   0.26265   0.27627
 Alpha virt. eigenvalues --    0.28920   0.29778   0.31551   0.32996   0.34714
 Alpha virt. eigenvalues --    0.35216   0.36362   0.36802   0.37196   0.39604
 Alpha virt. eigenvalues --    0.41057   0.41474   0.42557   0.43221   0.43461
 Alpha virt. eigenvalues --    0.43938   0.44558   0.45282   0.45795   0.46165
 Alpha virt. eigenvalues --    0.46763   0.47179   0.48031   0.48883   0.49068
 Alpha virt. eigenvalues --    0.49848   0.50207   0.50579   0.51278   0.51802
 Alpha virt. eigenvalues --    0.52404   0.53234   0.54186   0.54268   0.54805
 Alpha virt. eigenvalues --    0.56161   0.56802   0.57160   0.57597   0.57877
 Alpha virt. eigenvalues --    0.59063   0.59209   0.59671   0.60061   0.60566
 Alpha virt. eigenvalues --    0.60995   0.61804   0.62283   0.63245   0.63522
 Alpha virt. eigenvalues --    0.63654   0.64014   0.64676   0.65002   0.66007
 Alpha virt. eigenvalues --    0.67058   0.67691   0.68080   0.68817   0.69016
 Alpha virt. eigenvalues --    0.70430   0.70908   0.71033   0.71649   0.72444
 Alpha virt. eigenvalues --    0.73170   0.73834   0.74056   0.74199   0.74787
 Alpha virt. eigenvalues --    0.75240   0.75776   0.76400   0.76515   0.76804
 Alpha virt. eigenvalues --    0.77815   0.78096   0.78503   0.78945   0.79511
 Alpha virt. eigenvalues --    0.80413   0.80761   0.81378   0.81981   0.82336
 Alpha virt. eigenvalues --    0.82510   0.83000   0.83050   0.83508   0.83748
 Alpha virt. eigenvalues --    0.84117   0.84344   0.85029   0.85408   0.85729
 Alpha virt. eigenvalues --    0.86344   0.86600   0.86633   0.86941   0.87315
 Alpha virt. eigenvalues --    0.87874   0.88107   0.88327   0.89220   0.89401
 Alpha virt. eigenvalues --    0.90112   0.91365   0.92000   0.92736   0.93649
 Alpha virt. eigenvalues --    0.93965   0.94358   0.94482   0.95995   0.96983
 Alpha virt. eigenvalues --    0.97978   0.98569   0.99162   0.99459   1.00858
 Alpha virt. eigenvalues --    1.01837   1.03996   1.04587   1.05299   1.06522
 Alpha virt. eigenvalues --    1.08984   1.09411   1.10130   1.11800   1.12999
 Alpha virt. eigenvalues --    1.14305   1.15933   1.16490   1.17666   1.19482
 Alpha virt. eigenvalues --    1.20958   1.22822   1.23903   1.24754   1.25457
 Alpha virt. eigenvalues --    1.26396   1.26889   1.29704   1.30372   1.31209
 Alpha virt. eigenvalues --    1.32186   1.32811   1.34328   1.35466   1.36242
 Alpha virt. eigenvalues --    1.37248   1.37815   1.39366   1.40109   1.40346
 Alpha virt. eigenvalues --    1.42466   1.43446   1.44530   1.45999   1.46679
 Alpha virt. eigenvalues --    1.48168   1.50293   1.52848   1.52929   1.54957
 Alpha virt. eigenvalues --    1.55986   1.57082   1.58081   1.59097   1.59378
 Alpha virt. eigenvalues --    1.61085   1.61773   1.62834   1.63830   1.64871
 Alpha virt. eigenvalues --    1.66526   1.66808   1.67296   1.68077   1.68686
 Alpha virt. eigenvalues --    1.69378   1.70068   1.70553   1.70866   1.71322
 Alpha virt. eigenvalues --    1.71581   1.72184   1.72841   1.73862   1.74482
 Alpha virt. eigenvalues --    1.75282   1.76219   1.76996   1.77347   1.77469
 Alpha virt. eigenvalues --    1.78851   1.79142   1.79953   1.80920   1.81272
 Alpha virt. eigenvalues --    1.82311   1.82512   1.83258   1.84402   1.84674
 Alpha virt. eigenvalues --    1.85135   1.86626   1.87670   1.88201   1.89373
 Alpha virt. eigenvalues --    1.89848   1.90108   1.90771   1.91360   1.92244
 Alpha virt. eigenvalues --    1.92662   1.93804   1.94230   1.95252   1.95788
 Alpha virt. eigenvalues --    1.96242   1.97229   1.99260   2.00130   2.00228
 Alpha virt. eigenvalues --    2.00803   2.01868   2.02413   2.02548   2.02988
 Alpha virt. eigenvalues --    2.04291   2.04396   2.05956   2.07808   2.09721
 Alpha virt. eigenvalues --    2.10806   2.11218   2.12666   2.13341   2.15227
 Alpha virt. eigenvalues --    2.15626   2.16959   2.17862   2.18171   2.18694
 Alpha virt. eigenvalues --    2.19093   2.20134   2.21898   2.22763   2.23881
 Alpha virt. eigenvalues --    2.25276   2.26232   2.27605   2.28894   2.30448
 Alpha virt. eigenvalues --    2.31764   2.32245   2.33215   2.35031   2.35344
 Alpha virt. eigenvalues --    2.35954   2.37524   2.38106   2.38942   2.40569
 Alpha virt. eigenvalues --    2.41228   2.42407   2.42942   2.44082   2.44653
 Alpha virt. eigenvalues --    2.45150   2.47274   2.49506   2.50893   2.51599
 Alpha virt. eigenvalues --    2.52999   2.54911   2.57070   2.58492   2.59290
 Alpha virt. eigenvalues --    2.61351   2.62214   2.63172   2.64587   2.66261
 Alpha virt. eigenvalues --    2.66404   2.68113   2.69718   2.70885   2.73308
 Alpha virt. eigenvalues --    2.74434   2.77873   2.79708   2.84596   2.87565
 Alpha virt. eigenvalues --    2.89063   2.91623   2.93740   2.95313   2.95825
 Alpha virt. eigenvalues --    3.03667   3.06696   3.10117   3.11929   3.59431
 Alpha virt. eigenvalues --    3.75244   3.78121   3.92492   3.96151   3.97113
 Alpha virt. eigenvalues --    4.02431   4.04053   4.04492   4.06821   4.09190
 Alpha virt. eigenvalues --    4.10890   4.15888   4.18368   4.18967   4.19936
 Alpha virt. eigenvalues --    4.22733   4.25319   4.26739   4.27592   4.34709
 Alpha virt. eigenvalues --    4.37500   4.43235   4.45692   4.48972   4.49679
 Alpha virt. eigenvalues --    4.54864   4.58821   4.61387
          Condensed to atoms (all electrons):
 Mulliken charges:
               1
     1  N   -0.743267
     2  H    0.323234
     3  H    0.321765
     4  C   -0.233806
     5  H    0.180146
     6  H    0.175882
     7  C    0.583032
     8  O   -0.524260
     9  N   -0.597076
    10  H    0.374932
    11  C   -0.058544
    12  H    0.183369
    13  C    0.624725
    14  C   -0.266052
    15  H    0.134436
    16  H    0.113990
    17  O   -0.537258
    18  C   -0.064345
    19  H    0.171809
    20  C   -0.485644
    21  H    0.101917
    22  H    0.187446
    23  H    0.126854
    24  C   -0.470138
    25  H    0.119574
    26  H    0.216168
    27  H    0.154964
    28  N   -0.619414
    29  H    0.342240
    30  C   -0.052625
    31  H    0.183620
    32  C    0.618880
    33  C   -0.099842
    34  H    0.163031
    35  O   -0.538999
    36  C   -0.450978
    37  H    0.142130
    38  H    0.163659
    39  H    0.157172
    40  C   -0.477462
    41  H    0.120338
    42  H    0.167332
    43  H    0.184832
    44  N   -0.606650
    45  H    0.382688
    46  C   -0.047194
    47  H    0.204734
    48  C    0.584824
    49  C   -0.276867
    50  H    0.157940
    51  H    0.169151
    52  O   -0.442520
    53  C   -0.274787
    54  H    0.174870
    55  H    0.175634
    56  C   -0.297959
    57  H    0.170925
    58  H    0.167752
    59  C   -0.206825
    60  H    0.229148
    61  H    0.229975
    62  N   -0.743994
    63  H    0.427297
    64  H    0.423411
    65  H    0.422349
    66  O   -0.567717
    67  H    0.426049
 Sum of Mulliken charges =   1.00000
 Mulliken charges with hydrogens summed into heavy atoms:
               1
     1  N   -0.098267
     4  C    0.122222
     7  C    0.583032
     8  O   -0.524260
     9  N   -0.222144
    11  C    0.124825
    13  C    0.624725
    14  C   -0.017626
    17  O   -0.537258
    18  C    0.107464
    20  C   -0.069427
    24  C    0.020567
    28  N   -0.277174
    30  C    0.130994
    32  C    0.618880
    33  C    0.063189
    35  O   -0.538999
    36  C    0.011983
    40  C   -0.004960
    44  N   -0.223963
    46  C    0.157540
    48  C    0.584824
    49  C    0.050224
    52  O   -0.442520
    53  C    0.075717
    56  C    0.040718
    59  C    0.252298
    62  N    0.529063
    66  O   -0.141667
 Electronic spatial extent (au):  <R**2>=          15137.2372
 Charge=              1.0000 electrons
 Dipole moment (field-independent basis, Debye):
    X=             -8.3629    Y=              6.8202    Z=            -22.6193  Tot=             25.0616
 Quadrupole moment (field-independent basis, Debye-Ang):
   XX=           -145.7500   YY=           -144.9710   ZZ=            -19.5870
   XY=            -11.1415   XZ=             51.3527   YZ=            -26.6508
 Traceless Quadrupole moment (field-independent basis, Debye-Ang):
   XX=            -42.3140   YY=            -41.5350   ZZ=             83.8490
   XY=            -11.1415   XZ=             51.3527   YZ=            -26.6508
 Octapole moment (field-independent basis, Debye-Ang**2):
  XXX=            238.5871  YYY=           -276.4065  ZZZ=           -276.9945  XYY=             32.2703
  XXY=            -19.4518  XXZ=             -6.7066  XZZ=           -275.1319  YZZ=            101.7073
  YYZ=            192.8308  XYZ=            -20.2878
 Hexadecapole moment (field-independent basis, Debye-Ang**3):
 XXXX=          -7341.4991 YYYY=          -3768.0213 ZZZZ=          -1321.7031 XXXY=            712.2403
 XXXZ=            739.6019 YYYX=            414.2259 YYYZ=            560.5152 ZZZX=           2385.7864
 ZZZY=           -321.6151 XXYY=          -1581.8010 XXZZ=          -1529.9546 YYZZ=          -1402.7143
 XXYZ=           -132.3424 YYXZ=            -72.0170 ZZXY=           -176.3975
 N-N= 3.149338467249D+03 E-N=-9.528250964743D+03  KE= 1.383623174628D+03
 Unable to Open any file for archive entry.
 1\1\GINC-AMR-138\SP\RB3LYP\6-31G(d)\C19H38N5O5(1+)\KENGMITH\02-Jun-202
 2\0\\# B3LYP/6-31G* empiricaldispersion=gd3 guess=read geom=check nosy
 mm integral(ultrafinegrid)\\Candidate Structure: Conf:605 Charge calc 
 in gas phase\\1,1\N,0,-2.229573429,4.0315220528,2.6662465596\H,0,-2.36
 03768999,5.0124781927,2.8982526673\H,0,-1.6685333666,3.6268621404,3.41
 30083566\C,0,-3.5189777272,3.3440499341,2.5619337641\H,0,-4.2330645263
 ,4.0068930491,2.0586694026\H,0,-3.9819313246,3.0528849869,3.5152309794
 \C,0,-3.4340003558,2.0705601578,1.7150467193\O,0,-4.3172995854,1.21784
 62551,1.7445918548\N,0,-2.3337954834,1.9999882519,0.9163855562\H,0,-1.
 612077309,2.703080431,1.0659618717\C,0,-1.9891936635,0.80172739,0.1886
 105165\H,0,-2.5298766922,-0.0344887044,0.6453213635\C,0,-0.4738710412,
 0.5789983026,0.310996673\C,0,-2.3667553026,0.8936212344,-1.3129625806\
 H,0,-1.8140413947,1.7472159484,-1.7328334836\H,0,-2.0017737818,-0.0103
 850835,-1.8266799893\O,0,0.2914547989,1.5081087049,0.5729497896\C,0,-3
 .8725617042,1.0566208433,-1.5864996182\H,0,-4.2254139685,1.9235642403,
 -1.015564619\C,0,-4.1141233078,1.3482293617,-3.0776971404\H,0,-3.83718
 95014,0.4613278568,-3.6717355246\H,0,-5.169975394,1.5567301739,-3.2786
 720677\H,0,-3.5285866171,2.2234416434,-3.4068757682\C,0,-4.6852935989,
 -0.1709381364,-1.152693272\H,0,-4.3037092951,-1.0840691545,-1.63139857
 68\H,0,-4.654125413,-0.2893153041,-0.0678464406\H,0,-5.7376315876,-0.0
 595395317,-1.4370714892\N,0,-0.0506832445,-0.6826828546,0.0515298885\H
 ,0,-0.7351217016,-1.3990687009,-0.1459125305\C,0,1.3641104553,-1.07752
 43616,0.0705269039\H,0,1.8305567554,-0.5102874858,0.8836387486\C,0,2.0
 184854663,-0.6262669212,-1.2565000727\C,0,1.529311613,-2.5842436817,0.
 3619792441\H,0,2.5872907151,-2.8009298217,0.1693886662\O,0,2.190826128
 5,-1.3696741753,-2.2208269173\C,0,1.2281457108,-2.8757303351,1.8395290
 533\H,0,0.1894617432,-2.624895145,2.0880512882\H,0,1.3741879534,-3.938
 4270023,2.0591059143\H,0,1.8801397131,-2.3004128221,2.506375711\C,0,0.
 6995144414,-3.495014584,-0.5599050288\H,0,-0.3775892106,-3.4236601531,
 -0.3476456422\H,0,0.9724534372,-4.5408109327,-0.3855786688\H,0,0.87715
 2724,-3.259949437,-1.6106520838\N,0,2.339559436,0.6944920937,-1.270520
 3969\H,0,2.0926090615,1.2754065538,-0.472828015\C,0,2.8755974424,1.349
 2792535,-2.4423331343\H,0,3.429806465,0.6070368086,-3.0248406665\C,0,3
 .8338428917,2.4470205071,-1.9920396016\C,0,1.7687807677,1.9697341585,-
 3.3307561388\H,0,1.2111793932,2.6973718507,-2.7250759949\H,0,2.2435368
 434,2.5195668753,-4.1520307931\O,0,3.9012262905,2.8883275319,-0.869320
 3031\C,0,0.8082136815,0.9135608125,-3.8868476883\H,0,0.37364998,0.3385
 506578,-3.0632110426\H,0,1.3641231826,0.1964058976,-4.5023834675\C,0,-
 0.3292224232,1.5490258329,-4.7002752087\H,0,-0.9259092268,2.1974586543
 ,-4.0439809664\H,0,0.0796962246,2.1789536195,-5.5025919517\C,0,-1.2169
 406599,0.4666574329,-5.2976583375\H,0,-0.7013730233,-0.1245361321,-6.0
 580335627\H,0,-1.6161899785,-0.2041224803,-4.5331356402\N,0,-2.4358236
 256,1.0880578199,-5.9794520386\H,0,-3.0133739114,0.3882210154,-6.46029
 12318\H,0,-3.0299865728,1.5466232117,-5.2728841561\H,0,-2.1550636518,1
 .7944394814,-6.6698664048\O,0,4.5695870425,2.8992527319,-3.0302871857\
 H,0,5.1427117728,3.6117096287,-2.687332971\\Version=ES64L-G16RevC.01\H
 F=-1396.7143724\RMSD=9.830e-09\Dipole=-2.6434023,1.2356804,-6.7725906\
 Quadrupole=-31.4594205,-30.8802581,62.3396787,-8.283404,38.1794558,-19
 .8142436\PG=C01 [X(C19H38N5O5)]\\@
 The archive entry for this job was punched.


 ORIGINALITY CONSISTS NOT IN SAYING WHAT NO ONE HAS EVER SAID BEFORE, 
 BUT IN SAYING WHAT YOU THINK YOUR SELF.

                                    -- JAMES F. STEPHEN
 Job cpu time:       0 days  0 hours  1 minutes  6.0 seconds.
 Elapsed time:       0 days  0 hours  0 minutes 17.1 seconds.
 File lengths (MBytes):  RWF=    256 Int=      0 D2E=      0 Chk=     40 Scr=     16
 Normal termination of Gaussian 16 at Thu Jun  2 03:30:45 2022.
