 Entering Gaussian System, Link 0=/opt/software/Gaussian/g16-AVX2-C.01/g16/g16
 Input=charge-conf-472.com
 Output=charge-conf-472.log
 Initial command:
 /opt/software/Gaussian/g16-AVX2-C.01/g16/l1.exe "/mnt/gs18/scratch/users/kengmith/Gau-35660.inp" -scrdir="/mnt/gs18/scratch/users/kengmith/"
 Entering Link 1 = /opt/software/Gaussian/g16-AVX2-C.01/g16/l1.exe PID=     35682.
  
 Copyright (c) 1988-2019, Gaussian, Inc.  All Rights Reserved.
  
 This is part of the Gaussian(R) 16 program.  It is based on
 the Gaussian(R) 09 system (copyright 2009, Gaussian, Inc.),
 the Gaussian(R) 03 system (copyright 2003, Gaussian, Inc.),
 the Gaussian(R) 98 system (copyright 1998, Gaussian, Inc.),
 the Gaussian(R) 94 system (copyright 1995, Gaussian, Inc.),
 the Gaussian 92(TM) system (copyright 1992, Gaussian, Inc.),
 the Gaussian 90(TM) system (copyright 1990, Gaussian, Inc.),
 the Gaussian 88(TM) system (copyright 1988, Gaussian, Inc.),
 the Gaussian 86(TM) system (copyright 1986, Carnegie Mellon
 University), and the Gaussian 82(TM) system (copyright 1983,
 Carnegie Mellon University). Gaussian is a federally registered
 trademark of Gaussian, Inc.
  
 This software contains proprietary and confidential information,
 including trade secrets, belonging to Gaussian, Inc.
  
 This software is provided under written license and may be
 used, copied, transmitted, or stored only in accord with that
 written license.
  
 The following legend is applicable only to US Government
 contracts under FAR:
  
                    RESTRICTED RIGHTS LEGEND
  
 Use, reproduction and disclosure by the US Government is
 subject to restrictions as set forth in subparagraphs (a)
 and (c) of the Commercial Computer Software - Restricted
 Rights clause in FAR 52.227-19.
  
 Gaussian, Inc.
 340 Quinnipiac St., Bldg. 40, Wallingford CT 06492
  
  
 ---------------------------------------------------------------
 Warning -- This program may not be used in any manner that
 competes with the business of Gaussian, Inc. or will provide
 assistance to any competitor of Gaussian, Inc.  The licensee
 of this program is prohibited from giving any competitor of
 Gaussian, Inc. access to this program.  By using this program,
 the user acknowledges that Gaussian, Inc. is engaged in the
 business of creating and licensing software in the field of
 computational chemistry and represents and warrants to the
 licensee that it is not a competitor of Gaussian, Inc. and that
 it will not use this program in any manner prohibited above.
 ---------------------------------------------------------------
  

 Cite this work as:
 Gaussian 16, Revision C.01,
 M. J. Frisch, G. W. Trucks, H. B. Schlegel, G. E. Scuseria, 
 M. A. Robb, J. R. Cheeseman, G. Scalmani, V. Barone, 
 G. A. Petersson, H. Nakatsuji, X. Li, M. Caricato, A. V. Marenich, 
 J. Bloino, B. G. Janesko, R. Gomperts, B. Mennucci, H. P. Hratchian, 
 J. V. Ortiz, A. F. Izmaylov, J. L. Sonnenberg, D. Williams-Young, 
 F. Ding, F. Lipparini, F. Egidi, J. Goings, B. Peng, A. Petrone, 
 T. Henderson, D. Ranasinghe, V. G. Zakrzewski, J. Gao, N. Rega, 
 G. Zheng, W. Liang, M. Hada, M. Ehara, K. Toyota, R. Fukuda, 
 J. Hasegawa, M. Ishida, T. Nakajima, Y. Honda, O. Kitao, H. Nakai, 
 T. Vreven, K. Throssell, J. A. Montgomery, Jr., J. E. Peralta, 
 F. Ogliaro, M. J. Bearpark, J. J. Heyd, E. N. Brothers, K. N. Kudin, 
 V. N. Staroverov, T. A. Keith, R. Kobayashi, J. Normand, 
 K. Raghavachari, A. P. Rendell, J. C. Burant, S. S. Iyengar, 
 J. Tomasi, M. Cossi, J. M. Millam, M. Klene, C. Adamo, R. Cammi, 
 J. W. Ochterski, R. L. Martin, K. Morokuma, O. Farkas, 
 J. B. Foresman, and D. J. Fox, Gaussian, Inc., Wallingford CT, 2019.
 
 ******************************************
 Gaussian 16:  ES64L-G16RevC.01  3-Jul-2019
                26-May-2022 
 ******************************************
 %mem=8gb
 %nproc=4
 Will use up to    4 processors via shared memory.
 %chk=conf-472.chk
 -------------------------------------------------------------------
 # B3LYP/6-31G* guess=read geom=check nosymm integral(ultrafinegrid)
 -------------------------------------------------------------------
 1/29=2,38=1,172=1/1;
 2/12=2,15=1,40=1/2;
 3/5=1,6=6,7=1,11=2,14=-4,25=1,30=1,74=-5,75=-5,116=-2/1,2,3;
 4/5=1/1;
 5/5=2,38=6/2;
 6/7=2,8=2,9=2,10=2,28=1/1;
 99/5=1,9=1/99;
 ------------------------------------------------------
 Candidate Structure: Conf:472 Charge calc in gas phase
 ------------------------------------------------------
 Structure from the checkpoint file:  "conf-472.chk"
 Charge =  1 Multiplicity = 1
 Redundant internal coordinates found in file.  (old form).
 N,0,-2.1698719965,-3.3183547918,1.3403497955
 H,0,-2.3051219966,-3.7138267289,0.4111777218
 H,0,-1.2116528076,-3.5617993241,1.5867002253
 C,0,-2.3016607648,-1.8697177446,1.2712640629
 H,0,-3.2875211589,-1.6656603008,0.8266573216
 C,0,-1.2718487759,-1.217362321,0.312598671
 C,0,-2.3052409734,-1.2558222372,2.6860641837
 H,0,-2.5066006313,-0.1800009669,2.6560068733
 H,0,-3.1454889526,-1.7030283907,3.2266877042
 O,0,-0.5304974185,-1.8977355867,-0.3995958132
 C,0,-1.0117727286,-1.4905061637,3.4748270578
 H,0,-0.1201162865,-1.2727364384,2.8667555096
 H,0,-0.9184898499,-2.5292435975,3.8057112827
 C,0,-0.9054445104,-0.5738312777,4.6794448955
 O,0,-1.4670578965,0.4934312772,4.7971681912
 O,0,-0.0658489046,-1.0783030525,5.607274635
 N,0,-1.2455338728,0.154677755,0.2701160261
 H,0,-1.9878096102,0.645046386,0.755666307
 C,0,-0.5573696119,0.8681322729,-0.8007685591
 H,0,-0.0903842077,0.0874472117,-1.4083049999
 C,0,0.6245048663,1.7410551945,-0.3471664092
 C,0,-1.513977638,1.6793108964,-1.7224347573
 H,0,-1.5213925298,2.7318913993,-1.4221257677
 H,0,-2.5299776004,1.2949020416,-1.5615699796
 O,0,1.2212157214,2.4402446333,-1.1699300042
 C,0,-1.1587012316,1.5903533144,-3.1798828119
 C,0,-0.678965615,2.609013059,-3.9657493185
 H,0,-0.4423879778,3.6272821105,-3.6901720941
 C,0,-1.2678964055,0.4380042197,-4.0379784009
 C,0,-0.8571027598,0.8441683265,-5.3460192801
 C,0,-1.6851111968,-0.8949590256,-3.8451320625
 H,0,-2.0027449472,-1.2393463778,-2.8640645161
 N,0,-0.4930858402,2.1693223308,-5.2603204654
 H,0,-0.1981811087,2.7515786763,-6.0296268488
 C,0,-1.3349986303,-1.3292646461,-6.2254393008
 H,0,-1.4154564115,-2.0140605421,-7.0669476103
 C,0,-0.8886576723,-0.0235140081,-6.4419196456
 H,0,-0.6013351955,0.3113680639,-7.4357189403
 C,0,-1.7214818963,-1.7624440105,-4.9361952286
 H,0,-2.07808102,-2.7800007742,-4.8021310142
 N,0,0.9969016141,1.6250579965,0.9487526485
 H,0,0.5377252574,0.9179064832,1.5157045321
 C,0,2.2759120475,2.1045016896,1.4789038724
 H,0,2.4867580638,3.0855286621,1.0410956456
 C,0,3.3366455509,1.0739917246,1.0348161478
 C,0,2.1888991563,2.202343306,3.0177416497
 H,0,3.2024018964,2.4319957715,3.3801696085
 O,0,3.7050437274,0.1555312345,1.7711381688
 C,0,1.2331460602,3.2899776385,3.4888643879
 H,0,1.5187119444,4.2654127422,3.080150056
 H,0,1.2578424044,3.3507857951,4.5803186983
 H,0,0.2028540019,3.070050555,3.1929683739
 O,0,1.7470566471,0.9571715239,3.5512304102
 H,0,2.4569324808,0.3208349981,3.3323018471
 N,0,3.7625149048,1.1956508159,-0.2561347768
 H,0,3.2789161941,1.8904473534,-0.8261690334
 C,0,4.3044830528,0.0316250906,-0.9444970723
 H,0,4.9039252563,-0.5329215999,-0.2276405727
 C,0,5.1913512025,0.518088009,-2.0850494
 C,0,3.150843313,-0.8527439076,-1.4923340489
 H,0,2.6680661866,-0.3061038462,-2.3140109711
 H,0,2.4100206949,-0.9473138584,-0.6907677076
 O,0,4.9926918544,1.5210346212,-2.7303448888
 C,0,3.5486255055,-2.2610793938,-1.9499421961
 H,0,4.346280833,-2.2031561047,-2.7023519444
 H,0,3.965165102,-2.8214742313,-1.1034002833
 C,0,2.3410623758,-3.055867444,-2.48224335
 H,0,2.571471077,-4.124205222,-2.5785957553
 H,0,1.5026941114,-2.9700824784,-1.7875416376
 N,0,1.8340904142,-2.5648461572,-3.7801658084
 H,0,0.9376745771,-2.083928556,-3.7892555134
 N,0,3.5349378751,-3.5037775863,-5.0595494436
 H,0,3.868185044,-3.8526489427,-5.946049082
 H,0,4.0688648837,-3.7428900411,-4.2383840303
 N,0,1.7491777733,-2.4605776618,-6.0934449923
 H,0,0.8055423875,-2.0735778969,-6.0875183441
 H,0,2.206363157,-2.5470552863,-6.9891755155
 C,0,2.3662395122,-2.8438937144,-4.9684221196
 O,0,6.2057794293,-0.3424215611,-2.3360186995
 H,0,6.7236857069,0.0418960004,-3.0712873427
 H,0,0.0307288471,-0.3937936133,6.2970914364
 Recover connectivity data from disk.
                           ----------------------------
                           !    Current Parameters    !
                           ! (Angstroms and Degrees)  !
 --------------------------                            --------------------------
 ! Name  Definition              Value                                          !
 --------------------------------------------------------------------------------
 ! R1    R(1,2)                  1.0188                                         !
 ! R2    R(1,3)                  1.0189                                         !
 ! R3    R(1,4)                  1.4563                                         !
 ! R4    R(4,5)                  1.1006                                         !
 ! R5    R(4,6)                  1.5508                                         !
 ! R6    R(4,7)                  1.5423                                         !
 ! R7    R(6,10)                 1.2328                                         !
 ! R8    R(6,17)                 1.3729                                         !
 ! R9    R(7,8)                  1.0949                                         !
 ! R10   R(7,9)                  1.0947                                         !
 ! R11   R(7,11)                 1.5331                                         !
 ! R12   R(11,12)                1.101                                          !
 ! R13   R(11,13)                1.0941                                         !
 ! R14   R(11,14)                1.5175                                         !
 ! R15   R(14,15)                1.2117                                         !
 ! R16   R(14,16)                1.3492                                         !
 ! R17   R(16,81)                0.9766                                         !
 ! R18   R(17,18)                1.0135                                         !
 ! R19   R(17,19)                1.4592                                         !
 ! R20   R(19,20)                1.0939                                         !
 ! R21   R(19,21)                1.5377                                         !
 ! R22   R(19,22)                1.5565                                         !
 ! R23   R(21,25)                1.2336                                         !
 ! R24   R(21,41)                1.3533                                         !
 ! R25   R(22,23)                1.0946                                         !
 ! R26   R(22,24)                1.0981                                         !
 ! R27   R(22,26)                1.5028                                         !
 ! R28   R(26,27)                1.3731                                         !
 ! R29   R(26,29)                1.4409                                         !
 ! R30   R(27,28)                1.0811                                         !
 ! R31   R(27,33)                1.3798                                         !
 ! R32   R(29,30)                1.4299                                         !
 ! R33   R(29,31)                1.41                                           !
 ! R34   R(30,33)                1.3769                                         !
 ! R35   R(30,37)                1.3982                                         !
 ! R36   R(31,32)                1.0872                                         !
 ! R37   R(31,39)                1.3944                                         !
 ! R38   R(33,34)                1.0089                                         !
 ! R39   R(35,36)                1.0879                                         !
 ! R40   R(35,37)                1.3968                                         !
 ! R41   R(35,39)                1.4139                                         !
 ! R42   R(37,38)                1.0874                                         !
 ! R43   R(39,40)                1.0865                                         !
 ! R44   R(41,42)                1.016                                          !
 ! R45   R(41,43)                1.4652                                         !
 ! R46   R(43,44)                1.0948                                         !
 ! R47   R(43,45)                1.5441                                         !
 ! R48   R(43,46)                1.5444                                         !
 ! R49   R(45,48)                1.2335                                         !
 ! R50   R(45,55)                1.3648                                         !
 ! R51   R(46,47)                1.1006                                         !
 ! R52   R(46,49)                1.5226                                         !
 ! R53   R(46,53)                1.4249                                         !
 ! R54   R(49,50)                1.0955                                         !
 ! R55   R(49,51)                1.0934                                         !
 ! R56   R(49,52)                1.0943                                         !
 ! R57   R(53,54)                0.9782                                         !
 ! R58   R(55,56)                1.0206                                         !
 ! R59   R(55,57)                1.4569                                         !
 ! R60   R(57,58)                1.0918                                         !
 ! R61   R(57,59)                1.5245                                         !
 ! R62   R(57,60)                1.5534                                         !
 ! R63   R(59,63)                1.209                                          !
 ! R64   R(59,79)                1.3537                                         !
 ! R65   R(60,61)                1.0987                                         !
 ! R66   R(60,62)                1.0956                                         !
 ! R67   R(60,64)                1.5333                                         !
 ! R68   R(64,65)                1.0981                                         !
 ! R69   R(64,66)                1.0974                                         !
 ! R70   R(64,67)                1.5405                                         !
 ! R71   R(67,68)                1.0971                                         !
 ! R72   R(67,69)                1.0922                                         !
 ! R73   R(67,70)                1.4774                                         !
 ! R74   R(70,71)                1.0173                                         !
 ! R75   R(70,78)                1.3315                                         !
 ! R76   R(72,73)                1.0093                                         !
 ! R77   R(72,74)                1.0082                                         !
 ! R78   R(72,78)                1.3452                                         !
 ! R79   R(75,76)                1.0199                                         !
 ! R80   R(75,77)                1.0094                                         !
 ! R81   R(75,78)                1.3392                                         !
 ! R82   R(79,80)                0.978                                          !
 ! A1    A(2,1,3)              104.6316                                         !
 ! A2    A(2,1,4)              109.3201                                         !
 ! A3    A(3,1,4)              109.5276                                         !
 ! A4    A(1,4,5)              106.5393                                         !
 ! A5    A(1,4,6)              112.8099                                         !
 ! A6    A(1,4,7)              110.65                                           !
 ! A7    A(5,4,6)              105.4924                                         !
 ! A8    A(5,4,7)              107.1404                                         !
 ! A9    A(6,4,7)              113.6517                                         !
 ! A10   A(4,6,10)             121.6206                                         !
 ! A11   A(4,6,17)             116.8863                                         !
 ! A12   A(10,6,17)            121.4757                                         !
 ! A13   A(4,7,8)              111.4909                                         !
 ! A14   A(4,7,9)              106.9911                                         !
 ! A15   A(4,7,11)             114.1477                                         !
 ! A16   A(8,7,9)              105.8908                                         !
 ! A17   A(8,7,11)             108.6447                                         !
 ! A18   A(9,7,11)             109.3287                                         !
 ! A19   A(7,11,12)            111.645                                          !
 ! A20   A(7,11,13)            111.8916                                         !
 ! A21   A(7,11,14)            112.0289                                         !
 ! A22   A(12,11,13)           106.6035                                         !
 ! A23   A(12,11,14)           105.2003                                         !
 ! A24   A(13,11,14)           109.1141                                         !
 ! A25   A(11,14,15)           125.219                                          !
 ! A26   A(11,14,16)           111.3247                                         !
 ! A27   A(15,14,16)           123.4314                                         !
 ! A28   A(14,16,81)           106.572                                          !
 ! A29   A(6,17,18)            117.0426                                         !
 ! A30   A(6,17,19)            121.3554                                         !
 ! A31   A(18,17,19)           117.4135                                         !
 ! A32   A(17,19,20)           105.0681                                         !
 ! A33   A(17,19,21)           115.0577                                         !
 ! A34   A(17,19,22)           113.5488                                         !
 ! A35   A(20,19,21)           103.9367                                         !
 ! A36   A(20,19,22)           107.7846                                         !
 ! A37   A(21,19,22)           110.5608                                         !
 ! A38   A(19,21,25)           119.7865                                         !
 ! A39   A(19,21,41)           116.4427                                         !
 ! A40   A(25,21,41)           123.6501                                         !
 ! A41   A(19,22,23)           110.0513                                         !
 ! A42   A(19,22,24)           107.4247                                         !
 ! A43   A(19,22,26)           113.4623                                         !
 ! A44   A(23,22,24)           106.8674                                         !
 ! A45   A(23,22,26)           108.9417                                         !
 ! A46   A(24,22,26)           109.8819                                         !
 ! A47   A(22,26,27)           126.4241                                         !
 ! A48   A(22,26,29)           127.373                                          !
 ! A49   A(27,26,29)           106.1973                                         !
 ! A50   A(26,27,28)           128.9998                                         !
 ! A51   A(26,27,33)           110.3433                                         !
 ! A52   A(28,27,33)           120.6524                                         !
 ! A53   A(26,29,30)           107.2075                                         !
 ! A54   A(26,29,31)           134.1897                                         !
 ! A55   A(30,29,31)           118.5973                                         !
 ! A56   A(29,30,33)           107.0007                                         !
 ! A57   A(29,30,37)           122.2926                                         !
 ! A58   A(33,30,37)           130.6933                                         !
 ! A59   A(29,31,32)           120.6196                                         !
 ! A60   A(29,31,39)           119.2648                                         !
 ! A61   A(32,31,39)           120.0929                                         !
 ! A62   A(27,33,30)           109.2366                                         !
 ! A63   A(27,33,34)           124.814                                          !
 ! A64   A(30,33,34)           125.8214                                         !
 ! A65   A(36,35,37)           119.4838                                         !
 ! A66   A(36,35,39)           119.488                                          !
 ! A67   A(37,35,39)           121.0013                                         !
 ! A68   A(30,37,35)           117.7663                                         !
 ! A69   A(30,37,38)           121.2842                                         !
 ! A70   A(35,37,38)           120.9297                                         !
 ! A71   A(31,39,35)           121.0475                                         !
 ! A72   A(31,39,40)           119.6467                                         !
 ! A73   A(35,39,40)           119.2838                                         !
 ! A74   A(21,41,42)           118.0098                                         !
 ! A75   A(21,41,43)           123.9612                                         !
 ! A76   A(42,41,43)           114.8561                                         !
 ! A77   A(41,43,44)           108.46                                           !
 ! A78   A(41,43,45)           106.0941                                         !
 ! A79   A(41,43,46)           109.3948                                         !
 ! A80   A(44,43,45)           110.5312                                         !
 ! A81   A(44,43,46)           110.6431                                         !
 ! A82   A(45,43,46)           111.5644                                         !
 ! A83   A(43,45,48)           122.0341                                         !
 ! A84   A(43,45,55)           115.2707                                         !
 ! A85   A(48,45,55)           122.5356                                         !
 ! A86   A(43,46,47)           106.8254                                         !
 ! A87   A(43,46,49)           112.8874                                         !
 ! A88   A(43,46,53)           109.5828                                         !
 ! A89   A(47,46,49)           109.0924                                         !
 ! A90   A(47,46,53)           110.1579                                         !
 ! A91   A(49,46,53)           108.2844                                         !
 ! A92   A(46,49,50)           110.9145                                         !
 ! A93   A(46,49,51)           109.5364                                         !
 ! A94   A(46,49,52)           111.3321                                         !
 ! A95   A(50,49,51)           108.4824                                         !
 ! A96   A(50,49,52)           108.8752                                         !
 ! A97   A(51,49,52)           107.5994                                         !
 ! A98   A(46,53,54)           105.0498                                         !
 ! A99   A(45,55,56)           116.1771                                         !
 ! A100  A(45,55,57)           119.4572                                         !
 ! A101  A(56,55,57)           117.1494                                         !
 ! A102  A(55,57,58)           107.8886                                         !
 ! A103  A(55,57,59)           108.358                                          !
 ! A104  A(55,57,60)           110.1956                                         !
 ! A105  A(58,57,59)           109.6843                                         !
 ! A106  A(58,57,60)           110.1778                                         !
 ! A107  A(59,57,60)           110.4782                                         !
 ! A108  A(57,59,63)           124.6408                                         !
 ! A109  A(57,59,79)           111.8272                                         !
 ! A110  A(63,59,79)           123.4695                                         !
 ! A111  A(57,60,61)           107.8685                                         !
 ! A112  A(57,60,62)           107.0552                                         !
 ! A113  A(57,60,64)           115.8165                                         !
 ! A114  A(61,60,62)           107.0378                                         !
 ! A115  A(61,60,64)           110.3524                                         !
 ! A116  A(62,60,64)           108.3303                                         !
 ! A117  A(60,64,65)           110.1514                                         !
 ! A118  A(60,64,66)           109.7123                                         !
 ! A119  A(60,64,67)           111.9399                                         !
 ! A120  A(65,64,66)           106.2485                                         !
 ! A121  A(65,64,67)           111.092                                          !
 ! A122  A(66,64,67)           107.4955                                         !
 ! A123  A(64,67,68)           111.5986                                         !
 ! A124  A(64,67,69)           109.9621                                         !
 ! A125  A(64,67,70)           113.645                                          !
 ! A126  A(68,67,69)           107.0707                                         !
 ! A127  A(68,67,70)           108.5747                                         !
 ! A128  A(69,67,70)           105.622                                          !
 ! A129  A(67,70,71)           117.8614                                         !
 ! A130  A(67,70,78)           125.2531                                         !
 ! A131  A(71,70,78)           116.3115                                         !
 ! A132  A(73,72,74)           117.293                                          !
 ! A133  A(73,72,78)           121.059                                          !
 ! A134  A(74,72,78)           121.415                                          !
 ! A135  A(76,75,77)           117.176                                          !
 ! A136  A(76,75,78)           122.0081                                         !
 ! A137  A(77,75,78)           120.8158                                         !
 ! A138  A(70,78,72)           120.6945                                         !
 ! A139  A(70,78,75)           120.3681                                         !
 ! A140  A(72,78,75)           118.935                                          !
 ! A141  A(59,79,80)           106.6432                                         !
 ! D1    D(2,1,4,5)             55.7181                                         !
 ! D2    D(2,1,4,6)            -59.57                                           !
 ! D3    D(2,1,4,7)            171.8512                                         !
 ! D4    D(3,1,4,5)            169.8196                                         !
 ! D5    D(3,1,4,6)             54.5315                                         !
 ! D6    D(3,1,4,7)            -74.0474                                         !
 ! D7    D(1,4,6,10)             6.8834                                         !
 ! D8    D(1,4,6,17)          -174.6139                                         !
 ! D9    D(5,4,6,10)          -109.0319                                         !
 ! D10   D(5,4,6,17)            69.4708                                         !
 ! D11   D(7,4,6,10)           133.8861                                         !
 ! D12   D(7,4,6,17)           -47.6112                                         !
 ! D13   D(1,4,7,8)           -174.1536                                         !
 ! D14   D(1,4,7,9)            -58.8128                                         !
 ! D15   D(1,4,7,11)            62.2698                                         !
 ! D16   D(5,4,7,8)            -58.3944                                         !
 ! D17   D(5,4,7,9)             56.9464                                         !
 ! D18   D(5,4,7,11)           178.029                                          !
 ! D19   D(6,4,7,8)             57.7243                                         !
 ! D20   D(6,4,7,9)            173.065                                          !
 ! D21   D(6,4,7,11)           -65.8523                                         !
 ! D22   D(4,6,17,18)           -9.0267                                         !
 ! D23   D(4,6,17,19)         -165.4277                                         !
 ! D24   D(10,6,17,18)         169.4783                                         !
 ! D25   D(10,6,17,19)          13.0773                                         !
 ! D26   D(4,7,11,12)           46.7918                                         !
 ! D27   D(4,7,11,13)          -72.5998                                         !
 ! D28   D(4,7,11,14)          164.4934                                         !
 ! D29   D(8,7,11,12)          -78.3071                                         !
 ! D30   D(8,7,11,13)          162.3014                                         !
 ! D31   D(8,7,11,14)           39.3945                                         !
 ! D32   D(9,7,11,12)          166.569                                          !
 ! D33   D(9,7,11,13)           47.1774                                         !
 ! D34   D(9,7,11,14)          -75.7294                                         !
 ! D35   D(7,11,14,15)         -23.9341                                         !
 ! D36   D(7,11,14,16)         157.8342                                         !
 ! D37   D(12,11,14,15)         97.5501                                         !
 ! D38   D(12,11,14,16)        -80.6816                                         !
 ! D39   D(13,11,14,15)       -148.3993                                         !
 ! D40   D(13,11,14,16)         33.369                                          !
 ! D41   D(11,14,16,81)        173.6417                                         !
 ! D42   D(15,14,16,81)         -4.6273                                         !
 ! D43   D(6,17,19,20)          -3.4559                                         !
 ! D44   D(6,17,19,21)        -117.1098                                         !
 ! D45   D(6,17,19,22)         114.0852                                         !
 ! D46   D(18,17,19,20)       -159.7735                                         !
 ! D47   D(18,17,19,21)         86.5727                                         !
 ! D48   D(18,17,19,22)        -42.2323                                         !
 ! D49   D(17,19,21,25)       -175.9753                                         !
 ! D50   D(17,19,21,41)          7.8729                                         !
 ! D51   D(20,19,21,25)         69.7129                                         !
 ! D52   D(20,19,21,41)       -106.4388                                         !
 ! D53   D(22,19,21,25)        -45.7035                                         !
 ! D54   D(22,19,21,41)        138.1447                                         !
 ! D55   D(17,19,22,23)         98.5906                                         !
 ! D56   D(17,19,22,24)        -17.4041                                         !
 ! D57   D(17,19,22,26)       -139.058                                          !
 ! D58   D(20,19,22,23)       -145.4575                                         !
 ! D59   D(20,19,22,24)         98.5477                                         !
 ! D60   D(20,19,22,26)        -23.1062                                         !
 ! D61   D(21,19,22,23)        -32.4742                                         !
 ! D62   D(21,19,22,24)       -148.469                                          !
 ! D63   D(21,19,22,26)         89.8771                                         !
 ! D64   D(19,21,41,42)          5.4243                                         !
 ! D65   D(19,21,41,43)        164.2198                                         !
 ! D66   D(25,21,41,42)       -170.5633                                         !
 ! D67   D(25,21,41,43)        -11.7678                                         !
 ! D68   D(19,22,26,27)       -111.8251                                         !
 ! D69   D(19,22,26,29)         69.1678                                         !
 ! D70   D(23,22,26,27)         11.1392                                         !
 ! D71   D(23,22,26,29)       -167.8679                                         !
 ! D72   D(24,22,26,27)        127.9037                                         !
 ! D73   D(24,22,26,29)        -51.1034                                         !
 ! D74   D(22,26,27,28)          2.12                                           !
 ! D75   D(22,26,27,33)       -178.6626                                         !
 ! D76   D(29,26,27,28)       -178.7017                                         !
 ! D77   D(29,26,27,33)          0.5158                                         !
 ! D78   D(22,26,29,30)        178.0954                                         !
 ! D79   D(22,26,29,31)         -1.0035                                         !
 ! D80   D(27,26,29,30)         -1.0727                                         !
 ! D81   D(27,26,29,31)        179.8284                                         !
 ! D82   D(26,27,33,30)          0.2657                                         !
 ! D83   D(26,27,33,34)        176.3489                                         !
 ! D84   D(28,27,33,30)        179.5588                                         !
 ! D85   D(28,27,33,34)         -4.358                                          !
 ! D86   D(26,29,30,33)          1.2368                                         !
 ! D87   D(26,29,30,37)       -177.5623                                         !
 ! D88   D(31,29,30,33)       -179.4991                                         !
 ! D89   D(31,29,30,37)          1.7019                                         !
 ! D90   D(26,29,31,32)         -1.0731                                         !
 ! D91   D(26,29,31,39)        177.1988                                         !
 ! D92   D(30,29,31,32)        179.9073                                         !
 ! D93   D(30,29,31,39)         -1.8208                                         !
 ! D94   D(29,30,33,27)         -0.9388                                         !
 ! D95   D(29,30,33,34)       -176.9728                                         !
 ! D96   D(37,30,33,27)        177.7222                                         !
 ! D97   D(37,30,33,34)          1.6882                                         !
 ! D98   D(29,30,37,35)         -0.298                                          !
 ! D99   D(29,30,37,38)        178.0996                                         !
 ! D100  D(33,30,37,35)       -178.7832                                         !
 ! D101  D(33,30,37,38)         -0.3856                                         !
 ! D102  D(29,31,39,35)          0.6178                                         !
 ! D103  D(29,31,39,40)       -177.6674                                         !
 ! D104  D(32,31,39,35)        178.899                                          !
 ! D105  D(32,31,39,40)          0.6137                                         !
 ! D106  D(36,35,37,30)        177.1339                                         !
 ! D107  D(36,35,37,38)         -1.2697                                         !
 ! D108  D(39,35,37,30)         -0.9681                                         !
 ! D109  D(39,35,37,38)       -179.3716                                         !
 ! D110  D(36,35,39,31)       -177.2763                                         !
 ! D111  D(36,35,39,40)          1.0151                                         !
 ! D112  D(37,35,39,31)          0.8256                                         !
 ! D113  D(37,35,39,40)        179.1169                                         !
 ! D114  D(21,41,43,44)         42.1116                                         !
 ! D115  D(21,41,43,45)        -76.6483                                         !
 ! D116  D(21,41,43,46)        162.879                                          !
 ! D117  D(42,41,43,44)       -158.4939                                         !
 ! D118  D(42,41,43,45)         82.7462                                         !
 ! D119  D(42,41,43,46)        -37.7266                                         !
 ! D120  D(41,43,45,48)        -96.0619                                         !
 ! D121  D(41,43,45,55)         79.453                                          !
 ! D122  D(44,43,45,48)        146.5532                                         !
 ! D123  D(44,43,45,55)        -37.9319                                         !
 ! D124  D(46,43,45,48)         22.9939                                         !
 ! D125  D(46,43,45,55)       -161.4912                                         !
 ! D126  D(41,43,46,47)        172.5113                                         !
 ! D127  D(41,43,46,49)        -67.5823                                         !
 ! D128  D(41,43,46,53)         53.1903                                         !
 ! D129  D(44,43,46,47)        -68.059                                          !
 ! D130  D(44,43,46,49)         51.8474                                         !
 ! D131  D(44,43,46,53)        172.6201                                         !
 ! D132  D(45,43,46,47)         55.4369                                         !
 ! D133  D(45,43,46,49)        175.3433                                         !
 ! D134  D(45,43,46,53)        -63.8841                                         !
 ! D135  D(43,45,55,56)         -5.6942                                         !
 ! D136  D(43,45,55,57)       -155.1891                                         !
 ! D137  D(48,45,55,56)        169.7958                                         !
 ! D138  D(48,45,55,57)         20.3009                                         !
 ! D139  D(43,46,49,50)        -56.9873                                         !
 ! D140  D(43,46,49,51)       -176.7036                                         !
 ! D141  D(43,46,49,52)         64.4148                                         !
 ! D142  D(47,46,49,50)         61.6069                                         !
 ! D143  D(47,46,49,51)        -58.1094                                         !
 ! D144  D(47,46,49,52)       -176.991                                          !
 ! D145  D(53,46,49,50)       -178.4971                                         !
 ! D146  D(53,46,49,51)         61.7865                                         !
 ! D147  D(53,46,49,52)        -57.0951                                         !
 ! D148  D(43,46,53,54)         64.4687                                         !
 ! D149  D(47,46,53,54)        -52.7808                                         !
 ! D150  D(49,46,53,54)       -172.0068                                         !
 ! D151  D(45,55,57,58)        -38.6767                                         !
 ! D152  D(45,55,57,59)       -157.3645                                         !
 ! D153  D(45,55,57,60)         81.65                                           !
 ! D154  D(56,55,57,58)        172.1178                                         !
 ! D155  D(56,55,57,59)         53.43                                           !
 ! D156  D(56,55,57,60)        -67.5555                                         !
 ! D157  D(55,57,59,63)        -33.5514                                         !
 ! D158  D(55,57,59,79)        149.2443                                         !
 ! D159  D(58,57,59,63)       -151.0959                                         !
 ! D160  D(58,57,59,79)         31.6998                                         !
 ! D161  D(60,57,59,63)         87.2591                                         !
 ! D162  D(60,57,59,79)        -89.9452                                         !
 ! D163  D(55,57,60,61)         69.4495                                         !
 ! D164  D(55,57,60,62)        -45.4429                                         !
 ! D165  D(55,57,60,64)       -166.3634                                         !
 ! D166  D(58,57,60,61)       -171.6123                                         !
 ! D167  D(58,57,60,62)         73.4953                                         !
 ! D168  D(58,57,60,64)        -47.4253                                         !
 ! D169  D(59,57,60,61)        -50.2594                                         !
 ! D170  D(59,57,60,62)       -165.1518                                         !
 ! D171  D(59,57,60,64)         73.9276                                         !
 ! D172  D(57,59,79,80)       -179.7867                                         !
 ! D173  D(63,59,79,80)          2.9706                                         !
 ! D174  D(57,60,64,65)        -55.5643                                         !
 ! D175  D(57,60,64,66)         61.0565                                         !
 ! D176  D(57,60,64,67)       -179.6947                                         !
 ! D177  D(61,60,64,65)         67.3241                                         !
 ! D178  D(61,60,64,66)       -176.055                                          !
 ! D179  D(61,60,64,67)        -56.8062                                         !
 ! D180  D(62,60,64,65)       -175.7964                                         !
 ! D181  D(62,60,64,66)        -59.1756                                         !
 ! D182  D(62,60,64,67)         60.0732                                         !
 ! D183  D(60,64,67,68)       -166.1956                                         !
 ! D184  D(60,64,67,69)        -47.5298                                         !
 ! D185  D(60,64,67,70)         70.6205                                         !
 ! D186  D(65,64,67,68)         70.2014                                         !
 ! D187  D(65,64,67,69)       -171.1328                                         !
 ! D188  D(65,64,67,70)        -52.9825                                         !
 ! D189  D(66,64,67,68)        -45.6489                                         !
 ! D190  D(66,64,67,69)         73.0169                                         !
 ! D191  D(66,64,67,70)       -168.8328                                         !
 ! D192  D(64,67,70,71)       -108.9106                                         !
 ! D193  D(64,67,70,78)         80.1248                                         !
 ! D194  D(68,67,70,71)        126.2661                                         !
 ! D195  D(68,67,70,78)        -44.6985                                         !
 ! D196  D(69,67,70,71)         11.7137                                         !
 ! D197  D(69,67,70,78)       -159.2509                                         !
 ! D198  D(67,70,78,72)         -7.4502                                         !
 ! D199  D(67,70,78,75)        173.1103                                         !
 ! D200  D(71,70,78,72)       -178.54                                           !
 ! D201  D(71,70,78,75)          2.0205                                         !
 ! D202  D(73,72,78,70)        169.7516                                         !
 ! D203  D(73,72,78,75)        -10.8009                                         !
 ! D204  D(74,72,78,70)         -4.5517                                         !
 ! D205  D(74,72,78,75)        174.8958                                         !
 ! D206  D(76,75,78,70)         -9.0984                                         !
 ! D207  D(76,75,78,72)        171.4524                                         !
 ! D208  D(77,75,78,70)        171.0229                                         !
 ! D209  D(77,75,78,72)         -8.4264                                         !
 --------------------------------------------------------------------------------
 Symmetry turned off by external request.
 Stoichiometry    C26H39N8O8(1+)
 Framework group  C1[X(C26H39N8O8)]
 Deg. of freedom   237
 Full point group                 C1      NOp   1
                          Input orientation:                          
 ---------------------------------------------------------------------
 Center     Atomic      Atomic             Coordinates (Angstroms)
 Number     Number       Type             X           Y           Z
 ---------------------------------------------------------------------
      1          7           0       -2.169872   -3.318355    1.340350
      2          1           0       -2.305122   -3.713827    0.411178
      3          1           0       -1.211653   -3.561799    1.586700
      4          6           0       -2.301661   -1.869718    1.271264
      5          1           0       -3.287521   -1.665660    0.826657
      6          6           0       -1.271849   -1.217362    0.312599
      7          6           0       -2.305241   -1.255822    2.686064
      8          1           0       -2.506601   -0.180001    2.656007
      9          1           0       -3.145489   -1.703028    3.226688
     10          8           0       -0.530497   -1.897736   -0.399596
     11          6           0       -1.011773   -1.490506    3.474827
     12          1           0       -0.120116   -1.272736    2.866756
     13          1           0       -0.918490   -2.529244    3.805711
     14          6           0       -0.905445   -0.573831    4.679445
     15          8           0       -1.467058    0.493431    4.797168
     16          8           0       -0.065849   -1.078303    5.607275
     17          7           0       -1.245534    0.154678    0.270116
     18          1           0       -1.987810    0.645046    0.755666
     19          6           0       -0.557370    0.868132   -0.800769
     20          1           0       -0.090384    0.087447   -1.408305
     21          6           0        0.624505    1.741055   -0.347166
     22          6           0       -1.513978    1.679311   -1.722435
     23          1           0       -1.521393    2.731891   -1.422126
     24          1           0       -2.529978    1.294902   -1.561570
     25          8           0        1.221216    2.440245   -1.169930
     26          6           0       -1.158701    1.590353   -3.179883
     27          6           0       -0.678966    2.609013   -3.965749
     28          1           0       -0.442388    3.627282   -3.690172
     29          6           0       -1.267896    0.438004   -4.037978
     30          6           0       -0.857103    0.844168   -5.346019
     31          6           0       -1.685111   -0.894959   -3.845132
     32          1           0       -2.002745   -1.239346   -2.864065
     33          7           0       -0.493086    2.169322   -5.260320
     34          1           0       -0.198181    2.751579   -6.029627
     35          6           0       -1.334999   -1.329265   -6.225439
     36          1           0       -1.415456   -2.014061   -7.066948
     37          6           0       -0.888658   -0.023514   -6.441920
     38          1           0       -0.601335    0.311368   -7.435719
     39          6           0       -1.721482   -1.762444   -4.936195
     40          1           0       -2.078081   -2.780001   -4.802131
     41          7           0        0.996902    1.625058    0.948753
     42          1           0        0.537725    0.917906    1.515705
     43          6           0        2.275912    2.104502    1.478904
     44          1           0        2.486758    3.085529    1.041096
     45          6           0        3.336646    1.073992    1.034816
     46          6           0        2.188899    2.202343    3.017742
     47          1           0        3.202402    2.431996    3.380170
     48          8           0        3.705044    0.155531    1.771138
     49          6           0        1.233146    3.289978    3.488864
     50          1           0        1.518712    4.265413    3.080150
     51          1           0        1.257842    3.350786    4.580319
     52          1           0        0.202854    3.070051    3.192968
     53          8           0        1.747057    0.957172    3.551230
     54          1           0        2.456932    0.320835    3.332302
     55          7           0        3.762515    1.195651   -0.256135
     56          1           0        3.278916    1.890447   -0.826169
     57          6           0        4.304483    0.031625   -0.944497
     58          1           0        4.903925   -0.532922   -0.227641
     59          6           0        5.191351    0.518088   -2.085049
     60          6           0        3.150843   -0.852744   -1.492334
     61          1           0        2.668066   -0.306104   -2.314011
     62          1           0        2.410021   -0.947314   -0.690768
     63          8           0        4.992692    1.521035   -2.730345
     64          6           0        3.548626   -2.261079   -1.949942
     65          1           0        4.346281   -2.203156   -2.702352
     66          1           0        3.965165   -2.821474   -1.103400
     67          6           0        2.341062   -3.055867   -2.482243
     68          1           0        2.571471   -4.124205   -2.578596
     69          1           0        1.502694   -2.970082   -1.787542
     70          7           0        1.834090   -2.564846   -3.780166
     71          1           0        0.937675   -2.083929   -3.789256
     72          7           0        3.534938   -3.503778   -5.059549
     73          1           0        3.868185   -3.852649   -5.946049
     74          1           0        4.068865   -3.742890   -4.238384
     75          7           0        1.749178   -2.460578   -6.093445
     76          1           0        0.805542   -2.073578   -6.087518
     77          1           0        2.206363   -2.547055   -6.989176
     78          6           0        2.366240   -2.843894   -4.968422
     79          8           0        6.205779   -0.342422   -2.336019
     80          1           0        6.723686    0.041896   -3.071287
     81          1           0        0.030729   -0.393794    6.297091
 ---------------------------------------------------------------------
 Rotational constants (GHZ):           0.0987493           0.0591807           0.0507260
 Standard basis: 6-31G(d) (6D, 7F)
   708 basis functions,  1332 primitive gaussians,   708 cartesian basis functions
   157 alpha electrons      157 beta electrons
       nuclear repulsion energy      5491.4709187562 Hartrees.
 NAtoms=   81 NActive=   81 NUniq=   81 SFac= 1.00D+00 NAtFMM=   60 NAOKFM=T Big=T
 Integral buffers will be    131072 words long.
 Raffenetti 2 integral format.
 Two-electron integral symmetry is turned off.
 One-electron integrals computed using PRISM.
 NBasis=   708 RedAO= T EigKep=  3.76D-04  NBF=   708
 NBsUse=   708 1.00D-06 EigRej= -1.00D+00 NBFU=   708
 Initial guess from the checkpoint file:  "conf-472.chk"
 B after Tr=     0.000000    0.000000    0.000000
         Rot=    1.000000    0.000000    0.000000    0.000000 Ang=   0.00 deg.
 Requested convergence on RMS density matrix=1.00D-08 within 128 cycles.
 Requested convergence on MAX density matrix=1.00D-06.
 Requested convergence on             energy=1.00D-06.
 No special actions if energy rises.
 SCF Done:  E(RB3LYP) =  -2053.95746644     A.U. after    1 cycles
            NFock=  1  Conv=0.32D-08     -V/T= 2.0094

 **********************************************************************

            Population analysis using the SCF Density.

 **********************************************************************

 Alpha  occ. eigenvalues --  -19.29514 -19.25208 -19.23552 -19.21868 -19.21170
 Alpha  occ. eigenvalues --  -19.21009 -19.20474 -19.19612 -14.52941 -14.52306
 Alpha  occ. eigenvalues --  -14.51838 -14.47564 -14.46127 -14.45009 -14.44490
 Alpha  occ. eigenvalues --  -14.39184 -10.48890 -10.41581 -10.38236 -10.37978
 Alpha  occ. eigenvalues --  -10.37764 -10.37673 -10.36086 -10.33384 -10.32712
 Alpha  occ. eigenvalues --  -10.32084 -10.31596 -10.31407 -10.31146 -10.31097
 Alpha  occ. eigenvalues --  -10.30978 -10.29868 -10.29746 -10.29183 -10.29027
 Alpha  occ. eigenvalues --  -10.28865 -10.28841 -10.28623 -10.27519 -10.27009
 Alpha  occ. eigenvalues --  -10.26660 -10.24013  -1.20187  -1.17326  -1.16106
 Alpha  occ. eigenvalues --   -1.13406  -1.13036  -1.11993  -1.11236  -1.08659
 Alpha  occ. eigenvalues --   -1.07523  -1.07144  -1.06454  -1.05411  -1.02643
 Alpha  occ. eigenvalues --   -1.01646  -1.00524  -0.96879  -0.94155  -0.91801
 Alpha  occ. eigenvalues --   -0.90073  -0.87164  -0.86489  -0.85508  -0.84407
 Alpha  occ. eigenvalues --   -0.83614  -0.81826  -0.81439  -0.78942  -0.78829
 Alpha  occ. eigenvalues --   -0.78060  -0.75136  -0.75068  -0.73645  -0.72218
 Alpha  occ. eigenvalues --   -0.71527  -0.70910  -0.69443  -0.69284  -0.68046
 Alpha  occ. eigenvalues --   -0.67514  -0.66892  -0.66415  -0.65823  -0.65630
 Alpha  occ. eigenvalues --   -0.65110  -0.64579  -0.63520  -0.62664  -0.61834
 Alpha  occ. eigenvalues --   -0.61236  -0.60026  -0.59496  -0.58807  -0.58473
 Alpha  occ. eigenvalues --   -0.58115  -0.57452  -0.57332  -0.57201  -0.56810
 Alpha  occ. eigenvalues --   -0.56668  -0.56068  -0.54866  -0.54227  -0.54004
 Alpha  occ. eigenvalues --   -0.53798  -0.53271  -0.53100  -0.53019  -0.52816
 Alpha  occ. eigenvalues --   -0.52396  -0.52284  -0.51564  -0.51316  -0.51121
 Alpha  occ. eigenvalues --   -0.50169  -0.50022  -0.49694  -0.49559  -0.49128
 Alpha  occ. eigenvalues --   -0.48771  -0.48545  -0.47916  -0.47538  -0.46806
 Alpha  occ. eigenvalues --   -0.46559  -0.45886  -0.45747  -0.45531  -0.45083
 Alpha  occ. eigenvalues --   -0.44965  -0.44677  -0.44489  -0.43742  -0.43553
 Alpha  occ. eigenvalues --   -0.43402  -0.43213  -0.42968  -0.42338  -0.41949
 Alpha  occ. eigenvalues --   -0.41499  -0.40934  -0.40497  -0.37792  -0.37444
 Alpha  occ. eigenvalues --   -0.37385  -0.37177  -0.36512  -0.35398  -0.34806
 Alpha  occ. eigenvalues --   -0.34472  -0.33730  -0.33380  -0.32568  -0.32496
 Alpha  occ. eigenvalues --   -0.31980  -0.29834
 Alpha virt. eigenvalues --   -0.12434  -0.11534  -0.09058  -0.08898  -0.08398
 Alpha virt. eigenvalues --   -0.08144  -0.07900  -0.05751  -0.05327  -0.04506
 Alpha virt. eigenvalues --   -0.04183  -0.03082  -0.02212  -0.01872  -0.01793
 Alpha virt. eigenvalues --   -0.00694   0.00072   0.00258   0.00706   0.01309
 Alpha virt. eigenvalues --    0.02125   0.02466   0.02837   0.03009   0.03383
 Alpha virt. eigenvalues --    0.03607   0.03975   0.04157   0.04565   0.04833
 Alpha virt. eigenvalues --    0.05484   0.05858   0.06177   0.06310   0.06621
 Alpha virt. eigenvalues --    0.07148   0.07341   0.07474   0.08028   0.08454
 Alpha virt. eigenvalues --    0.08791   0.09457   0.09635   0.10025   0.10117
 Alpha virt. eigenvalues --    0.10624   0.10796   0.11295   0.11620   0.11737
 Alpha virt. eigenvalues --    0.12044   0.12333   0.12816   0.13026   0.13703
 Alpha virt. eigenvalues --    0.13924   0.14305   0.14761   0.14824   0.15491
 Alpha virt. eigenvalues --    0.15858   0.16296   0.16313   0.16606   0.17249
 Alpha virt. eigenvalues --    0.17386   0.17661   0.18197   0.19448   0.20147
 Alpha virt. eigenvalues --    0.20769   0.20990   0.21852   0.22516   0.22917
 Alpha virt. eigenvalues --    0.23366   0.24239   0.24862   0.25107   0.25475
 Alpha virt. eigenvalues --    0.26609   0.27987   0.29527   0.30315   0.30672
 Alpha virt. eigenvalues --    0.31123   0.31973   0.32592   0.34165   0.34877
 Alpha virt. eigenvalues --    0.36784   0.37951   0.38394   0.39458   0.39984
 Alpha virt. eigenvalues --    0.40585   0.41195   0.41540   0.42308   0.42732
 Alpha virt. eigenvalues --    0.43647   0.44033   0.44491   0.44658   0.44886
 Alpha virt. eigenvalues --    0.45383   0.45596   0.46145   0.46535   0.46889
 Alpha virt. eigenvalues --    0.47434   0.47710   0.48132   0.48148   0.48857
 Alpha virt. eigenvalues --    0.49003   0.49271   0.49635   0.49830   0.50146
 Alpha virt. eigenvalues --    0.50444   0.50713   0.51081   0.51596   0.51967
 Alpha virt. eigenvalues --    0.52009   0.52433   0.52548   0.52755   0.53098
 Alpha virt. eigenvalues --    0.53893   0.54599   0.55046   0.55334   0.55537
 Alpha virt. eigenvalues --    0.56266   0.56619   0.56846   0.57057   0.57342
 Alpha virt. eigenvalues --    0.57989   0.58288   0.58619   0.59365   0.59468
 Alpha virt. eigenvalues --    0.60186   0.60721   0.61108   0.61607   0.61701
 Alpha virt. eigenvalues --    0.62628   0.63260   0.63397   0.65090   0.65596
 Alpha virt. eigenvalues --    0.65769   0.66268   0.66433   0.66808   0.67862
 Alpha virt. eigenvalues --    0.68224   0.68339   0.69197   0.70315   0.70408
 Alpha virt. eigenvalues --    0.71159   0.71399   0.71649   0.71790   0.71967
 Alpha virt. eigenvalues --    0.72418   0.72539   0.73000   0.73228   0.73579
 Alpha virt. eigenvalues --    0.74055   0.74265   0.74839   0.75057   0.75240
 Alpha virt. eigenvalues --    0.75752   0.76044   0.76167   0.76486   0.77214
 Alpha virt. eigenvalues --    0.77675   0.78347   0.78712   0.79029   0.79245
 Alpha virt. eigenvalues --    0.79859   0.80119   0.80392   0.80599   0.81052
 Alpha virt. eigenvalues --    0.81346   0.81811   0.82130   0.82482   0.82819
 Alpha virt. eigenvalues --    0.83245   0.83799   0.83933   0.84634   0.84683
 Alpha virt. eigenvalues --    0.85017   0.85311   0.85645   0.85867   0.86358
 Alpha virt. eigenvalues --    0.86878   0.87393   0.87784   0.87966   0.88530
 Alpha virt. eigenvalues --    0.88787   0.89284   0.89863   0.89926   0.90537
 Alpha virt. eigenvalues --    0.91007   0.91740   0.91948   0.92722   0.93299
 Alpha virt. eigenvalues --    0.93810   0.94787   0.94964   0.95393   0.96019
 Alpha virt. eigenvalues --    0.97462   0.98301   0.98487   0.98849   0.99635
 Alpha virt. eigenvalues --    0.99659   1.00311   1.00801   1.00944   1.01863
 Alpha virt. eigenvalues --    1.02207   1.03020   1.03840   1.04510   1.04758
 Alpha virt. eigenvalues --    1.05835   1.06309   1.07039   1.07697   1.07984
 Alpha virt. eigenvalues --    1.09286   1.09429   1.10175   1.10940   1.12250
 Alpha virt. eigenvalues --    1.13044   1.14004   1.14145   1.14557   1.14868
 Alpha virt. eigenvalues --    1.16828   1.17139   1.17493   1.18223   1.18747
 Alpha virt. eigenvalues --    1.19240   1.20638   1.21313   1.22511   1.23693
 Alpha virt. eigenvalues --    1.24319   1.24937   1.25270   1.26271   1.26874
 Alpha virt. eigenvalues --    1.27713   1.29187   1.29781   1.30058   1.31381
 Alpha virt. eigenvalues --    1.32368   1.33404   1.33709   1.33840   1.34526
 Alpha virt. eigenvalues --    1.35292   1.35793   1.36672   1.36962   1.37855
 Alpha virt. eigenvalues --    1.38154   1.38947   1.39530   1.41128   1.41456
 Alpha virt. eigenvalues --    1.41882   1.43019   1.43598   1.44462   1.45271
 Alpha virt. eigenvalues --    1.45578   1.46361   1.47173   1.48090   1.48610
 Alpha virt. eigenvalues --    1.49641   1.49932   1.50671   1.51780   1.52052
 Alpha virt. eigenvalues --    1.52697   1.53098   1.53408   1.54778   1.55274
 Alpha virt. eigenvalues --    1.56317   1.56918   1.57331   1.58630   1.59425
 Alpha virt. eigenvalues --    1.60374   1.61540   1.61667   1.62562   1.64459
 Alpha virt. eigenvalues --    1.65128   1.65469   1.66596   1.67213   1.67345
 Alpha virt. eigenvalues --    1.69115   1.69464   1.69523   1.70051   1.70686
 Alpha virt. eigenvalues --    1.70830   1.71098   1.71340   1.71784   1.72337
 Alpha virt. eigenvalues --    1.73074   1.73391   1.73762   1.74298   1.74674
 Alpha virt. eigenvalues --    1.75126   1.76111   1.76533   1.76988   1.77655
 Alpha virt. eigenvalues --    1.79028   1.79643   1.79949   1.80252   1.80651
 Alpha virt. eigenvalues --    1.81013   1.81548   1.81975   1.82645   1.83256
 Alpha virt. eigenvalues --    1.83987   1.84374   1.84942   1.85223   1.85867
 Alpha virt. eigenvalues --    1.86426   1.87335   1.87592   1.87668   1.88212
 Alpha virt. eigenvalues --    1.89194   1.89498   1.89885   1.90341   1.91031
 Alpha virt. eigenvalues --    1.91630   1.92048   1.92422   1.92658   1.93348
 Alpha virt. eigenvalues --    1.93896   1.94167   1.94511   1.95404   1.96155
 Alpha virt. eigenvalues --    1.96623   1.97108   1.97718   1.97955   1.98752
 Alpha virt. eigenvalues --    1.99721   2.00208   2.01351   2.02800   2.03320
 Alpha virt. eigenvalues --    2.04089   2.04814   2.05365   2.05704   2.06521
 Alpha virt. eigenvalues --    2.06848   2.07444   2.08060   2.08778   2.09158
 Alpha virt. eigenvalues --    2.10222   2.10828   2.11507   2.13448   2.13709
 Alpha virt. eigenvalues --    2.14151   2.14394   2.15152   2.17219   2.17840
 Alpha virt. eigenvalues --    2.18463   2.19050   2.20497   2.21579   2.22034
 Alpha virt. eigenvalues --    2.22963   2.23276   2.24456   2.27014   2.27586
 Alpha virt. eigenvalues --    2.27953   2.28763   2.29225   2.29705   2.29783
 Alpha virt. eigenvalues --    2.30142   2.30904   2.31784   2.32029   2.33202
 Alpha virt. eigenvalues --    2.33650   2.34395   2.35200   2.35263   2.37104
 Alpha virt. eigenvalues --    2.37344   2.38255   2.39303   2.39956   2.40392
 Alpha virt. eigenvalues --    2.40934   2.42123   2.42433   2.43324   2.44307
 Alpha virt. eigenvalues --    2.45228   2.45320   2.46215   2.46855   2.47632
 Alpha virt. eigenvalues --    2.47920   2.49067   2.50523   2.51706   2.53012
 Alpha virt. eigenvalues --    2.53630   2.54093   2.54547   2.54889   2.55529
 Alpha virt. eigenvalues --    2.55791   2.56130   2.56623   2.58351   2.59006
 Alpha virt. eigenvalues --    2.59845   2.61775   2.61796   2.63450   2.63809
 Alpha virt. eigenvalues --    2.64303   2.66638   2.67543   2.68974   2.69372
 Alpha virt. eigenvalues --    2.70327   2.72470   2.73466   2.74622   2.75949
 Alpha virt. eigenvalues --    2.76736   2.78407   2.80732   2.82533   2.82673
 Alpha virt. eigenvalues --    2.84780   2.85695   2.89094   2.90366   2.91017
 Alpha virt. eigenvalues --    2.91924   2.92151   2.93740   2.95673   2.96077
 Alpha virt. eigenvalues --    2.97898   3.02372   3.03372   3.03882   3.04651
 Alpha virt. eigenvalues --    3.05750   3.10695   3.14616   3.33009   3.67093
 Alpha virt. eigenvalues --    3.71871   3.73205   3.76050   3.78100   3.83923
 Alpha virt. eigenvalues --    3.86870   3.91260   3.92752   3.94788   4.00635
 Alpha virt. eigenvalues --    4.03369   4.04276   4.05790   4.06892   4.07177
 Alpha virt. eigenvalues --    4.08783   4.09966   4.10953   4.14322   4.15605
 Alpha virt. eigenvalues --    4.17019   4.19090   4.20457   4.23099   4.24055
 Alpha virt. eigenvalues --    4.27458   4.29563   4.31570   4.32762   4.34786
 Alpha virt. eigenvalues --    4.37640   4.39108   4.43792   4.46325   4.47032
 Alpha virt. eigenvalues --    4.48351   4.53927   4.56830   4.57059   4.64330
 Alpha virt. eigenvalues --    4.70036
          Condensed to atoms (all electrons):
 Mulliken charges:
               1
     1  N   -0.683405
     2  H    0.306514
     3  H    0.306637
     4  C   -0.100043
     5  H    0.166581
     6  C    0.581302
     7  C   -0.266198
     8  H    0.157439
     9  H    0.184191
    10  O   -0.545547
    11  C   -0.377733
    12  H    0.173688
    13  H    0.190836
    14  C    0.605589
    15  O   -0.465719
    16  O   -0.564002
    17  N   -0.636339
    18  H    0.348459
    19  C   -0.035786
    20  H    0.198041
    21  C    0.606069
    22  C   -0.369285
    23  H    0.177204
    24  H    0.161074
    25  O   -0.544665
    26  C    0.082018
    27  C    0.033242
    28  H    0.184830
    29  C    0.069798
    30  C    0.325604
    31  C   -0.234503
    32  H    0.151885
    33  N   -0.685895
    34  H    0.344897
    35  C   -0.224423
    36  H    0.148867
    37  C   -0.168263
    38  H    0.147885
    39  C   -0.162324
    40  H    0.146725
    41  N   -0.602638
    42  H    0.364897
    43  C   -0.078271
    44  H    0.185143
    45  C    0.622905
    46  C    0.116111
    47  H    0.146524
    48  O   -0.542399
    49  C   -0.449546
    50  H    0.149513
    51  H    0.175231
    52  H    0.163403
    53  O   -0.651354
    54  H    0.422353
    55  N   -0.605468
    56  H    0.378371
    57  C   -0.042122
    58  H    0.207662
    59  C    0.582381
    60  C   -0.295674
    61  H    0.162127
    62  H    0.183225
    63  O   -0.447549
    64  C   -0.285935
    65  H    0.147978
    66  H    0.183062
    67  C   -0.208595
    68  H    0.178858
    69  H    0.233504
    70  N   -0.596567
    71  H    0.381004
    72  N   -0.763310
    73  H    0.380777
    74  H    0.390959
    75  N   -0.785931
    76  H    0.396084
    77  H    0.371903
    78  C    0.825385
    79  O   -0.567151
    80  H    0.419695
    81  H    0.418211
 Sum of Mulliken charges =   1.00000
 Mulliken charges with hydrogens summed into heavy atoms:
               1
     1  N   -0.070253
     4  C    0.066538
     6  C    0.581302
     7  C    0.075433
    10  O   -0.545547
    11  C   -0.013210
    14  C    0.605589
    15  O   -0.465719
    16  O   -0.145791
    17  N   -0.287880
    19  C    0.162255
    21  C    0.606069
    22  C   -0.031007
    25  O   -0.544665
    26  C    0.082018
    27  C    0.218071
    29  C    0.069798
    30  C    0.325604
    31  C   -0.082619
    33  N   -0.340999
    35  C   -0.075557
    37  C   -0.020378
    39  C   -0.015599
    41  N   -0.237741
    43  C    0.106872
    45  C    0.622905
    46  C    0.262635
    48  O   -0.542399
    49  C    0.038601
    53  O   -0.229001
    55  N   -0.227096
    57  C    0.165540
    59  C    0.582381
    60  C    0.049679
    63  O   -0.447549
    64  C    0.045105
    67  C    0.203767
    70  N   -0.215563
    72  N    0.008426
    75  N   -0.017944
    78  C    0.825385
    79  O   -0.147456
 Electronic spatial extent (au):  <R**2>=          25006.4623
 Charge=              1.0000 electrons
 Dipole moment (field-independent basis, Debye):
    X=              9.0951    Y=             -8.0894    Z=            -21.0131  Tot=             24.2840
 Quadrupole moment (field-independent basis, Debye-Ang):
   XX=           -197.3693   YY=           -197.0655   ZZ=           -104.4291
   XY=            -34.1887   XZ=            -46.3766   YZ=             49.4475
 Traceless Quadrupole moment (field-independent basis, Debye-Ang):
   XX=            -31.0813   YY=            -30.7775   ZZ=             61.8589
   XY=            -34.1887   XZ=            -46.3766   YZ=             49.4475
 Octapole moment (field-independent basis, Debye-Ang**2):
  XXX=           -366.2686  YYY=             36.4432  ZZZ=            -96.5220  XYY=            -77.1963
  XXY=            -83.5465  XXZ=             19.6157  XZZ=            121.6507  YZZ=           -196.1839
  YYZ=             19.4719  XYZ=            196.9838
 Hexadecapole moment (field-independent basis, Debye-Ang**3):
 XXXX=          -7734.5811 YYYY=          -4716.4119 ZZZZ=         -10926.3626 XXXY=           -546.7298
 XXXZ=           -182.0945 YYYX=           -586.3772 YYYZ=           -475.5841 ZZZX=           -585.1282
 ZZZY=            398.7781 XXYY=          -2037.5946 XXZZ=          -3500.4854 YYZZ=          -2536.9465
 XXYZ=            418.2443 YYXZ=            -71.1317 ZZXY=           -898.0736
 N-N= 5.491470918756D+03 E-N=-1.574152699153D+04  KE= 2.034926737299D+03
 Unable to Open any file for archive entry.
 1\1\GINC-VIM-002\SP\RB3LYP\6-31G(d)\C26H39N8O8(1+)\KENGMITH\26-May-202
 2\0\\# B3LYP/6-31G* guess=read geom=check nosymm integral(ultrafinegri
 d)\\Candidate Structure: Conf:472 Charge calc in gas phase\\1,1\N,0,-2
 .1698719965,-3.3183547918,1.3403497955\H,0,-2.3051219966,-3.7138267289
 ,0.4111777218\H,0,-1.2116528076,-3.5617993241,1.5867002253\C,0,-2.3016
 607648,-1.8697177446,1.2712640629\H,0,-3.2875211589,-1.6656603008,0.82
 66573216\C,0,-1.2718487759,-1.217362321,0.312598671\C,0,-2.3052409734,
 -1.2558222372,2.6860641837\H,0,-2.5066006313,-0.1800009669,2.656006873
 3\H,0,-3.1454889526,-1.7030283907,3.2266877042\O,0,-0.5304974185,-1.89
 77355867,-0.3995958132\C,0,-1.0117727286,-1.4905061637,3.4748270578\H,
 0,-0.1201162865,-1.2727364384,2.8667555096\H,0,-0.9184898499,-2.529243
 5975,3.8057112827\C,0,-0.9054445104,-0.5738312777,4.6794448955\O,0,-1.
 4670578965,0.4934312772,4.7971681912\O,0,-0.0658489046,-1.0783030525,5
 .607274635\N,0,-1.2455338728,0.154677755,0.2701160261\H,0,-1.987809610
 2,0.645046386,0.755666307\C,0,-0.5573696119,0.8681322729,-0.8007685591
 \H,0,-0.0903842077,0.0874472117,-1.4083049999\C,0,0.6245048663,1.74105
 51945,-0.3471664092\C,0,-1.513977638,1.6793108964,-1.7224347573\H,0,-1
 .5213925298,2.7318913993,-1.4221257677\H,0,-2.5299776004,1.2949020416,
 -1.5615699796\O,0,1.2212157214,2.4402446333,-1.1699300042\C,0,-1.15870
 12316,1.5903533144,-3.1798828119\C,0,-0.678965615,2.609013059,-3.96574
 93185\H,0,-0.4423879778,3.6272821105,-3.6901720941\C,0,-1.2678964055,0
 .4380042197,-4.0379784009\C,0,-0.8571027598,0.8441683265,-5.3460192801
 \C,0,-1.6851111968,-0.8949590256,-3.8451320625\H,0,-2.0027449472,-1.23
 93463778,-2.8640645161\N,0,-0.4930858402,2.1693223308,-5.2603204654\H,
 0,-0.1981811087,2.7515786763,-6.0296268488\C,0,-1.3349986303,-1.329264
 6461,-6.2254393008\H,0,-1.4154564115,-2.0140605421,-7.0669476103\C,0,-
 0.8886576723,-0.0235140081,-6.4419196456\H,0,-0.6013351955,0.311368063
 9,-7.4357189403\C,0,-1.7214818963,-1.7624440105,-4.9361952286\H,0,-2.0
 7808102,-2.7800007742,-4.8021310142\N,0,0.9969016141,1.6250579965,0.94
 87526485\H,0,0.5377252574,0.9179064832,1.5157045321\C,0,2.2759120475,2
 .1045016896,1.4789038724\H,0,2.4867580638,3.0855286621,1.0410956456\C,
 0,3.3366455509,1.0739917246,1.0348161478\C,0,2.1888991563,2.202343306,
 3.0177416497\H,0,3.2024018964,2.4319957715,3.3801696085\O,0,3.70504372
 74,0.1555312345,1.7711381688\C,0,1.2331460602,3.2899776385,3.488864387
 9\H,0,1.5187119444,4.2654127422,3.080150056\H,0,1.2578424044,3.3507857
 951,4.5803186983\H,0,0.2028540019,3.070050555,3.1929683739\O,0,1.74705
 66471,0.9571715239,3.5512304102\H,0,2.4569324808,0.3208349981,3.332301
 8471\N,0,3.7625149048,1.1956508159,-0.2561347768\H,0,3.2789161941,1.89
 04473534,-0.8261690334\C,0,4.3044830528,0.0316250906,-0.9444970723\H,0
 ,4.9039252563,-0.5329215999,-0.2276405727\C,0,5.1913512025,0.518088009
 ,-2.0850494\C,0,3.150843313,-0.8527439076,-1.4923340489\H,0,2.66806618
 66,-0.3061038462,-2.3140109711\H,0,2.4100206949,-0.9473138584,-0.69076
 77076\O,0,4.9926918544,1.5210346212,-2.7303448888\C,0,3.5486255055,-2.
 2610793938,-1.9499421961\H,0,4.346280833,-2.2031561047,-2.7023519444\H
 ,0,3.965165102,-2.8214742313,-1.1034002833\C,0,2.3410623758,-3.0558674
 44,-2.48224335\H,0,2.571471077,-4.124205222,-2.5785957553\H,0,1.502694
 1114,-2.9700824784,-1.7875416376\N,0,1.8340904142,-2.5648461572,-3.780
 1658084\H,0,0.9376745771,-2.083928556,-3.7892555134\N,0,3.5349378751,-
 3.5037775863,-5.0595494436\H,0,3.868185044,-3.8526489427,-5.946049082\
 H,0,4.0688648837,-3.7428900411,-4.2383840303\N,0,1.7491777733,-2.46057
 76618,-6.0934449923\H,0,0.8055423875,-2.0735778969,-6.0875183441\H,0,2
 .206363157,-2.5470552863,-6.9891755155\C,0,2.3662395122,-2.8438937144,
 -4.9684221196\O,0,6.2057794293,-0.3424215611,-2.3360186995\H,0,6.72368
 57069,0.0418960004,-3.0712873427\H,0,0.0307288471,-0.3937936133,6.2970
 914364\\Version=ES64L-G16RevC.01\HF=-2053.9574664\RMSD=3.195e-09\Dipol
 e=1.9078544,-2.8826448,-6.5361808\Quadrupole=-23.1082064,-22.8823374,4
 5.9905437,-25.4184398,-34.4798997,36.7630412\PG=C01 [X(C26H39N8O8)]\\@
 The archive entry for this job was punched.


 "PERFECTION IS NOT AN ACCIDENT"
         --  EAGLE ELECTRIC MANUFACTURING CO.,INC. NY
 Job cpu time:       0 days  0 hours  2 minutes 49.6 seconds.
 Elapsed time:       0 days  0 hours  0 minutes 43.1 seconds.
 File lengths (MBytes):  RWF=    376 Int=      0 D2E=      0 Chk=     56 Scr=     16
 Normal termination of Gaussian 16 at Thu May 26 18:04:13 2022.
