 Entering Gaussian System, Link 0=/opt/software/Gaussian/g16-AVX2-C.01/g16/g16
 Input=charge-conf-305.com
 Output=charge-conf-305.log
 Initial command:
 /opt/software/Gaussian/g16-AVX2-C.01/g16/l1.exe "/mnt/gs18/scratch/users/kengmith/Gau-90711.inp" -scrdir="/mnt/gs18/scratch/users/kengmith/"
 Entering Link 1 = /opt/software/Gaussian/g16-AVX2-C.01/g16/l1.exe PID=     90756.
  
 Copyright (c) 1988-2019, Gaussian, Inc.  All Rights Reserved.
  
 This is part of the Gaussian(R) 16 program.  It is based on
 the Gaussian(R) 09 system (copyright 2009, Gaussian, Inc.),
 the Gaussian(R) 03 system (copyright 2003, Gaussian, Inc.),
 the Gaussian(R) 98 system (copyright 1998, Gaussian, Inc.),
 the Gaussian(R) 94 system (copyright 1995, Gaussian, Inc.),
 the Gaussian 92(TM) system (copyright 1992, Gaussian, Inc.),
 the Gaussian 90(TM) system (copyright 1990, Gaussian, Inc.),
 the Gaussian 88(TM) system (copyright 1988, Gaussian, Inc.),
 the Gaussian 86(TM) system (copyright 1986, Carnegie Mellon
 University), and the Gaussian 82(TM) system (copyright 1983,
 Carnegie Mellon University). Gaussian is a federally registered
 trademark of Gaussian, Inc.
  
 This software contains proprietary and confidential information,
 including trade secrets, belonging to Gaussian, Inc.
  
 This software is provided under written license and may be
 used, copied, transmitted, or stored only in accord with that
 written license.
  
 The following legend is applicable only to US Government
 contracts under FAR:
  
                    RESTRICTED RIGHTS LEGEND
  
 Use, reproduction and disclosure by the US Government is
 subject to restrictions as set forth in subparagraphs (a)
 and (c) of the Commercial Computer Software - Restricted
 Rights clause in FAR 52.227-19.
  
 Gaussian, Inc.
 340 Quinnipiac St., Bldg. 40, Wallingford CT 06492
  
  
 ---------------------------------------------------------------
 Warning -- This program may not be used in any manner that
 competes with the business of Gaussian, Inc. or will provide
 assistance to any competitor of Gaussian, Inc.  The licensee
 of this program is prohibited from giving any competitor of
 Gaussian, Inc. access to this program.  By using this program,
 the user acknowledges that Gaussian, Inc. is engaged in the
 business of creating and licensing software in the field of
 computational chemistry and represents and warrants to the
 licensee that it is not a competitor of Gaussian, Inc. and that
 it will not use this program in any manner prohibited above.
 ---------------------------------------------------------------
  

 Cite this work as:
 Gaussian 16, Revision C.01,
 M. J. Frisch, G. W. Trucks, H. B. Schlegel, G. E. Scuseria, 
 M. A. Robb, J. R. Cheeseman, G. Scalmani, V. Barone, 
 G. A. Petersson, H. Nakatsuji, X. Li, M. Caricato, A. V. Marenich, 
 J. Bloino, B. G. Janesko, R. Gomperts, B. Mennucci, H. P. Hratchian, 
 J. V. Ortiz, A. F. Izmaylov, J. L. Sonnenberg, D. Williams-Young, 
 F. Ding, F. Lipparini, F. Egidi, J. Goings, B. Peng, A. Petrone, 
 T. Henderson, D. Ranasinghe, V. G. Zakrzewski, J. Gao, N. Rega, 
 G. Zheng, W. Liang, M. Hada, M. Ehara, K. Toyota, R. Fukuda, 
 J. Hasegawa, M. Ishida, T. Nakajima, Y. Honda, O. Kitao, H. Nakai, 
 T. Vreven, K. Throssell, J. A. Montgomery, Jr., J. E. Peralta, 
 F. Ogliaro, M. J. Bearpark, J. J. Heyd, E. N. Brothers, K. N. Kudin, 
 V. N. Staroverov, T. A. Keith, R. Kobayashi, J. Normand, 
 K. Raghavachari, A. P. Rendell, J. C. Burant, S. S. Iyengar, 
 J. Tomasi, M. Cossi, J. M. Millam, M. Klene, C. Adamo, R. Cammi, 
 J. W. Ochterski, R. L. Martin, K. Morokuma, O. Farkas, 
 J. B. Foresman, and D. J. Fox, Gaussian, Inc., Wallingford CT, 2019.
 
 ******************************************
 Gaussian 16:  ES64L-G16RevC.01  3-Jul-2019
                27-May-2022 
 ******************************************
 %mem=8gb
 %nproc=4
 Will use up to    4 processors via shared memory.
 %chk=conf-305.chk
 -------------------------------------------------------------------
 # B3LYP/6-31G* guess=read geom=check nosymm integral(ultrafinegrid)
 -------------------------------------------------------------------
 1/29=2,38=1,172=1/1;
 2/12=2,15=1,40=1/2;
 3/5=1,6=6,7=1,11=2,14=-4,25=1,30=1,74=-5,75=-5,116=-2/1,2,3;
 4/5=1/1;
 5/5=2,38=6/2;
 6/7=2,8=2,9=2,10=2,28=1/1;
 99/5=1,9=1/99;
 ------------------------------------------------------
 Candidate Structure: Conf:305 Charge calc in gas phase
 ------------------------------------------------------
 Structure from the checkpoint file:  "conf-305.chk"
 Charge =  1 Multiplicity = 1
 Redundant internal coordinates found in file.  (old form).
 N,0,-7.3952737678,3.7467236005,5.8182908314
 H,0,-6.91888044,4.1502379807,6.6298245447
 H,0,-8.2735893396,3.2403217426,6.1263466046
 H,0,-7.5507164916,4.5133675845,5.1323194206
 C,0,-6.5373787285,2.7399101457,5.0990852782
 H,0,-5.8968563552,2.2514456674,5.8374982145
 C,0,-5.7290425104,3.5702168982,4.0682859103
 C,0,-7.4355021844,1.7076174407,4.3841347619
 H,0,-7.9814745086,2.2092577026,3.5735495384
 H,0,-6.7917042508,0.9573063821,3.9153660165
 O,0,-6.1830354856,4.6696058594,3.7424125634
 C,0,-8.4729150691,1.0724534039,5.3156539582
 N,0,-8.7560860059,-0.2237168773,5.1207761933
 H,0,-9.4853716444,-0.6506971261,5.6801438255
 H,0,-8.3095033886,-0.7840582566,4.408856889
 O,0,-9.0378499641,1.7527191776,6.1851402276
 N,0,-4.6160496981,2.9960370914,3.6074308181
 H,0,-4.3959930488,2.0266789099,3.8341691869
 C,0,-3.8315587196,3.4799864482,2.4648316883
 H,0,-4.4359455444,4.2246264351,1.9369155569
 C,0,-3.6350235547,2.2110427761,1.6032180413
 C,0,-2.4839082397,4.1276524286,2.9141124056
 H,0,-1.9152614663,3.3421741368,3.4336485792
 O,0,-3.6369858007,1.1017454598,2.1424196605
 C,0,-2.7421395738,5.278364659,3.9110328392
 H,0,-3.4025773674,4.9190421931,4.7092034507
 H,0,-3.289057445,6.0820502498,3.3987916719
 C,0,-1.6644613048,4.5960407014,1.7001469845
 H,0,-2.2269922075,5.3312914374,1.1069247075
 H,0,-0.7477880453,5.0902873375,2.0316020524
 H,0,-1.3617086184,3.7680807703,1.0535371854
 C,0,-1.4727859223,5.8442326516,4.5598751554
 H,0,-1.7336340344,6.5873537194,5.3208160454
 H,0,-0.8909569178,5.0550699953,5.0514879814
 H,0,-0.8192729116,6.3395963229,3.8356520729
 N,0,-3.5160379317,2.3816795001,0.2672569009
 H,0,-3.3521755907,3.3159504793,-0.0855510857
 C,0,-3.1663850966,1.2682484406,-0.6096002002
 H,0,-3.8069149396,0.4264155418,-0.3305634173
 C,0,-1.6878669761,0.8744150874,-0.4062836867
 C,0,-3.4120940814,1.6633350105,-2.0713891245
 H,0,-3.1910168222,0.8243755947,-2.737307723
 H,0,-4.456189101,1.9547612874,-2.2206301667
 H,0,-2.7651096273,2.4997466234,-2.3592583536
 O,0,-0.828236569,1.7258899511,-0.1581987429
 N,0,-1.4060253974,-0.4336692867,-0.5677206824
 H,0,-2.1144462403,-1.1106998756,-0.8328255034
 C,0,-0.0592645667,-0.9855519446,-0.4316360041
 H,0,0.4493376454,-0.436239766,0.3678792483
 C,0,0.7214182924,-0.7944885434,-1.7502138885
 C,0,-0.1784851949,-2.4852382136,-0.0817451514
 H,0,0.8292800003,-2.9173618197,-0.1415542013
 O,0,0.9225206313,-1.7396958554,-2.5280500934
 C,0,-0.7512698544,-2.7284661048,1.3082151416
 H,0,-0.0894993585,-2.3174361676,2.0781248504
 H,0,-0.8537055322,-3.8043817289,1.4740926753
 H,0,-1.7385009658,-2.2677557803,1.4197677737
 O,0,-1.0389438995,-3.1072066688,-1.0330308588
 H,0,-0.5462644465,-3.0724643071,-1.875944361
 N,0,1.1471223802,0.4628051,-1.9839487677
 H,0,0.8786175458,1.1754633849,-1.3073468359
 C,0,1.7432112028,0.8942413473,-3.2527685605
 H,0,1.262399535,0.3323900018,-4.0616581493
 C,0,3.2642866793,0.6033675215,-3.2957217446
 C,0,1.4840128185,2.3982234946,-3.4499404029
 H,0,1.882083135,2.9454901351,-2.5804171805
 H,0,0.40270811,2.5687523287,-3.4904862038
 O,0,4.0881893673,1.5160401105,-3.3516837896
 O,0,2.0298564103,2.8636125669,-4.6583265982
 H,0,2.9957203026,2.8049466647,-4.5350242153
 N,0,3.5893103381,-0.7157230804,-3.286960298
 H,0,2.8276694866,-1.3825556189,-3.1773037522
 C,0,4.9634677912,-1.186027932,-3.1978803953
 H,0,5.6102101059,-0.3049535239,-3.2452702743
 H,0,5.1492241719,-1.6852276527,-2.2411139495
 C,0,5.3984076038,-2.1638368978,-4.2955910155
 O,0,6.3552303624,-2.9036398984,-4.1172332777
 N,0,4.6673248767,-2.1440124817,-5.4475703367
 H,0,4.0336474422,-1.3687327723,-5.5916934336
 C,0,5.1068617884,-2.8955729507,-6.6142730591
 H,0,5.3546335151,-3.9086692613,-6.2875359871
 C,0,6.3915870169,-2.3378942557,-7.2336290543
 C,0,3.9733685095,-2.9460744,-7.6625052437
 H,0,3.0539716045,-3.2160949519,-7.1257935748
 H,0,3.8172114857,-1.9346707065,-8.0672199567
 O,0,7.1825298213,-2.9920866787,-7.8720800192
 C,0,4.2103072041,-3.9430321091,-8.8033669549
 H,0,5.1607145838,-3.7209669853,-9.302936197
 H,0,4.3066049129,-4.9556266489,-8.3958560106
 C,0,3.0778282203,-3.9320395518,-9.8374539532
 H,0,3.0261662504,-2.9499040695,-10.3287051324
 H,0,2.1091653408,-4.0717610436,-9.3319138432
 C,0,3.233994208,-5.0126069891,-10.9147587453
 H,0,2.4971094019,-4.8278461146,-11.7169970391
 H,0,4.226062774,-4.9196558856,-11.3746063654
 N,0,3.1431033264,-6.3552187183,-10.3265749312
 H,0,3.4067215162,-7.0564416479,-11.0161773118
 H,0,2.1747524066,-6.5544965654,-10.0775212153
 O,0,6.5200713643,-1.0010418436,-7.0460277617
 H,0,7.350778401,-0.7479896438,-7.49167667
 Recover connectivity data from disk.
                           ----------------------------
                           !    Current Parameters    !
                           ! (Angstroms and Degrees)  !
 --------------------------                            --------------------------
 ! Name  Definition              Value                                          !
 --------------------------------------------------------------------------------
 ! R1    R(1,2)                  1.0239                                         !
 ! R2    R(1,3)                  1.0596                                         !
 ! R3    R(1,4)                  1.0404                                         !
 ! R4    R(1,5)                  1.5056                                         !
 ! R5    R(5,6)                  1.0928                                         !
 ! R6    R(5,7)                  1.5509                                         !
 ! R7    R(5,8)                  1.5438                                         !
 ! R8    R(7,11)                 1.2333                                         !
 ! R9    R(7,17)                 1.3345                                         !
 ! R10   R(8,9)                  1.0985                                         !
 ! R11   R(8,10)                 1.0942                                         !
 ! R12   R(8,12)                 1.5321                                         !
 ! R13   R(12,13)                1.341                                          !
 ! R14   R(12,16)                1.2401                                         !
 ! R15   R(13,14)                1.0134                                         !
 ! R16   R(13,15)                1.0101                                         !
 ! R17   R(17,18)                1.0196                                         !
 ! R18   R(17,19)                1.468                                          !
 ! R19   R(19,20)                1.0947                                         !
 ! R20   R(19,21)                1.5464                                         !
 ! R21   R(19,22)                1.5612                                         !
 ! R22   R(21,24)                1.2334                                         !
 ! R23   R(21,36)                1.3521                                         !
 ! R24   R(22,23)                1.1001                                         !
 ! R25   R(22,25)                1.5442                                         !
 ! R26   R(22,28)                1.5377                                         !
 ! R27   R(25,26)                1.0965                                         !
 ! R28   R(25,27)                1.0988                                         !
 ! R29   R(25,32)                1.5338                                         !
 ! R30   R(28,29)                1.0995                                         !
 ! R31   R(28,30)                1.0929                                         !
 ! R32   R(28,31)                1.0933                                         !
 ! R33   R(32,33)                1.0951                                         !
 ! R34   R(32,34)                1.0968                                         !
 ! R35   R(32,35)                1.0941                                         !
 ! R36   R(36,37)                1.012                                          !
 ! R37   R(36,38)                1.4597                                         !
 ! R38   R(38,39)                1.094                                          !
 ! R39   R(38,40)                1.5435                                         !
 ! R40   R(38,41)                1.534                                          !
 ! R41   R(40,45)                1.2351                                         !
 ! R42   R(40,46)                1.3478                                         !
 ! R43   R(41,42)                1.0937                                         !
 ! R44   R(41,43)                1.0942                                         !
 ! R45   R(41,44)                1.0959                                         !
 ! R46   R(46,47)                1.0151                                         !
 ! R47   R(46,48)                1.4618                                         !
 ! R48   R(48,49)                1.0953                                         !
 ! R49   R(48,50)                1.5442                                         !
 ! R50   R(48,51)                1.5446                                         !
 ! R51   R(50,53)                1.2405                                         !
 ! R52   R(50,60)                1.3478                                         !
 ! R53   R(51,52)                1.0981                                         !
 ! R54   R(51,54)                1.5229                                         !
 ! R55   R(51,58)                1.4255                                         !
 ! R56   R(54,55)                1.0953                                         !
 ! R57   R(54,56)                1.0934                                         !
 ! R58   R(54,57)                1.0951                                         !
 ! R59   R(58,59)                0.977                                          !
 ! R60   R(60,61)                1.0187                                         !
 ! R61   R(60,62)                1.4668                                         !
 ! R62   R(62,63)                1.096                                          !
 ! R63   R(62,64)                1.5492                                         !
 ! R64   R(62,65)                1.5388                                         !
 ! R65   R(64,68)                1.2308                                         !
 ! R66   R(64,71)                1.3586                                         !
 ! R67   R(65,66)                1.1018                                         !
 ! R68   R(65,67)                1.0954                                         !
 ! R69   R(65,69)                1.4053                                         !
 ! R70   R(69,70)                0.9755                                         !
 ! R71   R(71,72)                1.0182                                         !
 ! R72   R(71,73)                1.4551                                         !
 ! R73   R(73,74)                1.094                                          !
 ! R74   R(73,75)                1.095                                          !
 ! R75   R(73,76)                1.5331                                         !
 ! R76   R(76,77)                1.2226                                         !
 ! R77   R(76,78)                1.3645                                         !
 ! R78   R(78,79)                1.0116                                         !
 ! R79   R(78,80)                1.4558                                         !
 ! R80   R(80,81)                1.0929                                         !
 ! R81   R(80,82)                1.5314                                         !
 ! R82   R(80,83)                1.5447                                         !
 ! R83   R(82,86)                1.2088                                         !
 ! R84   R(82,99)                1.3561                                         !
 ! R85   R(83,84)                1.0983                                         !
 ! R86   R(83,85)                1.1005                                         !
 ! R87   R(83,87)                1.5335                                         !
 ! R88   R(87,88)                1.0964                                         !
 ! R89   R(87,89)                1.0958                                         !
 ! R90   R(87,90)                1.5336                                         !
 ! R91   R(90,91)                1.0994                                         !
 ! R92   R(90,92)                1.1015                                         !
 ! R93   R(90,93)                1.5338                                         !
 ! R94   R(93,94)                1.1049                                         !
 ! R95   R(93,95)                1.0974                                         !
 ! R96   R(93,96)                1.4686                                         !
 ! R97   R(96,97)                1.0182                                         !
 ! R98   R(96,98)                1.0195                                         !
 ! R99   R(99,100)               0.9761                                         !
 ! A1    A(2,1,3)              110.0954                                         !
 ! A2    A(2,1,4)              107.5595                                         !
 ! A3    A(2,1,5)              112.1497                                         !
 ! A4    A(3,1,4)              114.8344                                         !
 ! A5    A(3,1,5)              106.9535                                         !
 ! A6    A(4,1,5)              105.2437                                         !
 ! A7    A(1,5,6)              108.066                                          !
 ! A8    A(1,5,7)              104.86                                           !
 ! A9    A(1,5,8)              109.6862                                         !
 ! A10   A(6,5,7)              112.5149                                         !
 ! A11   A(6,5,8)              110.7957                                         !
 ! A12   A(7,5,8)              110.6946                                         !
 ! A13   A(5,7,11)             117.4517                                         !
 ! A14   A(5,7,17)             115.7137                                         !
 ! A15   A(11,7,17)            126.8218                                         !
 ! A16   A(5,8,9)              108.9962                                         !
 ! A17   A(5,8,10)             108.3387                                         !
 ! A18   A(5,8,12)             112.9264                                         !
 ! A19   A(9,8,10)             106.8247                                         !
 ! A20   A(9,8,12)             107.5424                                         !
 ! A21   A(10,8,12)            111.9999                                         !
 ! A22   A(8,12,13)            117.0868                                         !
 ! A23   A(8,12,16)            120.4859                                         !
 ! A24   A(13,12,16)           122.4057                                         !
 ! A25   A(12,13,14)           118.6192                                         !
 ! A26   A(12,13,15)           123.0439                                         !
 ! A27   A(14,13,15)           118.2591                                         !
 ! A28   A(7,17,18)            120.8169                                         !
 ! A29   A(7,17,19)            124.9341                                         !
 ! A30   A(18,17,19)           111.7881                                         !
 ! A31   A(17,19,20)           107.7301                                         !
 ! A32   A(17,19,21)           103.36                                           !
 ! A33   A(17,19,22)           111.9654                                         !
 ! A34   A(20,19,21)           111.0783                                         !
 ! A35   A(20,19,22)           109.46                                           !
 ! A36   A(21,19,22)           113.02                                           !
 ! A37   A(19,21,24)           119.62                                           !
 ! A38   A(19,21,36)           117.2694                                         !
 ! A39   A(24,21,36)           123.0661                                         !
 ! A40   A(19,22,23)           106.6119                                         !
 ! A41   A(19,22,25)           110.5214                                         !
 ! A42   A(19,22,28)           111.0491                                         !
 ! A43   A(23,22,25)           108.2767                                         !
 ! A44   A(23,22,28)           108.3521                                         !
 ! A45   A(25,22,28)           111.826                                          !
 ! A46   A(22,25,26)           109.0536                                         !
 ! A47   A(22,25,27)           109.1049                                         !
 ! A48   A(22,25,32)           114.1815                                         !
 ! A49   A(26,25,27)           106.2138                                         !
 ! A50   A(26,25,32)           108.1455                                         !
 ! A51   A(27,25,32)           109.8334                                         !
 ! A52   A(22,28,29)           110.9149                                         !
 ! A53   A(22,28,30)           110.1996                                         !
 ! A54   A(22,28,31)           112.5696                                         !
 ! A55   A(29,28,30)           106.8781                                         !
 ! A56   A(29,28,31)           109.2078                                         !
 ! A57   A(30,28,31)           106.8331                                         !
 ! A58   A(25,32,33)           110.3142                                         !
 ! A59   A(25,32,34)           111.2957                                         !
 ! A60   A(25,32,35)           112.4182                                         !
 ! A61   A(33,32,34)           107.6468                                         !
 ! A62   A(33,32,35)           107.1573                                         !
 ! A63   A(34,32,35)           107.7951                                         !
 ! A64   A(21,36,37)           118.374                                          !
 ! A65   A(21,36,38)           121.2219                                         !
 ! A66   A(37,36,38)           117.1268                                         !
 ! A67   A(36,38,39)           107.0668                                         !
 ! A68   A(36,38,40)           110.1779                                         !
 ! A69   A(36,38,41)           109.7299                                         !
 ! A70   A(39,38,40)           109.3235                                         !
 ! A71   A(39,38,41)           110.3315                                         !
 ! A72   A(40,38,41)           110.1609                                         !
 ! A73   A(38,40,45)           121.1472                                         !
 ! A74   A(38,40,46)           115.6047                                         !
 ! A75   A(45,40,46)           123.2017                                         !
 ! A76   A(38,41,42)           110.5029                                         !
 ! A77   A(38,41,43)           110.5723                                         !
 ! A78   A(38,41,44)           110.6283                                         !
 ! A79   A(42,41,43)           108.3084                                         !
 ! A80   A(42,41,44)           107.8289                                         !
 ! A81   A(43,41,44)           108.9182                                         !
 ! A82   A(40,46,47)           122.1832                                         !
 ! A83   A(40,46,48)           123.224                                          !
 ! A84   A(47,46,48)           114.548                                          !
 ! A85   A(46,48,49)           107.8439                                         !
 ! A86   A(46,48,50)           109.8503                                         !
 ! A87   A(46,48,51)           108.4539                                         !
 ! A88   A(49,48,50)           109.0559                                         !
 ! A89   A(49,48,51)           110.9428                                         !
 ! A90   A(50,48,51)           110.6454                                         !
 ! A91   A(48,50,53)           121.5394                                         !
 ! A92   A(48,50,60)           115.0348                                         !
 ! A93   A(53,50,60)           123.4237                                         !
 ! A94   A(48,51,52)           107.3915                                         !
 ! A95   A(48,51,54)           113.0079                                         !
 ! A96   A(48,51,58)           108.6053                                         !
 ! A97   A(52,51,54)           109.3916                                         !
 ! A98   A(52,51,58)           110.2364                                         !
 ! A99   A(54,51,58)           108.2012                                         !
 ! A100  A(51,54,55)           110.7558                                         !
 ! A101  A(51,54,56)           109.3203                                         !
 ! A102  A(51,54,57)           111.3974                                         !
 ! A103  A(55,54,56)           108.6161                                         !
 ! A104  A(55,54,57)           108.3725                                         !
 ! A105  A(56,54,57)           108.303                                          !
 ! A106  A(51,58,59)           104.8236                                         !
 ! A107  A(50,60,61)           117.0104                                         !
 ! A108  A(50,60,62)           123.5565                                         !
 ! A109  A(61,60,62)           118.4173                                         !
 ! A110  A(60,62,63)           108.0215                                         !
 ! A111  A(60,62,64)           111.5782                                         !
 ! A112  A(60,62,65)           109.2607                                         !
 ! A113  A(63,62,64)           108.3016                                         !
 ! A114  A(63,62,65)           109.4252                                         !
 ! A115  A(64,62,65)           110.2016                                         !
 ! A116  A(62,64,68)           121.283                                          !
 ! A117  A(62,64,71)           114.6459                                         !
 ! A118  A(68,64,71)           124.0637                                         !
 ! A119  A(62,65,66)           108.8729                                         !
 ! A120  A(62,65,67)           108.854                                          !
 ! A121  A(62,65,69)           111.6189                                         !
 ! A122  A(66,65,67)           107.9697                                         !
 ! A123  A(66,65,69)           111.949                                          !
 ! A124  A(67,65,69)           107.4601                                         !
 ! A125  A(65,69,70)           104.8325                                         !
 ! A126  A(64,71,72)           117.2327                                         !
 ! A127  A(64,71,73)           122.6925                                         !
 ! A128  A(72,71,73)           119.2172                                         !
 ! A129  A(71,73,74)           107.1771                                         !
 ! A130  A(71,73,75)           111.1629                                         !
 ! A131  A(71,73,76)           115.4822                                         !
 ! A132  A(74,73,75)           107.741                                          !
 ! A133  A(74,73,76)           108.3575                                         !
 ! A134  A(75,73,76)           106.6619                                         !
 ! A135  A(73,76,77)           120.2348                                         !
 ! A136  A(73,76,78)           116.3098                                         !
 ! A137  A(77,76,78)           123.4549                                         !
 ! A138  A(76,78,79)           117.841                                          !
 ! A139  A(76,78,80)           120.4865                                         !
 ! A140  A(79,78,80)           118.0734                                         !
 ! A141  A(78,80,81)           107.9031                                         !
 ! A142  A(78,80,82)           112.9189                                         !
 ! A143  A(78,80,83)           109.8267                                         !
 ! A144  A(81,80,82)           105.5623                                         !
 ! A145  A(81,80,83)           109.8107                                         !
 ! A146  A(82,80,83)           110.6741                                         !
 ! A147  A(80,82,86)           124.4346                                         !
 ! A148  A(80,82,99)           112.4915                                         !
 ! A149  A(86,82,99)           122.9977                                         !
 ! A150  A(80,83,84)           106.8991                                         !
 ! A151  A(80,83,85)           108.8826                                         !
 ! A152  A(80,83,87)           114.376                                          !
 ! A153  A(84,83,85)           106.6711                                         !
 ! A154  A(84,83,87)           109.4546                                         !
 ! A155  A(85,83,87)           110.2314                                         !
 ! A156  A(83,87,88)           109.9519                                         !
 ! A157  A(83,87,89)           109.7355                                         !
 ! A158  A(83,87,90)           112.5124                                         !
 ! A159  A(88,87,89)           106.2861                                         !
 ! A160  A(88,87,90)           109.3548                                         !
 ! A161  A(89,87,90)           108.8011                                         !
 ! A162  A(87,90,91)           110.0238                                         !
 ! A163  A(87,90,92)           109.8158                                         !
 ! A164  A(87,90,93)           113.1637                                         !
 ! A165  A(91,90,92)           106.0854                                         !
 ! A166  A(91,90,93)           108.6814                                         !
 ! A167  A(92,90,93)           108.8152                                         !
 ! A168  A(90,93,94)           108.9215                                         !
 ! A169  A(90,93,95)           109.0677                                         !
 ! A170  A(90,93,96)           110.8823                                         !
 ! A171  A(94,93,95)           106.5293                                         !
 ! A172  A(94,93,96)           113.7286                                         !
 ! A173  A(95,93,96)           107.53                                           !
 ! A174  A(93,96,97)           110.0184                                         !
 ! A175  A(93,96,98)           109.5913                                         !
 ! A176  A(97,96,98)           106.0658                                         !
 ! A177  A(82,99,100)          105.8464                                         !
 ! D1    D(2,1,5,6)             31.7136                                         !
 ! D2    D(2,1,5,7)            -88.5028                                         !
 ! D3    D(2,1,5,8)            152.5999                                         !
 ! D4    D(3,1,5,6)            -89.0773                                         !
 ! D5    D(3,1,5,7)            150.7063                                         !
 ! D6    D(3,1,5,8)             31.809                                          !
 ! D7    D(4,1,5,6)            148.364                                          !
 ! D8    D(4,1,5,7)             28.1475                                         !
 ! D9    D(4,1,5,8)            -90.7498                                         !
 ! D10   D(1,5,7,11)           -21.5311                                         !
 ! D11   D(1,5,7,17)           159.6783                                         !
 ! D12   D(6,5,7,11)          -138.7441                                         !
 ! D13   D(6,5,7,17)            42.4652                                         !
 ! D14   D(8,5,7,11)            96.6848                                         !
 ! D15   D(8,5,7,17)           -82.1058                                         !
 ! D16   D(1,5,8,9)             67.1488                                         !
 ! D17   D(1,5,8,10)          -176.9639                                         !
 ! D18   D(1,5,8,12)           -52.3048                                         !
 ! D19   D(6,5,8,9)           -173.6294                                         !
 ! D20   D(6,5,8,10)           -57.7421                                         !
 ! D21   D(6,5,8,12)            66.9171                                         !
 ! D22   D(7,5,8,9)            -48.0855                                         !
 ! D23   D(7,5,8,10)            67.8018                                         !
 ! D24   D(7,5,8,12)          -167.539                                          !
 ! D25   D(5,7,17,18)            7.807                                          !
 ! D26   D(5,7,17,19)          168.5168                                         !
 ! D27   D(11,7,17,18)        -170.8524                                         !
 ! D28   D(11,7,17,19)         -10.1426                                         !
 ! D29   D(5,8,12,13)         -143.4921                                         !
 ! D30   D(5,8,12,16)           38.156                                          !
 ! D31   D(9,8,12,13)           96.2188                                         !
 ! D32   D(9,8,12,16)          -82.1331                                         !
 ! D33   D(10,8,12,13)         -20.8538                                         !
 ! D34   D(10,8,12,16)         160.7943                                         !
 ! D35   D(8,12,13,14)        -175.76                                           !
 ! D36   D(8,12,13,15)           0.9741                                         !
 ! D37   D(16,12,13,14)          2.5578                                         !
 ! D38   D(16,12,13,15)        179.2919                                         !
 ! D39   D(7,17,19,20)         -12.9641                                         !
 ! D40   D(7,17,19,21)        -130.6104                                         !
 ! D41   D(7,17,19,22)         107.4396                                         !
 ! D42   D(18,17,19,20)        149.2454                                         !
 ! D43   D(18,17,19,21)         31.5991                                         !
 ! D44   D(18,17,19,22)        -90.3509                                         !
 ! D45   D(17,19,21,24)        -27.2702                                         !
 ! D46   D(17,19,21,36)        150.3812                                         !
 ! D47   D(20,19,21,24)       -142.5467                                         !
 ! D48   D(20,19,21,36)         35.1047                                         !
 ! D49   D(22,19,21,24)         93.9698                                         !
 ! D50   D(22,19,21,36)        -88.3788                                         !
 ! D51   D(17,19,22,23)         60.7933                                         !
 ! D52   D(17,19,22,25)        -56.6655                                         !
 ! D53   D(17,19,22,28)        178.625                                          !
 ! D54   D(20,19,22,23)       -179.8153                                         !
 ! D55   D(20,19,22,25)         62.7259                                         !
 ! D56   D(20,19,22,28)        -61.9836                                         !
 ! D57   D(21,19,22,23)        -55.4433                                         !
 ! D58   D(21,19,22,25)       -172.9021                                         !
 ! D59   D(21,19,22,28)         62.3884                                         !
 ! D60   D(19,21,36,37)         13.4999                                         !
 ! D61   D(19,21,36,38)        172.4662                                         !
 ! D62   D(24,21,36,37)       -168.9364                                         !
 ! D63   D(24,21,36,38)         -9.9701                                         !
 ! D64   D(19,22,25,26)         50.69                                           !
 ! D65   D(19,22,25,27)        -64.9209                                         !
 ! D66   D(19,22,25,32)        171.7715                                         !
 ! D67   D(23,22,25,26)        -65.7397                                         !
 ! D68   D(23,22,25,27)        178.6495                                         !
 ! D69   D(23,22,25,32)         55.3419                                         !
 ! D70   D(28,22,25,26)        174.9554                                         !
 ! D71   D(28,22,25,27)         59.3446                                         !
 ! D72   D(28,22,25,32)        -63.963                                          !
 ! D73   D(19,22,28,29)         59.1002                                         !
 ! D74   D(19,22,28,30)        177.2508                                         !
 ! D75   D(19,22,28,31)        -63.6006                                         !
 ! D76   D(23,22,28,29)        175.87                                           !
 ! D77   D(23,22,28,30)        -65.9794                                         !
 ! D78   D(23,22,28,31)         53.1692                                         !
 ! D79   D(25,22,28,29)        -64.8696                                         !
 ! D80   D(25,22,28,30)         53.281                                          !
 ! D81   D(25,22,28,31)        172.4296                                         !
 ! D82   D(22,25,32,33)       -174.6893                                         !
 ! D83   D(22,25,32,34)        -55.267                                          !
 ! D84   D(22,25,32,35)         65.7729                                         !
 ! D85   D(26,25,32,33)        -53.1058                                         !
 ! D86   D(26,25,32,34)         66.3166                                         !
 ! D87   D(26,25,32,35)       -172.6435                                         !
 ! D88   D(27,25,32,33)         62.3979                                         !
 ! D89   D(27,25,32,34)       -178.1797                                         !
 ! D90   D(27,25,32,35)        -57.1398                                         !
 ! D91   D(21,36,38,39)         47.4528                                         !
 ! D92   D(21,36,38,40)        -71.3371                                         !
 ! D93   D(21,36,38,41)        167.2037                                         !
 ! D94   D(37,36,38,39)       -153.3302                                         !
 ! D95   D(37,36,38,40)         87.8799                                         !
 ! D96   D(37,36,38,41)        -33.5793                                         !
 ! D97   D(36,38,40,45)        -34.9808                                         !
 ! D98   D(36,38,40,46)        147.4191                                         !
 ! D99   D(39,38,40,45)       -152.3811                                         !
 ! D100  D(39,38,40,46)         30.0188                                         !
 ! D101  D(41,38,40,45)         86.2216                                         !
 ! D102  D(41,38,40,46)        -91.3785                                         !
 ! D103  D(36,38,41,42)       -177.7982                                         !
 ! D104  D(36,38,41,43)        -57.8929                                         !
 ! D105  D(36,38,41,44)         62.8584                                         !
 ! D106  D(39,38,41,42)        -60.0624                                         !
 ! D107  D(39,38,41,43)         59.843                                          !
 ! D108  D(39,38,41,44)       -179.4057                                         !
 ! D109  D(40,38,41,42)         60.7323                                         !
 ! D110  D(40,38,41,43)       -179.3623                                         !
 ! D111  D(40,38,41,44)        -58.611                                          !
 ! D112  D(38,40,46,47)          1.758                                          !
 ! D113  D(38,40,46,48)        179.1916                                         !
 ! D114  D(45,40,46,47)       -175.7873                                         !
 ! D115  D(45,40,46,48)          1.6463                                         !
 ! D116  D(40,46,48,49)         35.9074                                         !
 ! D117  D(40,46,48,50)        -82.8349                                         !
 ! D118  D(40,46,48,51)        156.1244                                         !
 ! D119  D(47,46,48,49)       -146.4804                                         !
 ! D120  D(47,46,48,50)         94.7773                                         !
 ! D121  D(47,46,48,51)        -26.2634                                         !
 ! D122  D(46,48,50,53)       -104.5228                                         !
 ! D123  D(46,48,50,60)         74.9683                                         !
 ! D124  D(49,48,50,53)        137.4838                                         !
 ! D125  D(49,48,50,60)        -43.0251                                         !
 ! D126  D(51,48,50,53)         15.1902                                         !
 ! D127  D(51,48,50,60)       -165.3187                                         !
 ! D128  D(46,48,51,52)        171.1205                                         !
 ! D129  D(46,48,51,54)        -68.1488                                         !
 ! D130  D(46,48,51,58)         51.9182                                         !
 ! D131  D(49,48,51,52)        -70.6113                                         !
 ! D132  D(49,48,51,54)         50.1194                                         !
 ! D133  D(49,48,51,58)        170.1864                                         !
 ! D134  D(50,48,51,52)         50.5719                                         !
 ! D135  D(50,48,51,54)        171.3026                                         !
 ! D136  D(50,48,51,58)        -68.6304                                         !
 ! D137  D(48,50,60,61)         -3.1501                                         !
 ! D138  D(48,50,60,62)       -171.4158                                         !
 ! D139  D(53,50,60,61)        176.3302                                         !
 ! D140  D(53,50,60,62)          8.0646                                         !
 ! D141  D(48,51,54,55)        -63.0353                                         !
 ! D142  D(48,51,54,56)        177.3199                                         !
 ! D143  D(48,51,54,57)         57.6634                                         !
 ! D144  D(52,51,54,55)         56.5508                                         !
 ! D145  D(52,51,54,56)        -63.0941                                         !
 ! D146  D(52,51,54,57)        177.2495                                         !
 ! D147  D(58,51,54,55)        176.6665                                         !
 ! D148  D(58,51,54,56)         57.0216                                         !
 ! D149  D(58,51,54,57)        -62.6348                                         !
 ! D150  D(48,51,58,59)         67.5057                                         !
 ! D151  D(52,51,58,59)        -49.8964                                         !
 ! D152  D(54,51,58,59)       -169.4818                                         !
 ! D153  D(50,60,62,63)         33.6337                                         !
 ! D154  D(50,60,62,64)        -85.2984                                         !
 ! D155  D(50,60,62,65)        152.5906                                         !
 ! D156  D(61,60,62,63)       -134.4773                                         !
 ! D157  D(61,60,62,64)        106.5906                                         !
 ! D158  D(61,60,62,65)        -15.5205                                         !
 ! D159  D(60,62,64,68)       -115.2111                                         !
 ! D160  D(60,62,64,71)         65.7373                                         !
 ! D161  D(63,62,64,68)        126.0235                                         !
 ! D162  D(63,62,64,71)        -53.028                                          !
 ! D163  D(65,62,64,68)          6.3565                                         !
 ! D164  D(65,62,64,71)       -172.6951                                         !
 ! D165  D(60,62,65,66)         56.2369                                         !
 ! D166  D(60,62,65,67)        -61.2317                                         !
 ! D167  D(60,62,65,69)       -179.6807                                         !
 ! D168  D(63,62,65,66)        174.3181                                         !
 ! D169  D(63,62,65,67)         56.8495                                         !
 ! D170  D(63,62,65,69)        -61.5994                                         !
 ! D171  D(64,62,65,66)        -66.6982                                         !
 ! D172  D(64,62,65,67)        175.8332                                         !
 ! D173  D(64,62,65,69)         57.3842                                         !
 ! D174  D(62,64,71,72)         -4.8476                                         !
 ! D175  D(62,64,71,73)       -174.1485                                         !
 ! D176  D(68,64,71,72)        176.1308                                         !
 ! D177  D(68,64,71,73)          6.8299                                         !
 ! D178  D(62,65,69,70)        -68.0399                                         !
 ! D179  D(66,65,69,70)         54.2936                                         !
 ! D180  D(67,65,69,70)        172.6818                                         !
 ! D181  D(64,71,73,74)         -5.5073                                         !
 ! D182  D(64,71,73,75)        111.9879                                         !
 ! D183  D(64,71,73,76)       -126.3374                                         !
 ! D184  D(72,71,73,74)       -174.605                                          !
 ! D185  D(72,71,73,75)        -57.1098                                         !
 ! D186  D(72,71,73,76)         64.5649                                         !
 ! D187  D(71,73,76,77)       -158.7635                                         !
 ! D188  D(71,73,76,78)         21.4755                                         !
 ! D189  D(74,73,76,77)         81.0484                                         !
 ! D190  D(74,73,76,78)        -98.7126                                         !
 ! D191  D(75,73,76,77)        -34.7012                                         !
 ! D192  D(75,73,76,78)        145.5378                                         !
 ! D193  D(73,76,78,79)         13.2631                                         !
 ! D194  D(73,76,78,80)        171.4699                                         !
 ! D195  D(77,76,78,79)       -166.4894                                         !
 ! D196  D(77,76,78,80)         -8.2826                                         !
 ! D197  D(76,78,80,81)         48.5082                                         !
 ! D198  D(76,78,80,82)        -67.7675                                         !
 ! D199  D(76,78,80,83)        168.1831                                         !
 ! D200  D(79,78,80,81)       -153.3344                                         !
 ! D201  D(79,78,80,82)         90.39                                           !
 ! D202  D(79,78,80,83)        -33.6594                                         !
 ! D203  D(78,80,82,86)        153.5347                                         !
 ! D204  D(78,80,82,99)        -29.5644                                         !
 ! D205  D(81,80,82,86)         35.8758                                         !
 ! D206  D(81,80,82,99)       -147.2233                                         !
 ! D207  D(83,80,82,86)        -82.8826                                         !
 ! D208  D(83,80,82,99)         94.0183                                         !
 ! D209  D(78,80,83,84)        -46.8088                                         !
 ! D210  D(78,80,83,85)         68.0757                                         !
 ! D211  D(78,80,83,87)       -168.1288                                         !
 ! D212  D(81,80,83,84)         71.695                                          !
 ! D213  D(81,80,83,85)       -173.4205                                         !
 ! D214  D(81,80,83,87)        -49.625                                          !
 ! D215  D(82,80,83,84)       -172.1549                                         !
 ! D216  D(82,80,83,85)        -57.2704                                         !
 ! D217  D(82,80,83,87)         66.5251                                         !
 ! D218  D(80,82,99,100)      -178.732                                          !
 ! D219  D(86,82,99,100)        -1.7796                                         !
 ! D220  D(80,83,87,88)        -56.3581                                         !
 ! D221  D(80,83,87,89)         60.2056                                         !
 ! D222  D(80,83,87,90)       -178.5071                                         !
 ! D223  D(84,83,87,88)       -176.2597                                         !
 ! D224  D(84,83,87,89)        -59.696                                          !
 ! D225  D(84,83,87,90)         61.5913                                         !
 ! D226  D(85,83,87,88)         66.7117                                         !
 ! D227  D(85,83,87,89)       -176.7246                                         !
 ! D228  D(85,83,87,90)        -55.4373                                         !
 ! D229  D(83,87,90,91)         63.5412                                         !
 ! D230  D(83,87,90,92)        -52.8679                                         !
 ! D231  D(83,87,90,93)       -174.6739                                         !
 ! D232  D(88,87,90,91)        -58.9449                                         !
 ! D233  D(88,87,90,92)       -175.354                                          !
 ! D234  D(88,87,90,93)         62.84                                           !
 ! D235  D(89,87,90,91)       -174.6396                                         !
 ! D236  D(89,87,90,92)         68.9513                                         !
 ! D237  D(89,87,90,93)        -52.8547                                         !
 ! D238  D(87,90,93,94)       -169.7176                                         !
 ! D239  D(87,90,93,95)        -53.8238                                         !
 ! D240  D(87,90,93,96)         64.4031                                         !
 ! D241  D(91,90,93,94)        -47.1828                                         !
 ! D242  D(91,90,93,95)         68.7111                                         !
 ! D243  D(91,90,93,96)       -173.062                                          !
 ! D244  D(92,90,93,94)         67.917                                          !
 ! D245  D(92,90,93,95)       -176.1891                                         !
 ! D246  D(92,90,93,96)        -57.9622                                         !
 ! D247  D(90,93,96,97)       -170.2559                                         !
 ! D248  D(90,93,96,98)         73.493                                          !
 ! D249  D(94,93,96,97)         66.5951                                         !
 ! D250  D(94,93,96,98)        -49.6561                                         !
 ! D251  D(95,93,96,97)        -51.0998                                         !
 ! D252  D(95,93,96,98)       -167.3509                                         !
 --------------------------------------------------------------------------------
 Symmetry turned off by external request.
 Stoichiometry    C28H52N9O11(1+)
 Framework group  C1[X(C28H52N9O11)]
 Deg. of freedom   294
 Full point group                 C1      NOp   1
                          Input orientation:                          
 ---------------------------------------------------------------------
 Center     Atomic      Atomic             Coordinates (Angstroms)
 Number     Number       Type             X           Y           Z
 ---------------------------------------------------------------------
      1          7           0       -7.395274    3.746724    5.818291
      2          1           0       -6.918880    4.150238    6.629825
      3          1           0       -8.273589    3.240322    6.126347
      4          1           0       -7.550716    4.513368    5.132319
      5          6           0       -6.537379    2.739910    5.099085
      6          1           0       -5.896856    2.251446    5.837498
      7          6           0       -5.729043    3.570217    4.068286
      8          6           0       -7.435502    1.707617    4.384135
      9          1           0       -7.981475    2.209258    3.573550
     10          1           0       -6.791704    0.957306    3.915366
     11          8           0       -6.183035    4.669606    3.742413
     12          6           0       -8.472915    1.072453    5.315654
     13          7           0       -8.756086   -0.223717    5.120776
     14          1           0       -9.485372   -0.650697    5.680144
     15          1           0       -8.309503   -0.784058    4.408857
     16          8           0       -9.037850    1.752719    6.185140
     17          7           0       -4.616050    2.996037    3.607431
     18          1           0       -4.395993    2.026679    3.834169
     19          6           0       -3.831559    3.479986    2.464832
     20          1           0       -4.435946    4.224626    1.936916
     21          6           0       -3.635024    2.211043    1.603218
     22          6           0       -2.483908    4.127652    2.914112
     23          1           0       -1.915261    3.342174    3.433649
     24          8           0       -3.636986    1.101745    2.142420
     25          6           0       -2.742140    5.278365    3.911033
     26          1           0       -3.402577    4.919042    4.709203
     27          1           0       -3.289057    6.082050    3.398792
     28          6           0       -1.664461    4.596041    1.700147
     29          1           0       -2.226992    5.331291    1.106925
     30          1           0       -0.747788    5.090287    2.031602
     31          1           0       -1.361709    3.768081    1.053537
     32          6           0       -1.472786    5.844233    4.559875
     33          1           0       -1.733634    6.587354    5.320816
     34          1           0       -0.890957    5.055070    5.051488
     35          1           0       -0.819273    6.339596    3.835652
     36          7           0       -3.516038    2.381680    0.267257
     37          1           0       -3.352176    3.315950   -0.085551
     38          6           0       -3.166385    1.268248   -0.609600
     39          1           0       -3.806915    0.426416   -0.330563
     40          6           0       -1.687867    0.874415   -0.406284
     41          6           0       -3.412094    1.663335   -2.071389
     42          1           0       -3.191017    0.824376   -2.737308
     43          1           0       -4.456189    1.954761   -2.220630
     44          1           0       -2.765110    2.499747   -2.359258
     45          8           0       -0.828237    1.725890   -0.158199
     46          7           0       -1.406025   -0.433669   -0.567721
     47          1           0       -2.114446   -1.110700   -0.832826
     48          6           0       -0.059265   -0.985552   -0.431636
     49          1           0        0.449338   -0.436240    0.367879
     50          6           0        0.721418   -0.794489   -1.750214
     51          6           0       -0.178485   -2.485238   -0.081745
     52          1           0        0.829280   -2.917362   -0.141554
     53          8           0        0.922521   -1.739696   -2.528050
     54          6           0       -0.751270   -2.728466    1.308215
     55          1           0       -0.089499   -2.317436    2.078125
     56          1           0       -0.853706   -3.804382    1.474093
     57          1           0       -1.738501   -2.267756    1.419768
     58          8           0       -1.038944   -3.107207   -1.033031
     59          1           0       -0.546264   -3.072464   -1.875944
     60          7           0        1.147122    0.462805   -1.983949
     61          1           0        0.878618    1.175463   -1.307347
     62          6           0        1.743211    0.894241   -3.252769
     63          1           0        1.262400    0.332390   -4.061658
     64          6           0        3.264287    0.603368   -3.295722
     65          6           0        1.484013    2.398223   -3.449940
     66          1           0        1.882083    2.945490   -2.580417
     67          1           0        0.402708    2.568752   -3.490486
     68          8           0        4.088189    1.516040   -3.351684
     69          8           0        2.029856    2.863613   -4.658327
     70          1           0        2.995720    2.804947   -4.535024
     71          7           0        3.589310   -0.715723   -3.286960
     72          1           0        2.827669   -1.382556   -3.177304
     73          6           0        4.963468   -1.186028   -3.197880
     74          1           0        5.610210   -0.304954   -3.245270
     75          1           0        5.149224   -1.685228   -2.241114
     76          6           0        5.398408   -2.163837   -4.295591
     77          8           0        6.355230   -2.903640   -4.117233
     78          7           0        4.667325   -2.144012   -5.447570
     79          1           0        4.033647   -1.368733   -5.591693
     80          6           0        5.106862   -2.895573   -6.614273
     81          1           0        5.354634   -3.908669   -6.287536
     82          6           0        6.391587   -2.337894   -7.233629
     83          6           0        3.973369   -2.946074   -7.662505
     84          1           0        3.053972   -3.216095   -7.125794
     85          1           0        3.817211   -1.934671   -8.067220
     86          8           0        7.182530   -2.992087   -7.872080
     87          6           0        4.210307   -3.943032   -8.803367
     88          1           0        5.160715   -3.720967   -9.302936
     89          1           0        4.306605   -4.955627   -8.395856
     90          6           0        3.077828   -3.932040   -9.837454
     91          1           0        3.026166   -2.949904  -10.328705
     92          1           0        2.109165   -4.071761   -9.331914
     93          6           0        3.233994   -5.012607  -10.914759
     94          1           0        2.497109   -4.827846  -11.716997
     95          1           0        4.226063   -4.919656  -11.374606
     96          7           0        3.143103   -6.355219  -10.326575
     97          1           0        3.406722   -7.056442  -11.016177
     98          1           0        2.174752   -6.554497  -10.077521
     99          8           0        6.520071   -1.001042   -7.046028
    100          1           0        7.350778   -0.747990   -7.491677
 ---------------------------------------------------------------------
 Rotational constants (GHZ):           0.1153643           0.0158363           0.0149460
 Standard basis: 6-31G(d) (6D, 7F)
   824 basis functions,  1552 primitive gaussians,   824 cartesian basis functions
   185 alpha electrons      185 beta electrons
       nuclear repulsion energy      6149.4850932985 Hartrees.
 NAtoms=  100 NActive=  100 NUniq=  100 SFac= 1.00D+00 NAtFMM=   60 NAOKFM=T Big=T
 Integral buffers will be    131072 words long.
 Raffenetti 2 integral format.
 Two-electron integral symmetry is turned off.
 One-electron integrals computed using PRISM.
 NBasis=   824 RedAO= T EigKep=  1.89D-03  NBF=   824
 NBsUse=   824 1.00D-06 EigRej= -1.00D+00 NBFU=   824
 Initial guess from the checkpoint file:  "conf-305.chk"
 B after Tr=     0.000000    0.000000    0.000000
         Rot=    1.000000    0.000000    0.000000    0.000000 Ang=   0.00 deg.
 Requested convergence on RMS density matrix=1.00D-08 within 128 cycles.
 Requested convergence on MAX density matrix=1.00D-06.
 Requested convergence on             energy=1.00D-06.
 No special actions if energy rises.
 SCF Done:  E(RB3LYP) =  -2418.44301500     A.U. after    3 cycles
            NFock=  3  Conv=0.48D-09     -V/T= 2.0093

 **********************************************************************

            Population analysis using the SCF Density.

 **********************************************************************

 Alpha  occ. eigenvalues --  -19.27965 -19.26946 -19.23600 -19.23180 -19.21810
 Alpha  occ. eigenvalues --  -19.21667 -19.21284 -19.19213 -19.18493 -19.17191
 Alpha  occ. eigenvalues --  -19.15369 -14.58772 -14.51273 -14.50206 -14.47596
 Alpha  occ. eigenvalues --  -14.46072 -14.44826 -14.42335 -14.40277 -14.34177
 Alpha  occ. eigenvalues --  -10.45573 -10.44155 -10.42072 -10.40521 -10.38776
 Alpha  occ. eigenvalues --  -10.37838 -10.37167 -10.35503 -10.35303 -10.35258
 Alpha  occ. eigenvalues --  -10.34219 -10.32921 -10.32086 -10.31953 -10.30424
 Alpha  occ. eigenvalues --  -10.29877 -10.29805 -10.28809 -10.27706 -10.27631
 Alpha  occ. eigenvalues --  -10.27544 -10.26357 -10.25793 -10.25109 -10.23692
 Alpha  occ. eigenvalues --  -10.23383 -10.21329 -10.20858  -1.19957  -1.19047
 Alpha  occ. eigenvalues --   -1.15612  -1.13918  -1.13695  -1.13397  -1.12658
 Alpha  occ. eigenvalues --   -1.10367  -1.09245  -1.07495  -1.06920  -1.06796
 Alpha  occ. eigenvalues --   -1.06249  -1.04845  -1.03922  -1.02260  -1.00908
 Alpha  occ. eigenvalues --   -0.98644  -0.96533  -0.95239  -0.91565  -0.90834
 Alpha  occ. eigenvalues --   -0.88519  -0.86026  -0.85348  -0.84021  -0.83229
 Alpha  occ. eigenvalues --   -0.82774  -0.80004  -0.79719  -0.78942  -0.77108
 Alpha  occ. eigenvalues --   -0.75945  -0.75417  -0.74156  -0.73564  -0.72692
 Alpha  occ. eigenvalues --   -0.72348  -0.72009  -0.70790  -0.70068  -0.69101
 Alpha  occ. eigenvalues --   -0.69058  -0.68046  -0.67298  -0.66864  -0.66685
 Alpha  occ. eigenvalues --   -0.65750  -0.64653  -0.64525  -0.63718  -0.63481
 Alpha  occ. eigenvalues --   -0.62985  -0.62147  -0.61096  -0.60583  -0.60079
 Alpha  occ. eigenvalues --   -0.59606  -0.59393  -0.59264  -0.59008  -0.58203
 Alpha  occ. eigenvalues --   -0.57447  -0.57308  -0.56770  -0.56339  -0.55720
 Alpha  occ. eigenvalues --   -0.55559  -0.54861  -0.54492  -0.54095  -0.53799
 Alpha  occ. eigenvalues --   -0.53160  -0.52805  -0.52740  -0.52435  -0.51809
 Alpha  occ. eigenvalues --   -0.51665  -0.51577  -0.51206  -0.50855  -0.50474
 Alpha  occ. eigenvalues --   -0.50245  -0.49851  -0.49524  -0.49147  -0.49064
 Alpha  occ. eigenvalues --   -0.49061  -0.48340  -0.48268  -0.47559  -0.47252
 Alpha  occ. eigenvalues --   -0.47196  -0.47034  -0.46565  -0.46370  -0.46101
 Alpha  occ. eigenvalues --   -0.45857  -0.45695  -0.45119  -0.45038  -0.44886
 Alpha  occ. eigenvalues --   -0.44515  -0.44252  -0.43541  -0.43486  -0.43172
 Alpha  occ. eigenvalues --   -0.42540  -0.42261  -0.42252  -0.42085  -0.41729
 Alpha  occ. eigenvalues --   -0.41175  -0.41034  -0.40884  -0.39677  -0.39520
 Alpha  occ. eigenvalues --   -0.39266  -0.39124  -0.38078  -0.37404  -0.37132
 Alpha  occ. eigenvalues --   -0.36867  -0.36429  -0.36327  -0.35952  -0.35295
 Alpha  occ. eigenvalues --   -0.35069  -0.34770  -0.33316  -0.32944  -0.32488
 Alpha  occ. eigenvalues --   -0.32273  -0.31159  -0.29077  -0.28402  -0.26283
 Alpha virt. eigenvalues --   -0.13725  -0.12727  -0.10114  -0.09453  -0.08389
 Alpha virt. eigenvalues --   -0.06999  -0.05956  -0.05375  -0.04532  -0.03223
 Alpha virt. eigenvalues --   -0.02723  -0.02363  -0.01878  -0.01455  -0.00724
 Alpha virt. eigenvalues --   -0.00326   0.00690   0.01186   0.01209   0.01478
 Alpha virt. eigenvalues --    0.01740   0.02342   0.02979   0.03094   0.03737
 Alpha virt. eigenvalues --    0.04078   0.04279   0.04786   0.04823   0.05203
 Alpha virt. eigenvalues --    0.05385   0.05566   0.05859   0.06140   0.06269
 Alpha virt. eigenvalues --    0.06809   0.07064   0.07445   0.07692   0.07886
 Alpha virt. eigenvalues --    0.08176   0.08418   0.08671   0.08688   0.08888
 Alpha virt. eigenvalues --    0.09108   0.09425   0.09546   0.09580   0.09689
 Alpha virt. eigenvalues --    0.09873   0.10084   0.10390   0.10785   0.11046
 Alpha virt. eigenvalues --    0.11212   0.11475   0.11830   0.12083   0.12435
 Alpha virt. eigenvalues --    0.12784   0.13066   0.13326   0.13502   0.13734
 Alpha virt. eigenvalues --    0.13998   0.14311   0.14642   0.15246   0.15438
 Alpha virt. eigenvalues --    0.15804   0.15973   0.16573   0.16861   0.16896
 Alpha virt. eigenvalues --    0.17123   0.17686   0.17783   0.17790   0.18131
 Alpha virt. eigenvalues --    0.18571   0.18986   0.19675   0.20113   0.20396
 Alpha virt. eigenvalues --    0.20976   0.21346   0.22067   0.22558   0.23311
 Alpha virt. eigenvalues --    0.23552   0.24017   0.24647   0.25049   0.25824
 Alpha virt. eigenvalues --    0.26614   0.27693   0.28460   0.29060   0.29298
 Alpha virt. eigenvalues --    0.29546   0.30572   0.31961   0.33596   0.34117
 Alpha virt. eigenvalues --    0.34652   0.35069   0.36659   0.37256   0.37339
 Alpha virt. eigenvalues --    0.37984   0.39766   0.40133   0.41180   0.41882
 Alpha virt. eigenvalues --    0.42123   0.42704   0.43139   0.44133   0.44633
 Alpha virt. eigenvalues --    0.45133   0.45326   0.45489   0.45516   0.46144
 Alpha virt. eigenvalues --    0.46542   0.47129   0.47470   0.48169   0.48263
 Alpha virt. eigenvalues --    0.48482   0.49158   0.49353   0.49401   0.49665
 Alpha virt. eigenvalues --    0.50071   0.50141   0.51093   0.51284   0.51342
 Alpha virt. eigenvalues --    0.51537   0.51747   0.52141   0.52377   0.53030
 Alpha virt. eigenvalues --    0.53059   0.53384   0.53656   0.54056   0.54395
 Alpha virt. eigenvalues --    0.54698   0.55773   0.56265   0.56482   0.56760
 Alpha virt. eigenvalues --    0.57210   0.57301   0.57651   0.58100   0.58353
 Alpha virt. eigenvalues --    0.58502   0.58792   0.59437   0.59611   0.60854
 Alpha virt. eigenvalues --    0.60996   0.61211   0.61849   0.62132   0.62166
 Alpha virt. eigenvalues --    0.62788   0.62798   0.63213   0.64019   0.64090
 Alpha virt. eigenvalues --    0.64574   0.65746   0.65761   0.66683   0.67054
 Alpha virt. eigenvalues --    0.67241   0.67706   0.68024   0.68150   0.68198
 Alpha virt. eigenvalues --    0.68780   0.69379   0.69670   0.70287   0.70677
 Alpha virt. eigenvalues --    0.70781   0.71098   0.71883   0.71954   0.72388
 Alpha virt. eigenvalues --    0.72695   0.73231   0.73348   0.73569   0.73796
 Alpha virt. eigenvalues --    0.73971   0.74508   0.74693   0.74963   0.75120
 Alpha virt. eigenvalues --    0.75293   0.75508   0.76043   0.76376   0.76875
 Alpha virt. eigenvalues --    0.77243   0.77374   0.77707   0.77866   0.78046
 Alpha virt. eigenvalues --    0.78438   0.78724   0.79095   0.79614   0.79632
 Alpha virt. eigenvalues --    0.79856   0.80111   0.80237   0.80470   0.80835
 Alpha virt. eigenvalues --    0.80922   0.81426   0.81619   0.82192   0.82214
 Alpha virt. eigenvalues --    0.82426   0.82580   0.82675   0.83117   0.83411
 Alpha virt. eigenvalues --    0.83606   0.83693   0.84293   0.84497   0.85082
 Alpha virt. eigenvalues --    0.85410   0.85797   0.86231   0.86353   0.86645
 Alpha virt. eigenvalues --    0.86693   0.86990   0.87202   0.87332   0.88136
 Alpha virt. eigenvalues --    0.88301   0.88653   0.88864   0.89735   0.89908
 Alpha virt. eigenvalues --    0.90269   0.90747   0.90934   0.91439   0.91740
 Alpha virt. eigenvalues --    0.92038   0.92353   0.92620   0.92969   0.93235
 Alpha virt. eigenvalues --    0.93689   0.93823   0.94172   0.94296   0.94535
 Alpha virt. eigenvalues --    0.95690   0.96184   0.96395   0.97362   0.97438
 Alpha virt. eigenvalues --    0.98587   0.98636   0.98917   0.99228   0.99674
 Alpha virt. eigenvalues --    1.00801   1.01191   1.01510   1.02210   1.02782
 Alpha virt. eigenvalues --    1.03702   1.04201   1.04657   1.05635   1.06051
 Alpha virt. eigenvalues --    1.06495   1.06669   1.07294   1.08205   1.08992
 Alpha virt. eigenvalues --    1.09558   1.10332   1.10656   1.11128   1.11420
 Alpha virt. eigenvalues --    1.11924   1.13055   1.14503   1.14753   1.15420
 Alpha virt. eigenvalues --    1.16460   1.16745   1.17746   1.19360   1.19773
 Alpha virt. eigenvalues --    1.20267   1.21151   1.21337   1.22122   1.23083
 Alpha virt. eigenvalues --    1.23520   1.23863   1.24664   1.25274   1.25973
 Alpha virt. eigenvalues --    1.26176   1.26881   1.27810   1.28396   1.30723
 Alpha virt. eigenvalues --    1.31001   1.31548   1.33011   1.33909   1.34060
 Alpha virt. eigenvalues --    1.34574   1.35301   1.35520   1.36474   1.38264
 Alpha virt. eigenvalues --    1.38914   1.39956   1.40136   1.40383   1.40885
 Alpha virt. eigenvalues --    1.41459   1.43170   1.43658   1.43816   1.44039
 Alpha virt. eigenvalues --    1.44390   1.44942   1.46275   1.46981   1.47497
 Alpha virt. eigenvalues --    1.48062   1.49033   1.49280   1.49700   1.50426
 Alpha virt. eigenvalues --    1.51377   1.53486   1.53854   1.54430   1.54562
 Alpha virt. eigenvalues --    1.55072   1.55397   1.55441   1.56702   1.57385
 Alpha virt. eigenvalues --    1.57517   1.57753   1.58478   1.58724   1.59900
 Alpha virt. eigenvalues --    1.61057   1.61952   1.62365   1.62615   1.63337
 Alpha virt. eigenvalues --    1.64005   1.64554   1.65623   1.66114   1.66525
 Alpha virt. eigenvalues --    1.66636   1.66795   1.67422   1.67691   1.68592
 Alpha virt. eigenvalues --    1.69022   1.69324   1.69531   1.70282   1.70615
 Alpha virt. eigenvalues --    1.70949   1.71981   1.72233   1.72460   1.72681
 Alpha virt. eigenvalues --    1.73153   1.73563   1.73931   1.74442   1.75139
 Alpha virt. eigenvalues --    1.75232   1.75735   1.76028   1.76658   1.77300
 Alpha virt. eigenvalues --    1.77515   1.77909   1.78278   1.78608   1.79531
 Alpha virt. eigenvalues --    1.80149   1.80303   1.80912   1.81235   1.81395
 Alpha virt. eigenvalues --    1.81712   1.82101   1.82944   1.83396   1.83680
 Alpha virt. eigenvalues --    1.83765   1.84145   1.84871   1.85061   1.85487
 Alpha virt. eigenvalues --    1.85707   1.86349   1.86656   1.87695   1.87899
 Alpha virt. eigenvalues --    1.88396   1.88888   1.89088   1.89634   1.89939
 Alpha virt. eigenvalues --    1.90520   1.90789   1.91090   1.91419   1.92197
 Alpha virt. eigenvalues --    1.92265   1.92323   1.93738   1.94385   1.94595
 Alpha virt. eigenvalues --    1.94947   1.95180   1.96358   1.97178   1.97438
 Alpha virt. eigenvalues --    1.98084   1.98135   1.98534   1.98974   1.99372
 Alpha virt. eigenvalues --    2.00024   2.00502   2.00938   2.01410   2.01666
 Alpha virt. eigenvalues --    2.02438   2.02860   2.03189   2.03532   2.03855
 Alpha virt. eigenvalues --    2.04202   2.05098   2.05279   2.05862   2.07303
 Alpha virt. eigenvalues --    2.07609   2.08301   2.09125   2.10014   2.11095
 Alpha virt. eigenvalues --    2.12077   2.12620   2.13140   2.14192   2.15050
 Alpha virt. eigenvalues --    2.15551   2.15630   2.16572   2.16960   2.18140
 Alpha virt. eigenvalues --    2.18291   2.18501   2.19600   2.20760   2.21207
 Alpha virt. eigenvalues --    2.21648   2.22300   2.22446   2.23051   2.23253
 Alpha virt. eigenvalues --    2.24956   2.26048   2.26366   2.26851   2.27531
 Alpha virt. eigenvalues --    2.28374   2.29318   2.29762   2.30113   2.30730
 Alpha virt. eigenvalues --    2.31268   2.32608   2.32830   2.33083   2.34014
 Alpha virt. eigenvalues --    2.34455   2.35049   2.35378   2.36799   2.37464
 Alpha virt. eigenvalues --    2.37716   2.38166   2.39233   2.39874   2.40332
 Alpha virt. eigenvalues --    2.40666   2.41334   2.41689   2.42069   2.43880
 Alpha virt. eigenvalues --    2.44272   2.44881   2.45498   2.45730   2.45936
 Alpha virt. eigenvalues --    2.46698   2.47129   2.49254   2.49431   2.50211
 Alpha virt. eigenvalues --    2.51389   2.51699   2.53186   2.54611   2.55716
 Alpha virt. eigenvalues --    2.56460   2.57499   2.57751   2.58158   2.58777
 Alpha virt. eigenvalues --    2.59166   2.60118   2.60902   2.61126   2.62015
 Alpha virt. eigenvalues --    2.62904   2.63433   2.64108   2.65179   2.65296
 Alpha virt. eigenvalues --    2.66834   2.68384   2.68903   2.69200   2.71781
 Alpha virt. eigenvalues --    2.72471   2.73882   2.74462   2.75559   2.77704
 Alpha virt. eigenvalues --    2.78974   2.79464   2.80482   2.81873   2.82162
 Alpha virt. eigenvalues --    2.82517   2.83120   2.84499   2.85886   2.87049
 Alpha virt. eigenvalues --    2.90043   2.90494   2.91546   2.91919   2.93950
 Alpha virt. eigenvalues --    2.95312   2.96628   2.96832   2.99902   3.01156
 Alpha virt. eigenvalues --    3.06445   3.07102   3.07441   3.08799   3.09716
 Alpha virt. eigenvalues --    3.13533   3.65868   3.68119   3.74603   3.75453
 Alpha virt. eigenvalues --    3.76556   3.78751   3.88139   3.92606   3.95382
 Alpha virt. eigenvalues --    3.96334   3.96715   3.99096   4.00338   4.01698
 Alpha virt. eigenvalues --    4.02311   4.05288   4.06863   4.07659   4.09440
 Alpha virt. eigenvalues --    4.11198   4.12443   4.14731   4.16362   4.17012
 Alpha virt. eigenvalues --    4.19151   4.19735   4.20743   4.23425   4.26576
 Alpha virt. eigenvalues --    4.27915   4.29038   4.30317   4.31777   4.33673
 Alpha virt. eigenvalues --    4.34291   4.37396   4.40752   4.42766   4.47355
 Alpha virt. eigenvalues --    4.47689   4.48283   4.51386   4.53162   4.53393
 Alpha virt. eigenvalues --    4.54861   4.60306   4.60826   4.63833
          Condensed to atoms (all electrons):
 Mulliken charges:
               1
     1  N   -0.754290
     2  H    0.411014
     3  H    0.445558
     4  H    0.418253
     5  C   -0.124968
     6  H    0.217771
     7  C    0.644424
     8  C   -0.402608
     9  H    0.229184
    10  H    0.206619
    11  O   -0.523145
    12  C    0.647395
    13  N   -0.725179
    14  H    0.384769
    15  H    0.372367
    16  O   -0.533096
    17  N   -0.594828
    18  H    0.361739
    19  C   -0.088114
    20  H    0.186218
    21  C    0.638704
    22  C   -0.065785
    23  H    0.143430
    24  O   -0.549331
    25  C   -0.250219
    26  H    0.117423
    27  H    0.149770
    28  C   -0.513437
    29  H    0.139386
    30  H    0.177891
    31  H    0.200054
    32  C   -0.454329
    33  H    0.158021
    34  H    0.150906
    35  H    0.165070
    36  N   -0.586201
    37  H    0.350483
    38  C   -0.056176
    39  H    0.177200
    40  C    0.649266
    41  C   -0.478540
    42  H    0.181258
    43  H    0.178998
    44  H    0.177216
    45  O   -0.547185
    46  N   -0.596775
    47  H    0.355113
    48  C   -0.075530
    49  H    0.185323
    50  C    0.637074
    51  C    0.108094
    52  H    0.154713
    53  O   -0.561301
    54  C   -0.452735
    55  H    0.151740
    56  H    0.178003
    57  H    0.149515
    58  O   -0.647209
    59  H    0.422858
    60  N   -0.617061
    61  H    0.376681
    62  C   -0.083776
    63  H    0.187545
    64  C    0.619821
    65  C   -0.038867
    66  H    0.139385
    67  H    0.141183
    68  O   -0.528608
    69  O   -0.623838
    70  H    0.421908
    71  N   -0.631873
    72  H    0.374410
    73  C   -0.233710
    74  H    0.224733
    75  H    0.187070
    76  C    0.603207
    77  O   -0.507994
    78  N   -0.606593
    79  H    0.333222
    80  C   -0.011936
    81  H    0.200603
    82  C    0.600391
    83  C   -0.306124
    84  H    0.147875
    85  H    0.140177
    86  O   -0.455494
    87  C   -0.259961
    88  H    0.159408
    89  H    0.170993
    90  C   -0.252069
    91  H    0.128249
    92  H    0.118512
    93  C   -0.142574
    94  H    0.115999
    95  H    0.145514
    96  N   -0.711873
    97  H    0.301980
    98  H    0.291000
    99  O   -0.574211
   100  H    0.414855
 Sum of Mulliken charges =   1.00000
 Mulliken charges with hydrogens summed into heavy atoms:
               1
     1  N    0.520536
     5  C    0.092804
     7  C    0.644424
     8  C    0.033195
    11  O   -0.523145
    12  C    0.647395
    13  N    0.031958
    16  O   -0.533096
    17  N   -0.233089
    19  C    0.098104
    21  C    0.638704
    22  C    0.077645
    24  O   -0.549331
    25  C    0.016973
    28  C    0.003893
    32  C    0.019668
    36  N   -0.235718
    38  C    0.121024
    40  C    0.649266
    41  C    0.058931
    45  O   -0.547185
    46  N   -0.241662
    48  C    0.109793
    50  C    0.637074
    51  C    0.262807
    53  O   -0.561301
    54  C    0.026523
    58  O   -0.224350
    60  N   -0.240380
    62  C    0.103770
    64  C    0.619821
    65  C    0.241701
    68  O   -0.528608
    69  O   -0.201929
    71  N   -0.257463
    73  C    0.178094
    76  C    0.603207
    77  O   -0.507994
    78  N   -0.273370
    80  C    0.188667
    82  C    0.600391
    83  C   -0.018072
    86  O   -0.455494
    87  C    0.070440
    90  C   -0.005308
    93  C    0.118939
    96  N   -0.118892
    99  O   -0.159356
 Electronic spatial extent (au):  <R**2>=          70877.8186
 Charge=              1.0000 electrons
 Dipole moment (field-independent basis, Debye):
    X=            -34.0888    Y=             10.3451    Z=             18.4954  Tot=             40.1391
 Quadrupole moment (field-independent basis, Debye-Ang):
   XX=           -111.7865   YY=           -250.8675   ZZ=           -139.1819
   XY=            -31.8051   XZ=           -117.1479   YZ=             55.9638
 Traceless Quadrupole moment (field-independent basis, Debye-Ang):
   XX=             55.4921   YY=            -83.5889   ZZ=             28.0968
   XY=            -31.8051   XZ=           -117.1479   YZ=             55.9638
 Octapole moment (field-independent basis, Debye-Ang**2):
  XXX=          -1554.2415  YYY=            -81.8236  ZZZ=           1292.6461  XYY=           -258.0974
  XXY=            444.4111  XXZ=           1561.2061  XZZ=           -700.1413  YZZ=             36.3595
  YYZ=            580.3609  XYZ=           -408.6087
 Hexadecapole moment (field-independent basis, Debye-Ang**3):
 XXXX=         -23998.3173 YYYY=         -14369.3845 ZZZZ=         -31542.4123 XXXY=           7008.6104
 XXXZ=           8870.5187 YYYX=           6411.2297 YYYZ=          -7084.8618 ZZZX=          10238.1739
 ZZZY=          -3978.7804 XXYY=          -7546.9727 XXZZ=          -7868.9004 YYZZ=          -6761.9538
 XXYZ=          -2590.2940 YYXZ=           4146.2410 ZZXY=           1032.6080
 N-N= 6.149485093299D+03 E-N=-1.791060358015D+04  KE= 2.396234873668D+03
 Unable to Open any file for archive entry.
 1\1\GINC-AMR-104\SP\RB3LYP\6-31G(d)\C28H52N9O11(1+)\KENGMITH\27-May-20
 22\0\\# B3LYP/6-31G* guess=read geom=check nosymm integral(ultrafinegr
 id)\\Candidate Structure: Conf:305 Charge calc in gas phase\\1,1\N,0,-
 7.3952737678,3.7467236005,5.8182908314\H,0,-6.91888044,4.1502379807,6.
 6298245447\H,0,-8.2735893396,3.2403217426,6.1263466046\H,0,-7.55071649
 16,4.5133675845,5.1323194206\C,0,-6.5373787285,2.7399101457,5.09908527
 82\H,0,-5.8968563552,2.2514456674,5.8374982145\C,0,-5.7290425104,3.570
 2168982,4.0682859103\C,0,-7.4355021844,1.7076174407,4.3841347619\H,0,-
 7.9814745086,2.2092577026,3.5735495384\H,0,-6.7917042508,0.9573063821,
 3.9153660165\O,0,-6.1830354856,4.6696058594,3.7424125634\C,0,-8.472915
 0691,1.0724534039,5.3156539582\N,0,-8.7560860059,-0.2237168773,5.12077
 61933\H,0,-9.4853716444,-0.6506971261,5.6801438255\H,0,-8.3095033886,-
 0.7840582566,4.408856889\O,0,-9.0378499641,1.7527191776,6.1851402276\N
 ,0,-4.6160496981,2.9960370914,3.6074308181\H,0,-4.3959930488,2.0266789
 099,3.8341691869\C,0,-3.8315587196,3.4799864482,2.4648316883\H,0,-4.43
 59455444,4.2246264351,1.9369155569\C,0,-3.6350235547,2.2110427761,1.60
 32180413\C,0,-2.4839082397,4.1276524286,2.9141124056\H,0,-1.9152614663
 ,3.3421741368,3.4336485792\O,0,-3.6369858007,1.1017454598,2.1424196605
 \C,0,-2.7421395738,5.278364659,3.9110328392\H,0,-3.4025773674,4.919042
 1931,4.7092034507\H,0,-3.289057445,6.0820502498,3.3987916719\C,0,-1.66
 44613048,4.5960407014,1.7001469845\H,0,-2.2269922075,5.3312914374,1.10
 69247075\H,0,-0.7477880453,5.0902873375,2.0316020524\H,0,-1.3617086184
 ,3.7680807703,1.0535371854\C,0,-1.4727859223,5.8442326516,4.5598751554
 \H,0,-1.7336340344,6.5873537194,5.3208160454\H,0,-0.8909569178,5.05506
 99953,5.0514879814\H,0,-0.8192729116,6.3395963229,3.8356520729\N,0,-3.
 5160379317,2.3816795001,0.2672569009\H,0,-3.3521755907,3.3159504793,-0
 .0855510857\C,0,-3.1663850966,1.2682484406,-0.6096002002\H,0,-3.806914
 9396,0.4264155418,-0.3305634173\C,0,-1.6878669761,0.8744150874,-0.4062
 836867\C,0,-3.4120940814,1.6633350105,-2.0713891245\H,0,-3.1910168222,
 0.8243755947,-2.737307723\H,0,-4.456189101,1.9547612874,-2.2206301667\
 H,0,-2.7651096273,2.4997466234,-2.3592583536\O,0,-0.828236569,1.725889
 9511,-0.1581987429\N,0,-1.4060253974,-0.4336692867,-0.5677206824\H,0,-
 2.1144462403,-1.1106998756,-0.8328255034\C,0,-0.0592645667,-0.98555194
 46,-0.4316360041\H,0,0.4493376454,-0.436239766,0.3678792483\C,0,0.7214
 182924,-0.7944885434,-1.7502138885\C,0,-0.1784851949,-2.4852382136,-0.
 0817451514\H,0,0.8292800003,-2.9173618197,-0.1415542013\O,0,0.92252063
 13,-1.7396958554,-2.5280500934\C,0,-0.7512698544,-2.7284661048,1.30821
 51416\H,0,-0.0894993585,-2.3174361676,2.0781248504\H,0,-0.8537055322,-
 3.8043817289,1.4740926753\H,0,-1.7385009658,-2.2677557803,1.4197677737
 \O,0,-1.0389438995,-3.1072066688,-1.0330308588\H,0,-0.5462644465,-3.07
 24643071,-1.875944361\N,0,1.1471223802,0.4628051,-1.9839487677\H,0,0.8
 786175458,1.1754633849,-1.3073468359\C,0,1.7432112028,0.8942413473,-3.
 2527685605\H,0,1.262399535,0.3323900018,-4.0616581493\C,0,3.2642866793
 ,0.6033675215,-3.2957217446\C,0,1.4840128185,2.3982234946,-3.449940402
 9\H,0,1.882083135,2.9454901351,-2.5804171805\H,0,0.40270811,2.56875232
 87,-3.4904862038\O,0,4.0881893673,1.5160401105,-3.3516837896\O,0,2.029
 8564103,2.8636125669,-4.6583265982\H,0,2.9957203026,2.8049466647,-4.53
 50242153\N,0,3.5893103381,-0.7157230804,-3.286960298\H,0,2.8276694866,
 -1.3825556189,-3.1773037522\C,0,4.9634677912,-1.186027932,-3.197880395
 3\H,0,5.6102101059,-0.3049535239,-3.2452702743\H,0,5.1492241719,-1.685
 2276527,-2.2411139495\C,0,5.3984076038,-2.1638368978,-4.2955910155\O,0
 ,6.3552303624,-2.9036398984,-4.1172332777\N,0,4.6673248767,-2.14401248
 17,-5.4475703367\H,0,4.0336474422,-1.3687327723,-5.5916934336\C,0,5.10
 68617884,-2.8955729507,-6.6142730591\H,0,5.3546335151,-3.9086692613,-6
 .2875359871\C,0,6.3915870169,-2.3378942557,-7.2336290543\C,0,3.9733685
 095,-2.9460744,-7.6625052437\H,0,3.0539716045,-3.2160949519,-7.1257935
 748\H,0,3.8172114857,-1.9346707065,-8.0672199567\O,0,7.1825298213,-2.9
 920866787,-7.8720800192\C,0,4.2103072041,-3.9430321091,-8.8033669549\H
 ,0,5.1607145838,-3.7209669853,-9.302936197\H,0,4.3066049129,-4.9556266
 489,-8.3958560106\C,0,3.0778282203,-3.9320395518,-9.8374539532\H,0,3.0
 261662504,-2.9499040695,-10.3287051324\H,0,2.1091653408,-4.0717610436,
 -9.3319138432\C,0,3.233994208,-5.0126069891,-10.9147587453\H,0,2.49710
 94019,-4.8278461146,-11.7169970391\H,0,4.226062774,-4.9196558856,-11.3
 746063654\N,0,3.1431033264,-6.3552187183,-10.3265749312\H,0,3.40672151
 62,-7.0564416479,-11.0161773118\H,0,2.1747524066,-6.5544965654,-10.077
 5212153\O,0,6.5200713643,-1.0010418436,-7.0460277617\H,0,7.350778401,-
 0.7479896438,-7.49167667\\Version=ES64L-G16RevC.01\HF=-2418.443015\RMS
 D=4.773e-10\Dipole=-12.7203998,3.5781577,9.7501409\Quadrupole=41.25702
 6,-62.1462761,20.8892501,-23.6463074,-87.0965898,41.607729\PG=C01 [X(C
 28H52N9O11)]\\@
 The archive entry for this job was punched.


 A SUCCESSFUL PURSUIT OF SCIENCE MAKES A MAN THE
 BENEFACTOR OF ALL MANKIND OF EVERY AGE.
   --  JOSEPH PRIESTLEY, "EXPERIMENTS AND
 OBSERVATIONS ON DIFFERENT KINDS OF AIR", 1774
 Job cpu time:       0 days  0 hours  3 minutes 52.3 seconds.
 Elapsed time:       0 days  0 hours  0 minutes 58.8 seconds.
 File lengths (MBytes):  RWF=    472 Int=      0 D2E=      0 Chk=     72 Scr=     16
 Normal termination of Gaussian 16 at Fri May 27 02:49:25 2022.
