 Entering Gaussian System, Link 0=/opt/software/Gaussian/g16-AVX-C.01/g16/g16
 Input=charge-conf-126.com
 Output=charge-conf-126.log
 Initial command:
 /opt/software/Gaussian/g16-AVX-C.01/g16/l1.exe "/mnt/gs18/scratch/users/kengmith/Gau-28629.inp" -scrdir="/mnt/gs18/scratch/users/kengmith/"
 Entering Link 1 = /opt/software/Gaussian/g16-AVX-C.01/g16/l1.exe PID=     28654.
  
 Copyright (c) 1988-2019, Gaussian, Inc.  All Rights Reserved.
  
 This is part of the Gaussian(R) 16 program.  It is based on
 the Gaussian(R) 09 system (copyright 2009, Gaussian, Inc.),
 the Gaussian(R) 03 system (copyright 2003, Gaussian, Inc.),
 the Gaussian(R) 98 system (copyright 1998, Gaussian, Inc.),
 the Gaussian(R) 94 system (copyright 1995, Gaussian, Inc.),
 the Gaussian 92(TM) system (copyright 1992, Gaussian, Inc.),
 the Gaussian 90(TM) system (copyright 1990, Gaussian, Inc.),
 the Gaussian 88(TM) system (copyright 1988, Gaussian, Inc.),
 the Gaussian 86(TM) system (copyright 1986, Carnegie Mellon
 University), and the Gaussian 82(TM) system (copyright 1983,
 Carnegie Mellon University). Gaussian is a federally registered
 trademark of Gaussian, Inc.
  
 This software contains proprietary and confidential information,
 including trade secrets, belonging to Gaussian, Inc.
  
 This software is provided under written license and may be
 used, copied, transmitted, or stored only in accord with that
 written license.
  
 The following legend is applicable only to US Government
 contracts under FAR:
  
                    RESTRICTED RIGHTS LEGEND
  
 Use, reproduction and disclosure by the US Government is
 subject to restrictions as set forth in subparagraphs (a)
 and (c) of the Commercial Computer Software - Restricted
 Rights clause in FAR 52.227-19.
  
 Gaussian, Inc.
 340 Quinnipiac St., Bldg. 40, Wallingford CT 06492
  
  
 ---------------------------------------------------------------
 Warning -- This program may not be used in any manner that
 competes with the business of Gaussian, Inc. or will provide
 assistance to any competitor of Gaussian, Inc.  The licensee
 of this program is prohibited from giving any competitor of
 Gaussian, Inc. access to this program.  By using this program,
 the user acknowledges that Gaussian, Inc. is engaged in the
 business of creating and licensing software in the field of
 computational chemistry and represents and warrants to the
 licensee that it is not a competitor of Gaussian, Inc. and that
 it will not use this program in any manner prohibited above.
 ---------------------------------------------------------------
  

 Cite this work as:
 Gaussian 16, Revision C.01,
 M. J. Frisch, G. W. Trucks, H. B. Schlegel, G. E. Scuseria, 
 M. A. Robb, J. R. Cheeseman, G. Scalmani, V. Barone, 
 G. A. Petersson, H. Nakatsuji, X. Li, M. Caricato, A. V. Marenich, 
 J. Bloino, B. G. Janesko, R. Gomperts, B. Mennucci, H. P. Hratchian, 
 J. V. Ortiz, A. F. Izmaylov, J. L. Sonnenberg, D. Williams-Young, 
 F. Ding, F. Lipparini, F. Egidi, J. Goings, B. Peng, A. Petrone, 
 T. Henderson, D. Ranasinghe, V. G. Zakrzewski, J. Gao, N. Rega, 
 G. Zheng, W. Liang, M. Hada, M. Ehara, K. Toyota, R. Fukuda, 
 J. Hasegawa, M. Ishida, T. Nakajima, Y. Honda, O. Kitao, H. Nakai, 
 T. Vreven, K. Throssell, J. A. Montgomery, Jr., J. E. Peralta, 
 F. Ogliaro, M. J. Bearpark, J. J. Heyd, E. N. Brothers, K. N. Kudin, 
 V. N. Staroverov, T. A. Keith, R. Kobayashi, J. Normand, 
 K. Raghavachari, A. P. Rendell, J. C. Burant, S. S. Iyengar, 
 J. Tomasi, M. Cossi, J. M. Millam, M. Klene, C. Adamo, R. Cammi, 
 J. W. Ochterski, R. L. Martin, K. Morokuma, O. Farkas, 
 J. B. Foresman, and D. J. Fox, Gaussian, Inc., Wallingford CT, 2019.
 
 ******************************************
 Gaussian 16:  ES64L-G16RevC.01  3-Jul-2019
                10-Jul-2022 
 ******************************************
 %mem=8gb
 %nproc=4
 Will use up to    4 processors via shared memory.
 %chk=conf-126.chk
 ----------------------------------------------------------------------
 # B3LYP/6-31G* empiricaldispersion=gd3bj guess=read geom=check nosymm 
 integral(ultrafinegrid)
 ----------------------------------------------------------------------
 1/29=2,38=1,172=1/1;
 2/12=2,15=1,40=1/2;
 3/5=1,6=6,7=1,11=2,14=-4,25=1,30=1,74=-5,75=-5,116=-2,124=41/1,2,3;
 4/5=1/1;
 5/5=2,38=6/2;
 6/7=2,8=2,9=2,10=2,28=1/1;
 99/5=1,9=1/99;
 ------------------------------------------------------
 Candidate Structure: Conf:126 Charge calc in gas phase
 ------------------------------------------------------
 Structure from the checkpoint file:  "conf-126.chk"
 Charge =  1 Multiplicity = 1
 Redundant internal coordinates found in file.  (old form).
 N,0,-3.7448441872,2.9265093791,2.3712410571
 H,0,-3.4705023898,3.8745638875,2.1130107419
 H,0,-4.0518987938,2.8612772882,3.3586236425
 H,0,-2.9364229442,2.2632279282,2.2905255523
 C,0,-4.9015444606,2.3997430548,1.5542776645
 H,0,-5.6505876037,3.1998249654,1.5352471004
 C,0,-5.4189981926,1.2484541581,2.4605399484
 C,0,-4.4682391148,2.0405026603,0.1174590756
 H,0,-3.9982855244,1.0508904686,0.1476019045
 O,0,-5.1815375478,1.3301903026,3.6708046684
 C,0,-5.6865060885,2.0224207145,-0.8221350072
 H,0,-6.0779928785,3.037799385,-0.9548981065
 H,0,-6.5220640692,1.407823446,-0.4714254373
 H,0,-5.3916206489,1.6461485125,-1.8054006375
 C,0,-3.4254294521,3.0248418242,-0.4331808925
 H,0,-3.8168180643,4.0511511158,-0.4500566094
 H,0,-2.4862841198,3.0016046281,0.1241837912
 H,0,-3.1703235028,2.7467416393,-1.4586220672
 N,0,-6.0442527866,0.2054673725,1.8954788431
 H,0,-6.0991849581,0.1610992621,0.886986152
 C,0,-6.1796310345,-1.0872100733,2.6001917892
 H,0,-6.1465124798,-0.8535574075,3.6665913258
 C,0,-4.9357823173,-1.9279212921,2.1963770283
 C,0,-7.47905863,-1.7832075103,2.2309436682
 H,0,-7.5440811323,-2.7405120734,2.7528465773
 H,0,-8.3347952214,-1.1637477071,2.511934638
 H,0,-7.5188448475,-1.998098394,1.1589641879
 O,0,-5.0410410188,-2.9649129951,1.5614822399
 N,0,-3.7546351065,-1.3341052782,2.5342209822
 H,0,-3.7883002333,-0.486372711,3.0890517062
 C,0,-2.4742268719,-1.5729280267,1.8926682234
 H,0,-1.9402797036,-2.4131939402,2.3535613147
 C,0,-1.6489635937,-0.298744395,2.0524657677
 C,0,-2.6129450223,-1.8855356881,0.3588492805
 H,0,-3.08425471,-2.8616838436,0.260631151
 H,0,-3.2848044448,-1.1346831132,-0.0812922075
 O,0,-2.1727913596,0.7783251894,2.3965655355
 O,0,-1.3681208916,-1.9182775667,-0.2985181372
 H,0,-1.1661693671,-0.9981818546,-0.5775865518
 N,0,-0.3463592655,-0.4139135362,1.7593610367
 H,0,-0.0945392767,-1.2832825395,1.2943026322
 C,0,0.4425360399,0.7545078674,1.4041123253
 H,0,0.4105309497,1.4602753145,2.2382434717
 C,0,-0.1618474943,1.4353341309,0.1593048035
 C,0,1.894882732,0.3387070868,1.1085202084
 H,0,2.4451805376,1.2177368071,0.7521272481
 H,0,1.8799247403,-0.3696906383,0.2681319052
 O,0,-0.9477009796,0.850192783,-0.5975483253
 C,0,2.6405646473,-0.2852649548,2.3013168759
 H,0,2.0857425464,-1.175389059,2.6304876662
 C,0,4.0350530122,-0.7345340736,1.8475303643
 H,0,4.6308328384,0.1240213402,1.5144723178
 H,0,3.9757627812,-1.444502347,1.0149464094
 H,0,4.5746753631,-1.2201550521,2.6673076582
 C,0,2.7356853601,0.6815458092,3.4875705024
 H,0,3.2313828609,1.6145087861,3.1903917745
 H,0,1.7513927114,0.9337399283,3.8985356831
 H,0,3.3209456077,0.2380774698,4.2997253466
 N,0,0.2636176956,2.7047927255,-0.0316408679
 H,0,1.0803206475,2.9850684982,0.5173045154
 C,0,0.4101673117,3.2774915207,-1.3784238818
 H,0,-0.1067494352,2.627514771,-2.0859700789
 C,0,1.9433638782,3.2914002461,-1.6558408341
 C,0,-0.1911810939,4.7029606649,-1.4051658463
 H,0,0.4502230581,5.3576274859,-0.7996229442
 H,0,-1.1493671299,4.6464736149,-0.8788785897
 O,0,2.3020125731,3.2112835746,-2.87533053
 C,0,-0.4425378413,5.3340900195,-2.7964000154
 H,0,-0.5365847131,4.5498812619,-3.5582551167
 H,0,-1.4071947947,5.8537887017,-2.7810844906
 C,0,0.5908094639,6.3662287909,-3.2730723475
 H,0,0.7405327308,7.1303578099,-2.5006259045
 H,0,0.2118495499,6.8676198481,-4.172414871
 N,0,1.8641730024,5.7111788259,-3.5645033
 H,0,1.8330022573,4.674791719,-3.603406115
 N,0,3.2715949756,7.483496799,-2.9981097997
 H,0,4.2024536312,7.8138429002,-2.7882524148
 H,0,2.6654756651,8.1469072583,-3.4586676813
 N,0,4.0570806541,5.276111835,-3.0689368569
 H,0,3.7620393839,4.2882013162,-2.9323017201
 H,0,4.989679454,5.5690881556,-2.8197322578
 C,0,3.0700122124,6.1603641751,-3.2118271162
 O,0,2.6786321348,3.4399239371,-0.6611379223
 Recover connectivity data from disk.
                           ----------------------------
                           !    Current Parameters    !
                           ! (Angstroms and Degrees)  !
 --------------------------                            --------------------------
 ! Name  Definition              Value                                          !
 --------------------------------------------------------------------------------
 ! R1    R(1,2)                  1.0202                                         !
 ! R2    R(1,3)                  1.0361                                         !
 ! R3    R(1,4)                  1.0488                                         !
 ! R4    R(1,5)                  1.5109                                         !
 ! R5    R(5,6)                  1.0962                                         !
 ! R6    R(5,7)                  1.5539                                         !
 ! R7    R(5,8)                  1.5431                                         !
 ! R8    R(7,10)                 1.236                                          !
 ! R9    R(7,19)                 1.3409                                         !
 ! R10   R(8,9)                  1.0959                                         !
 ! R11   R(8,11)                 1.5386                                         !
 ! R12   R(8,15)                 1.5361                                         !
 ! R13   R(11,12)                1.0963                                         !
 ! R14   R(11,13)                1.0949                                         !
 ! R15   R(11,14)                1.0933                                         !
 ! R16   R(15,16)                1.0985                                         !
 ! R17   R(15,17)                1.0923                                         !
 ! R18   R(15,18)                1.0927                                         !
 ! R19   R(19,20)                1.011                                          !
 ! R20   R(19,21)                1.4785                                         !
 ! R21   R(21,22)                1.0922                                         !
 ! R22   R(21,23)                1.5547                                         !
 ! R23   R(21,24)                1.5196                                         !
 ! R24   R(23,28)                1.2205                                         !
 ! R25   R(23,29)                1.3645                                         !
 ! R26   R(24,25)                1.0923                                         !
 ! R27   R(24,26)                1.0931                                         !
 ! R28   R(24,27)                1.094                                          !
 ! R29   R(29,30)                1.0137                                         !
 ! R30   R(29,31)                1.4519                                         !
 ! R31   R(31,32)                1.0971                                         !
 ! R32   R(31,33)                1.5265                                         !
 ! R33   R(31,34)                1.5715                                         !
 ! R34   R(33,37)                1.2461                                         !
 ! R35   R(33,40)                1.3401                                         !
 ! R36   R(34,35)                1.0884                                         !
 ! R37   R(34,36)                1.0995                                         !
 ! R38   R(34,38)                1.4081                                         !
 ! R39   R(38,39)                0.9825                                         !
 ! R40   R(40,41)                1.0176                                         !
 ! R41   R(40,42)                1.4539                                         !
 ! R42   R(42,43)                1.0931                                         !
 ! R43   R(42,44)                1.5422                                         !
 ! R44   R(42,45)                1.5393                                         !
 ! R45   R(44,48)                1.2381                                         !
 ! R46   R(44,59)                1.3524                                         !
 ! R47   R(45,46)                1.0966                                         !
 ! R48   R(45,47)                1.0992                                         !
 ! R49   R(45,49)                1.5389                                         !
 ! R50   R(49,50)                1.0993                                         !
 ! R51   R(49,51)                1.5337                                         !
 ! R52   R(49,55)                1.5333                                         !
 ! R53   R(51,52)                1.0968                                         !
 ! R54   R(51,53)                1.0958                                         !
 ! R55   R(51,54)                1.095                                          !
 ! R56   R(55,56)                1.0975                                         !
 ! R57   R(55,57)                1.0961                                         !
 ! R58   R(55,58)                1.0949                                         !
 ! R59   R(59,60)                1.0232                                         !
 ! R60   R(59,61)                1.4708                                         !
 ! R61   R(61,62)                1.091                                          !
 ! R62   R(61,63)                1.5582                                         !
 ! R63   R(61,64)                1.5474                                         !
 ! R64   R(63,67)                1.2737                                         !
 ! R65   R(63,83)                1.2458                                         !
 ! R66   R(64,65)                1.0985                                         !
 ! R67   R(64,66)                1.0947                                         !
 ! R68   R(64,68)                1.5482                                         !
 ! R69   R(68,69)                1.0974                                         !
 ! R70   R(68,70)                1.0958                                         !
 ! R71   R(68,71)                1.5363                                         !
 ! R72   R(71,72)                1.0968                                         !
 ! R73   R(71,73)                1.0972                                         !
 ! R74   R(71,74)                1.4613                                         !
 ! R75   R(74,75)                1.0376                                         !
 ! R76   R(74,82)                1.3342                                         !
 ! R77   R(76,77)                1.0098                                         !
 ! R78   R(76,78)                1.0098                                         !
 ! R79   R(76,82)                1.3554                                         !
 ! R80   R(79,80)                1.04                                           !
 ! R81   R(79,81)                1.0088                                         !
 ! R82   R(79,82)                1.3329                                         !
 ! A1    A(2,1,3)              112.2986                                         !
 ! A2    A(2,1,4)              111.1583                                         !
 ! A3    A(2,1,5)              113.1413                                         !
 ! A4    A(3,1,4)              105.1864                                         !
 ! A5    A(3,1,5)              105.4537                                         !
 ! A6    A(4,1,5)              109.1473                                         !
 ! A7    A(1,5,6)              106.144                                          !
 ! A8    A(1,5,7)              101.4139                                         !
 ! A9    A(1,5,8)              111.6942                                         !
 ! A10   A(6,5,7)              108.8663                                         !
 ! A11   A(6,5,8)              110.2204                                         !
 ! A12   A(7,5,8)              117.6499                                         !
 ! A13   A(5,7,10)             117.264                                          !
 ! A14   A(5,7,19)             119.065                                          !
 ! A15   A(10,7,19)            123.616                                          !
 ! A16   A(5,8,9)              107.7589                                         !
 ! A17   A(5,8,11)             110.4265                                         !
 ! A18   A(5,8,15)             112.0377                                         !
 ! A19   A(9,8,11)             110.2254                                         !
 ! A20   A(9,8,15)             107.3006                                         !
 ! A21   A(11,8,15)            109.0353                                         !
 ! A22   A(8,11,12)            110.2316                                         !
 ! A23   A(8,11,13)            114.5334                                         !
 ! A24   A(8,11,14)            109.8579                                         !
 ! A25   A(12,11,13)           106.6282                                         !
 ! A26   A(12,11,14)           107.8277                                         !
 ! A27   A(13,11,14)           107.5                                            !
 ! A28   A(8,15,16)            111.2423                                         !
 ! A29   A(8,15,17)            112.7758                                         !
 ! A30   A(8,15,18)            109.3788                                         !
 ! A31   A(16,15,17)           109.5136                                         !
 ! A32   A(16,15,18)           107.851                                          !
 ! A33   A(17,15,18)           105.8257                                         !
 ! A34   A(7,19,20)            118.6751                                         !
 ! A35   A(7,19,21)            121.4596                                         !
 ! A36   A(20,19,21)           115.6028                                         !
 ! A37   A(19,21,22)           105.9956                                         !
 ! A38   A(19,21,23)           106.0059                                         !
 ! A39   A(19,21,24)           111.2797                                         !
 ! A40   A(22,21,23)           110.1837                                         !
 ! A41   A(22,21,24)           111.1712                                         !
 ! A42   A(23,21,24)           111.9224                                         !
 ! A43   A(21,23,28)           121.7079                                         !
 ! A44   A(21,23,29)           113.136                                          !
 ! A45   A(28,23,29)           124.9755                                         !
 ! A46   A(21,24,25)           109.6464                                         !
 ! A47   A(21,24,26)           110.3275                                         !
 ! A48   A(21,24,27)           111.0479                                         !
 ! A49   A(25,24,26)           109.101                                          !
 ! A50   A(25,24,27)           107.0898                                         !
 ! A51   A(26,24,27)           109.5546                                         !
 ! A52   A(23,29,30)           118.0797                                         !
 ! A53   A(23,29,31)           125.6184                                         !
 ! A54   A(30,29,31)           114.1222                                         !
 ! A55   A(29,31,32)           111.6885                                         !
 ! A56   A(29,31,33)           107.0503                                         !
 ! A57   A(29,31,34)           112.7152                                         !
 ! A58   A(32,31,33)           109.4036                                         !
 ! A59   A(32,31,34)           107.4963                                         !
 ! A60   A(33,31,34)           108.4178                                         !
 ! A61   A(31,33,37)           121.5413                                         !
 ! A62   A(31,33,40)           115.5223                                         !
 ! A63   A(37,33,40)           122.9058                                         !
 ! A64   A(31,34,35)           107.7406                                         !
 ! A65   A(31,34,36)           107.9874                                         !
 ! A66   A(31,34,38)           112.4726                                         !
 ! A67   A(35,34,36)           108.164                                          !
 ! A68   A(35,34,38)           108.6525                                         !
 ! A69   A(36,34,38)           111.666                                          !
 ! A70   A(34,38,39)           107.0106                                         !
 ! A71   A(33,40,41)           114.4509                                         !
 ! A72   A(33,40,42)           120.7835                                         !
 ! A73   A(41,40,42)           116.1452                                         !
 ! A74   A(40,42,43)           108.4537                                         !
 ! A75   A(40,42,44)           109.8383                                         !
 ! A76   A(40,42,45)           109.9858                                         !
 ! A77   A(43,42,44)           108.6281                                         !
 ! A78   A(43,42,45)           110.3988                                         !
 ! A79   A(44,42,45)           109.5119                                         !
 ! A80   A(42,44,48)           122.2455                                         !
 ! A81   A(42,44,59)           113.8951                                         !
 ! A82   A(48,44,59)           123.8499                                         !
 ! A83   A(42,45,46)           108.6233                                         !
 ! A84   A(42,45,47)           107.9415                                         !
 ! A85   A(42,45,49)           114.6996                                         !
 ! A86   A(46,45,47)           105.9588                                         !
 ! A87   A(46,45,49)           109.4977                                         !
 ! A88   A(47,45,49)           109.7476                                         !
 ! A89   A(45,49,50)           108.412                                          !
 ! A90   A(45,49,51)           109.2693                                         !
 ! A91   A(45,49,55)           111.9666                                         !
 ! A92   A(50,49,51)           108.0764                                         !
 ! A93   A(50,49,55)           108.0717                                         !
 ! A94   A(51,49,55)           110.9285                                         !
 ! A95   A(49,51,52)           110.7582                                         !
 ! A96   A(49,51,53)           111.4317                                         !
 ! A97   A(49,51,54)           110.8831                                         !
 ! A98   A(52,51,53)           107.8081                                         !
 ! A99   A(52,51,54)           107.8663                                         !
 ! A100  A(53,51,54)           107.9478                                         !
 ! A101  A(49,55,56)           110.766                                          !
 ! A102  A(49,55,57)           112.3003                                         !
 ! A103  A(49,55,58)           110.5882                                         !
 ! A104  A(56,55,57)           108.1524                                         !
 ! A105  A(56,55,58)           107.6826                                         !
 ! A106  A(57,55,58)           107.1637                                         !
 ! A107  A(44,59,60)           115.6256                                         !
 ! A108  A(44,59,61)           121.7439                                         !
 ! A109  A(60,59,61)           107.7627                                         !
 ! A110  A(59,61,62)           108.34                                           !
 ! A111  A(59,61,63)           105.34                                           !
 ! A112  A(59,61,64)           109.6217                                         !
 ! A113  A(62,61,63)           110.8586                                         !
 ! A114  A(62,61,64)           110.701                                          !
 ! A115  A(63,61,64)           111.7838                                         !
 ! A116  A(61,63,67)           116.5506                                         !
 ! A117  A(61,63,83)           116.0808                                         !
 ! A118  A(67,63,83)           127.2846                                         !
 ! A119  A(61,64,65)           108.2148                                         !
 ! A120  A(61,64,66)           106.5189                                         !
 ! A121  A(61,64,68)           117.0108                                         !
 ! A122  A(65,64,66)           106.0708                                         !
 ! A123  A(65,64,68)           110.3163                                         !
 ! A124  A(66,64,68)           108.1163                                         !
 ! A125  A(64,68,69)           110.2703                                         !
 ! A126  A(64,68,70)           108.8855                                         !
 ! A127  A(64,68,71)           116.3253                                         !
 ! A128  A(69,68,70)           105.8526                                         !
 ! A129  A(69,68,71)           108.8041                                         !
 ! A130  A(70,68,71)           106.1297                                         !
 ! A131  A(68,71,72)           109.9592                                         !
 ! A132  A(68,71,73)           109.2088                                         !
 ! A133  A(68,71,74)           110.2929                                         !
 ! A134  A(72,71,73)           107.8216                                         !
 ! A135  A(72,71,74)           109.4993                                         !
 ! A136  A(73,71,74)           110.0196                                         !
 ! A137  A(71,74,75)           115.4066                                         !
 ! A138  A(71,74,82)           125.7248                                         !
 ! A139  A(75,74,82)           111.9213                                         !
 ! A140  A(77,76,78)           115.6709                                         !
 ! A141  A(77,76,82)           119.2908                                         !
 ! A142  A(78,76,82)           118.6973                                         !
 ! A143  A(80,79,81)           120.3754                                         !
 ! A144  A(80,79,82)           115.7317                                         !
 ! A145  A(81,79,82)           121.2263                                         !
 ! A146  A(74,82,76)           120.315                                          !
 ! A147  A(74,82,79)           118.3118                                         !
 ! A148  A(76,82,79)           121.3716                                         !
 ! D1    D(2,1,5,6)            -46.4821                                         !
 ! D2    D(2,1,5,7)           -160.1771                                         !
 ! D3    D(2,1,5,8)             73.6774                                         !
 ! D4    D(3,1,5,6)             76.6291                                         !
 ! D5    D(3,1,5,7)            -37.0659                                         !
 ! D6    D(3,1,5,8)           -163.2114                                         !
 ! D7    D(4,1,5,6)           -170.8086                                         !
 ! D8    D(4,1,5,7)             75.4965                                         !
 ! D9    D(4,1,5,8)            -50.6491                                         !
 ! D10   D(1,5,7,10)            24.9183                                         !
 ! D11   D(1,5,7,19)          -152.4842                                         !
 ! D12   D(6,5,7,10)           -86.7206                                         !
 ! D13   D(6,5,7,19)            95.8769                                         !
 ! D14   D(8,5,7,10)           147.025                                          !
 ! D15   D(8,5,7,19)           -30.3775                                         !
 ! D16   D(1,5,8,9)             80.8256                                         !
 ! D17   D(1,5,8,11)          -158.7336                                         !
 ! D18   D(1,5,8,15)           -36.9832                                         !
 ! D19   D(6,5,8,9)           -161.436                                          !
 ! D20   D(6,5,8,11)           -40.9952                                         !
 ! D21   D(6,5,8,15)            80.7553                                         !
 ! D22   D(7,5,8,9)            -35.8451                                         !
 ! D23   D(7,5,8,11)            84.5957                                         !
 ! D24   D(7,5,8,15)          -153.6539                                         !
 ! D25   D(5,7,19,20)            4.692                                          !
 ! D26   D(5,7,19,21)          160.48                                           !
 ! D27   D(10,7,19,20)        -172.5353                                         !
 ! D28   D(10,7,19,21)         -16.7472                                         !
 ! D29   D(5,8,11,12)           68.391                                          !
 ! D30   D(5,8,11,13)          -51.8382                                         !
 ! D31   D(5,8,11,14)         -172.922                                          !
 ! D32   D(9,8,11,12)         -172.6569                                         !
 ! D33   D(9,8,11,13)           67.1139                                         !
 ! D34   D(9,8,11,14)          -53.9699                                         !
 ! D35   D(15,8,11,12)         -55.1165                                         !
 ! D36   D(15,8,11,13)        -175.3457                                         !
 ! D37   D(15,8,11,14)          63.5705                                         !
 ! D38   D(5,8,15,16)          -59.4472                                         !
 ! D39   D(5,8,15,17)           64.0502                                         !
 ! D40   D(5,8,15,18)         -178.4838                                         !
 ! D41   D(9,8,15,16)         -177.5288                                         !
 ! D42   D(9,8,15,17)          -54.0314                                         !
 ! D43   D(9,8,15,18)           63.4345                                         !
 ! D44   D(11,8,15,16)          63.0973                                         !
 ! D45   D(11,8,15,17)        -173.4053                                         !
 ! D46   D(11,8,15,18)         -55.9393                                         !
 ! D47   D(7,19,21,22)          26.1903                                         !
 ! D48   D(7,19,21,23)         -90.9154                                         !
 ! D49   D(7,19,21,24)         147.177                                          !
 ! D50   D(20,19,21,22)       -177.3248                                         !
 ! D51   D(20,19,21,23)         65.5695                                         !
 ! D52   D(20,19,21,24)        -56.3381                                         !
 ! D53   D(19,21,23,28)       -115.9549                                         !
 ! D54   D(19,21,23,29)         59.3905                                         !
 ! D55   D(22,21,23,28)        129.7847                                         !
 ! D56   D(22,21,23,29)        -54.8698                                         !
 ! D57   D(24,21,23,28)          5.5406                                         !
 ! D58   D(24,21,23,29)       -179.1139                                         !
 ! D59   D(19,21,24,25)        179.0937                                         !
 ! D60   D(19,21,24,26)        -60.7216                                         !
 ! D61   D(19,21,24,27)         60.9475                                         !
 ! D62   D(22,21,24,25)        -63.0035                                         !
 ! D63   D(22,21,24,26)         57.1813                                         !
 ! D64   D(22,21,24,27)        178.8503                                         !
 ! D65   D(23,21,24,25)         60.6873                                         !
 ! D66   D(23,21,24,26)       -179.1279                                         !
 ! D67   D(23,21,24,27)        -57.4589                                         !
 ! D68   D(21,23,29,30)          6.6374                                         !
 ! D69   D(21,23,29,31)       -155.5412                                         !
 ! D70   D(28,23,29,30)       -178.1956                                         !
 ! D71   D(28,23,29,31)         19.6258                                         !
 ! D72   D(23,29,31,32)        -88.238                                          !
 ! D73   D(23,29,31,33)        152.0299                                         !
 ! D74   D(23,29,31,34)         32.9097                                         !
 ! D75   D(30,29,31,32)        108.9712                                         !
 ! D76   D(30,29,31,33)        -10.7608                                         !
 ! D77   D(30,29,31,34)       -129.881                                          !
 ! D78   D(29,31,33,37)        -14.6627                                         !
 ! D79   D(29,31,33,40)        167.2925                                         !
 ! D80   D(32,31,33,37)       -135.851                                          !
 ! D81   D(32,31,33,40)         46.1042                                         !
 ! D82   D(34,31,33,37)        107.1967                                         !
 ! D83   D(34,31,33,40)        -70.8481                                         !
 ! D84   D(29,31,34,35)        -69.1893                                         !
 ! D85   D(29,31,34,36)         47.4257                                         !
 ! D86   D(29,31,34,38)        171.093                                          !
 ! D87   D(32,31,34,35)         54.317                                          !
 ! D88   D(32,31,34,36)        170.932                                          !
 ! D89   D(32,31,34,38)        -65.4007                                         !
 ! D90   D(33,31,34,35)        172.4886                                         !
 ! D91   D(33,31,34,36)        -70.8965                                         !
 ! D92   D(33,31,34,38)         52.7709                                         !
 ! D93   D(31,33,40,41)         11.3116                                         !
 ! D94   D(31,33,40,42)        157.8565                                         !
 ! D95   D(37,33,40,41)       -166.7036                                         !
 ! D96   D(37,33,40,42)        -20.1587                                         !
 ! D97   D(31,34,38,39)        -87.4688                                         !
 ! D98   D(35,34,38,39)        153.3444                                         !
 ! D99   D(36,34,38,39)         34.1267                                         !
 ! D100  D(33,40,42,43)         59.5626                                         !
 ! D101  D(33,40,42,44)        -59.0167                                         !
 ! D102  D(33,40,42,45)       -179.6166                                         !
 ! D103  D(41,40,42,43)       -154.4271                                         !
 ! D104  D(41,40,42,44)         86.9936                                         !
 ! D105  D(41,40,42,45)        -33.6062                                         !
 ! D106  D(40,42,44,48)        -18.1599                                         !
 ! D107  D(40,42,44,59)        162.9216                                         !
 ! D108  D(43,42,44,48)       -136.6315                                         !
 ! D109  D(43,42,44,59)         44.45                                           !
 ! D110  D(45,42,44,48)        102.7261                                         !
 ! D111  D(45,42,44,59)        -76.1925                                         !
 ! D112  D(40,42,45,46)        174.7025                                         !
 ! D113  D(40,42,45,47)         60.2409                                         !
 ! D114  D(40,42,45,49)        -62.4315                                         !
 ! D115  D(43,42,45,46)        -65.6538                                         !
 ! D116  D(43,42,45,47)        179.8846                                         !
 ! D117  D(43,42,45,49)         57.2121                                         !
 ! D118  D(44,42,45,46)         53.9061                                         !
 ! D119  D(44,42,45,47)        -60.5555                                         !
 ! D120  D(44,42,45,49)        176.772                                          !
 ! D121  D(42,44,59,60)         13.9278                                         !
 ! D122  D(42,44,59,61)        147.9257                                         !
 ! D123  D(48,44,59,60)       -164.9708                                         !
 ! D124  D(48,44,59,61)        -30.9729                                         !
 ! D125  D(42,45,49,50)         58.7692                                         !
 ! D126  D(42,45,49,51)        176.3376                                         !
 ! D127  D(42,45,49,55)        -60.3618                                         !
 ! D128  D(46,45,49,50)       -178.8368                                         !
 ! D129  D(46,45,49,51)        -61.2683                                         !
 ! D130  D(46,45,49,55)         62.0323                                         !
 ! D131  D(47,45,49,50)        -62.9238                                         !
 ! D132  D(47,45,49,51)         54.6447                                         !
 ! D133  D(47,45,49,55)        177.9453                                         !
 ! D134  D(45,49,51,52)         62.5783                                         !
 ! D135  D(45,49,51,53)        -57.4309                                         !
 ! D136  D(45,49,51,54)       -177.701                                          !
 ! D137  D(50,49,51,52)       -179.6423                                         !
 ! D138  D(50,49,51,53)         60.3485                                         !
 ! D139  D(50,49,51,54)        -59.9216                                         !
 ! D140  D(55,49,51,52)        -61.336                                          !
 ! D141  D(55,49,51,53)        178.6548                                         !
 ! D142  D(55,49,51,54)         58.3847                                         !
 ! D143  D(45,49,55,56)        -57.3102                                         !
 ! D144  D(45,49,55,57)         63.7302                                         !
 ! D145  D(45,49,55,58)       -176.6144                                         !
 ! D146  D(50,49,55,56)       -176.6416                                         !
 ! D147  D(50,49,55,57)        -55.6012                                         !
 ! D148  D(50,49,55,58)         64.0543                                         !
 ! D149  D(51,49,55,56)         65.0494                                         !
 ! D150  D(51,49,55,57)       -173.9102                                         !
 ! D151  D(51,49,55,58)        -54.2548                                         !
 ! D152  D(44,59,61,62)         14.2839                                         !
 ! D153  D(44,59,61,63)       -104.3956                                         !
 ! D154  D(44,59,61,64)        135.1843                                         !
 ! D155  D(60,59,61,62)        151.3561                                         !
 ! D156  D(60,59,61,63)         32.6766                                         !
 ! D157  D(60,59,61,64)        -87.7435                                         !
 ! D158  D(59,61,63,67)        152.0501                                         !
 ! D159  D(59,61,63,83)        -31.0365                                         !
 ! D160  D(62,61,63,67)         35.0695                                         !
 ! D161  D(62,61,63,83)       -148.0171                                         !
 ! D162  D(64,61,63,67)        -88.9622                                         !
 ! D163  D(64,61,63,83)         87.9512                                         !
 ! D164  D(59,61,64,65)         69.0785                                         !
 ! D165  D(59,61,64,66)        -44.5977                                         !
 ! D166  D(59,61,64,68)       -165.6102                                         !
 ! D167  D(62,61,64,65)       -171.4605                                         !
 ! D168  D(62,61,64,66)         74.8633                                         !
 ! D169  D(62,61,64,68)        -46.1492                                         !
 ! D170  D(63,61,64,65)        -47.3404                                         !
 ! D171  D(63,61,64,66)       -161.0167                                         !
 ! D172  D(63,61,64,68)         77.9709                                         !
 ! D173  D(61,64,68,69)         22.8135                                         !
 ! D174  D(61,64,68,70)        138.5421                                         !
 ! D175  D(61,64,68,71)       -101.6657                                         !
 ! D176  D(65,64,68,69)        147.0672                                         !
 ! D177  D(65,64,68,70)        -97.2042                                         !
 ! D178  D(65,64,68,71)         22.588                                          !
 ! D179  D(66,64,68,69)        -97.3564                                         !
 ! D180  D(66,64,68,70)         18.3722                                         !
 ! D181  D(66,64,68,71)        138.1644                                         !
 ! D182  D(64,68,71,72)        -51.6779                                         !
 ! D183  D(64,68,71,73)       -169.7991                                         !
 ! D184  D(64,68,71,74)         69.1803                                         !
 ! D185  D(69,68,71,72)       -176.9042                                         !
 ! D186  D(69,68,71,73)         64.9746                                         !
 ! D187  D(69,68,71,74)        -56.0461                                         !
 ! D188  D(70,68,71,72)         69.5885                                         !
 ! D189  D(70,68,71,73)        -48.5327                                         !
 ! D190  D(70,68,71,74)       -169.5533                                         !
 ! D191  D(68,71,74,75)         12.0949                                         !
 ! D192  D(68,71,74,82)       -136.1951                                         !
 ! D193  D(72,71,74,75)        133.2276                                         !
 ! D194  D(72,71,74,82)        -15.0624                                         !
 ! D195  D(73,71,74,75)       -108.4406                                         !
 ! D196  D(73,71,74,82)        103.2694                                         !
 ! D197  D(71,74,82,76)        -25.1915                                         !
 ! D198  D(71,74,82,79)        154.364                                          !
 ! D199  D(75,74,82,76)       -174.4085                                         !
 ! D200  D(75,74,82,79)          5.1471                                         !
 ! D201  D(77,76,82,74)       -176.2116                                         !
 ! D202  D(77,76,82,79)          4.2467                                         !
 ! D203  D(78,76,82,74)        -25.3619                                         !
 ! D204  D(78,76,82,79)        155.0964                                         !
 ! D205  D(80,79,82,74)        -19.5516                                         !
 ! D206  D(80,79,82,76)        159.999                                          !
 ! D207  D(81,79,82,74)        178.8973                                         !
 ! D208  D(81,79,82,76)         -1.5521                                         !
 --------------------------------------------------------------------------------
 Symmetry turned off by external request.
 Stoichiometry    C23H45N8O7(1+)
 Framework group  C1[X(C23H45N8O7)]
 Deg. of freedom   243
 Full point group                 C1      NOp   1
                          Input orientation:                          
 ---------------------------------------------------------------------
 Center     Atomic      Atomic             Coordinates (Angstroms)
 Number     Number       Type             X           Y           Z
 ---------------------------------------------------------------------
      1          7           0       -3.744844    2.926509    2.371241
      2          1           0       -3.470502    3.874564    2.113011
      3          1           0       -4.051899    2.861277    3.358624
      4          1           0       -2.936423    2.263228    2.290526
      5          6           0       -4.901544    2.399743    1.554278
      6          1           0       -5.650588    3.199825    1.535247
      7          6           0       -5.418998    1.248454    2.460540
      8          6           0       -4.468239    2.040503    0.117459
      9          1           0       -3.998286    1.050890    0.147602
     10          8           0       -5.181538    1.330190    3.670805
     11          6           0       -5.686506    2.022421   -0.822135
     12          1           0       -6.077993    3.037799   -0.954898
     13          1           0       -6.522064    1.407823   -0.471425
     14          1           0       -5.391621    1.646149   -1.805401
     15          6           0       -3.425429    3.024842   -0.433181
     16          1           0       -3.816818    4.051151   -0.450057
     17          1           0       -2.486284    3.001605    0.124184
     18          1           0       -3.170324    2.746742   -1.458622
     19          7           0       -6.044253    0.205467    1.895479
     20          1           0       -6.099185    0.161099    0.886986
     21          6           0       -6.179631   -1.087210    2.600192
     22          1           0       -6.146512   -0.853557    3.666591
     23          6           0       -4.935782   -1.927921    2.196377
     24          6           0       -7.479059   -1.783208    2.230944
     25          1           0       -7.544081   -2.740512    2.752847
     26          1           0       -8.334795   -1.163748    2.511935
     27          1           0       -7.518845   -1.998098    1.158964
     28          8           0       -5.041041   -2.964913    1.561482
     29          7           0       -3.754635   -1.334105    2.534221
     30          1           0       -3.788300   -0.486373    3.089052
     31          6           0       -2.474227   -1.572928    1.892668
     32          1           0       -1.940280   -2.413194    2.353561
     33          6           0       -1.648964   -0.298744    2.052466
     34          6           0       -2.612945   -1.885536    0.358849
     35          1           0       -3.084255   -2.861684    0.260631
     36          1           0       -3.284804   -1.134683   -0.081292
     37          8           0       -2.172791    0.778325    2.396566
     38          8           0       -1.368121   -1.918278   -0.298518
     39          1           0       -1.166169   -0.998182   -0.577587
     40          7           0       -0.346359   -0.413914    1.759361
     41          1           0       -0.094539   -1.283283    1.294303
     42          6           0        0.442536    0.754508    1.404112
     43          1           0        0.410531    1.460275    2.238243
     44          6           0       -0.161847    1.435334    0.159305
     45          6           0        1.894883    0.338707    1.108520
     46          1           0        2.445181    1.217737    0.752127
     47          1           0        1.879925   -0.369691    0.268132
     48          8           0       -0.947701    0.850193   -0.597548
     49          6           0        2.640565   -0.285265    2.301317
     50          1           0        2.085743   -1.175389    2.630488
     51          6           0        4.035053   -0.734534    1.847530
     52          1           0        4.630833    0.124021    1.514472
     53          1           0        3.975763   -1.444502    1.014946
     54          1           0        4.574675   -1.220155    2.667308
     55          6           0        2.735685    0.681546    3.487571
     56          1           0        3.231383    1.614509    3.190392
     57          1           0        1.751393    0.933740    3.898536
     58          1           0        3.320946    0.238077    4.299725
     59          7           0        0.263618    2.704793   -0.031641
     60          1           0        1.080321    2.985068    0.517305
     61          6           0        0.410167    3.277492   -1.378424
     62          1           0       -0.106749    2.627515   -2.085970
     63          6           0        1.943364    3.291400   -1.655841
     64          6           0       -0.191181    4.702961   -1.405166
     65          1           0        0.450223    5.357627   -0.799623
     66          1           0       -1.149367    4.646474   -0.878879
     67          8           0        2.302013    3.211284   -2.875331
     68          6           0       -0.442538    5.334090   -2.796400
     69          1           0       -0.536585    4.549881   -3.558255
     70          1           0       -1.407195    5.853789   -2.781084
     71          6           0        0.590809    6.366229   -3.273072
     72          1           0        0.740533    7.130358   -2.500626
     73          1           0        0.211850    6.867620   -4.172415
     74          7           0        1.864173    5.711179   -3.564503
     75          1           0        1.833002    4.674792   -3.603406
     76          7           0        3.271595    7.483497   -2.998110
     77          1           0        4.202454    7.813843   -2.788252
     78          1           0        2.665476    8.146907   -3.458668
     79          7           0        4.057081    5.276112   -3.068937
     80          1           0        3.762039    4.288201   -2.932302
     81          1           0        4.989679    5.569088   -2.819732
     82          6           0        3.070012    6.160364   -3.211827
     83          8           0        2.678632    3.439924   -0.661138
 ---------------------------------------------------------------------
 Rotational constants (GHZ):           0.1463196           0.0521007           0.0431233
 Standard basis: 6-31G(d) (6D, 7F)
   660 basis functions,  1244 primitive gaussians,   660 cartesian basis functions
   147 alpha electrons      147 beta electrons
       nuclear repulsion energy      4859.6402974679 Hartrees.
 NAtoms=   83 NActive=   83 NUniq=   83 SFac= 1.00D+00 NAtFMM=   60 NAOKFM=T Big=T
 Integral buffers will be    131072 words long.
 Raffenetti 2 integral format.
 Two-electron integral symmetry is turned off.
 Nuclear repulsion after empirical dispersion term =     4859.4595507663 Hartrees.
 One-electron integrals computed using PRISM.
 NBasis=   660 RedAO= T EigKep=  1.71D-03  NBF=   660
 NBsUse=   660 1.00D-06 EigRej= -1.00D+00 NBFU=   660
 Initial guess from the checkpoint file:  "conf-126.chk"
 B after Tr=     0.000000    0.000000    0.000000
         Rot=    1.000000    0.000000    0.000000    0.000000 Ang=   0.00 deg.
 Requested convergence on RMS density matrix=1.00D-08 within 128 cycles.
 Requested convergence on MAX density matrix=1.00D-06.
 Requested convergence on             energy=1.00D-06.
 No special actions if energy rises.
 SCF Done:  E(RB3LYP) =  -1868.20434120     A.U. after    1 cycles
            NFock=  1  Conv=0.79D-08     -V/T= 2.0093

 **********************************************************************

            Population analysis using the SCF Density.

 **********************************************************************

 Alpha  occ. eigenvalues --  -19.25294 -19.24422 -19.22263 -19.22164 -19.20812
 Alpha  occ. eigenvalues --  -19.17233 -19.16753 -14.56680 -14.49009 -14.48609
 Alpha  occ. eigenvalues --  -14.46398 -14.45903 -14.45842 -14.44894 -14.44394
 Alpha  occ. eigenvalues --  -10.43410 -10.42571 -10.40333 -10.38993 -10.38481
 Alpha  occ. eigenvalues --  -10.37960 -10.34746 -10.33462 -10.33074 -10.33023
 Alpha  occ. eigenvalues --  -10.32974 -10.32877 -10.31962 -10.30304 -10.29997
 Alpha  occ. eigenvalues --  -10.29725 -10.28986 -10.28241 -10.27051 -10.26606
 Alpha  occ. eigenvalues --  -10.26455 -10.24412 -10.23719  -1.17937  -1.15824
 Alpha  occ. eigenvalues --   -1.13385  -1.12790  -1.12356  -1.11488  -1.10315
 Alpha  occ. eigenvalues --   -1.09878  -1.05485  -1.03606  -1.02573  -1.01571
 Alpha  occ. eigenvalues --   -1.01537  -1.00483  -1.00133  -0.94050  -0.89965
 Alpha  occ. eigenvalues --   -0.88858  -0.88039  -0.85592  -0.84149  -0.83672
 Alpha  occ. eigenvalues --   -0.81690  -0.80898  -0.76665  -0.75508  -0.75247
 Alpha  occ. eigenvalues --   -0.74372  -0.73992  -0.73012  -0.72533  -0.72255
 Alpha  occ. eigenvalues --   -0.71492  -0.69990  -0.69451  -0.68335  -0.67769
 Alpha  occ. eigenvalues --   -0.66945  -0.66370  -0.66014  -0.65159  -0.64218
 Alpha  occ. eigenvalues --   -0.62910  -0.62606  -0.61247  -0.60970  -0.60753
 Alpha  occ. eigenvalues --   -0.60098  -0.59147  -0.58792  -0.58478  -0.57849
 Alpha  occ. eigenvalues --   -0.56872  -0.56571  -0.56268  -0.55940  -0.55259
 Alpha  occ. eigenvalues --   -0.54840  -0.54257  -0.54211  -0.53223  -0.53118
 Alpha  occ. eigenvalues --   -0.52656  -0.52356  -0.52134  -0.51564  -0.51401
 Alpha  occ. eigenvalues --   -0.50917  -0.50323  -0.50077  -0.49910  -0.49642
 Alpha  occ. eigenvalues --   -0.49198  -0.48821  -0.48534  -0.47995  -0.47505
 Alpha  occ. eigenvalues --   -0.47182  -0.46946  -0.46889  -0.46344  -0.46284
 Alpha  occ. eigenvalues --   -0.46000  -0.45913  -0.45194  -0.44997  -0.44955
 Alpha  occ. eigenvalues --   -0.44682  -0.43667  -0.43573  -0.42464  -0.41598
 Alpha  occ. eigenvalues --   -0.40262  -0.40102  -0.39936  -0.39696  -0.39255
 Alpha  occ. eigenvalues --   -0.39165  -0.38532  -0.38114  -0.36801  -0.36525
 Alpha  occ. eigenvalues --   -0.36092  -0.34777  -0.33829  -0.33451  -0.32538
 Alpha  occ. eigenvalues --   -0.31169  -0.31030
 Alpha virt. eigenvalues --   -0.12524  -0.09928  -0.08143  -0.08052  -0.07552
 Alpha virt. eigenvalues --   -0.06146  -0.04481  -0.04073  -0.03458  -0.02496
 Alpha virt. eigenvalues --   -0.01167  -0.00704  -0.00455   0.00037   0.00173
 Alpha virt. eigenvalues --    0.01106   0.01615   0.01872   0.02116   0.02425
 Alpha virt. eigenvalues --    0.02787   0.03043   0.03307   0.03489   0.03980
 Alpha virt. eigenvalues --    0.04305   0.04947   0.05201   0.05324   0.05862
 Alpha virt. eigenvalues --    0.06110   0.06489   0.06793   0.06912   0.07419
 Alpha virt. eigenvalues --    0.07812   0.08254   0.08427   0.08601   0.08707
 Alpha virt. eigenvalues --    0.09099   0.09395   0.09762   0.10228   0.10359
 Alpha virt. eigenvalues --    0.10493   0.10780   0.10801   0.11402   0.11515
 Alpha virt. eigenvalues --    0.11925   0.12066   0.12290   0.12762   0.13082
 Alpha virt. eigenvalues --    0.13684   0.13977   0.14091   0.14789   0.15253
 Alpha virt. eigenvalues --    0.15319   0.15763   0.15903   0.16546   0.16905
 Alpha virt. eigenvalues --    0.17514   0.18423   0.18819   0.19074   0.19312
 Alpha virt. eigenvalues --    0.19792   0.20216   0.20950   0.21280   0.21949
 Alpha virt. eigenvalues --    0.22404   0.23656   0.26512   0.27036   0.27860
 Alpha virt. eigenvalues --    0.28107   0.29061   0.30143   0.31376   0.31967
 Alpha virt. eigenvalues --    0.32835   0.33471   0.36498   0.37130   0.37595
 Alpha virt. eigenvalues --    0.38714   0.39162   0.39917   0.41162   0.41313
 Alpha virt. eigenvalues --    0.41905   0.42807   0.43418   0.43441   0.43963
 Alpha virt. eigenvalues --    0.44746   0.44814   0.45162   0.45570   0.45616
 Alpha virt. eigenvalues --    0.46147   0.46372   0.47104   0.47358   0.47776
 Alpha virt. eigenvalues --    0.48467   0.48743   0.49263   0.49869   0.50574
 Alpha virt. eigenvalues --    0.50880   0.51313   0.51916   0.52184   0.52387
 Alpha virt. eigenvalues --    0.52640   0.52866   0.53857   0.53983   0.54341
 Alpha virt. eigenvalues --    0.54977   0.55276   0.55766   0.56260   0.56836
 Alpha virt. eigenvalues --    0.57371   0.57664   0.58084   0.58483   0.58768
 Alpha virt. eigenvalues --    0.59256   0.59687   0.59999   0.60947   0.61654
 Alpha virt. eigenvalues --    0.61806   0.62979   0.63468   0.63887   0.64166
 Alpha virt. eigenvalues --    0.64605   0.65257   0.65344   0.65797   0.66437
 Alpha virt. eigenvalues --    0.66782   0.66953   0.67282   0.67721   0.68253
 Alpha virt. eigenvalues --    0.68857   0.69792   0.70213   0.70328   0.71003
 Alpha virt. eigenvalues --    0.71409   0.71600   0.72610   0.72812   0.73407
 Alpha virt. eigenvalues --    0.73778   0.74071   0.75503   0.75630   0.75880
 Alpha virt. eigenvalues --    0.76387   0.76516   0.76973   0.77314   0.77557
 Alpha virt. eigenvalues --    0.77828   0.78125   0.78228   0.78572   0.79041
 Alpha virt. eigenvalues --    0.79636   0.79915   0.80220   0.80489   0.80856
 Alpha virt. eigenvalues --    0.81135   0.81595   0.81707   0.81921   0.82194
 Alpha virt. eigenvalues --    0.82491   0.82651   0.83003   0.83375   0.83527
 Alpha virt. eigenvalues --    0.84585   0.84874   0.85419   0.85517   0.85867
 Alpha virt. eigenvalues --    0.86334   0.86739   0.86931   0.87351   0.87576
 Alpha virt. eigenvalues --    0.87941   0.88549   0.89173   0.89448   0.89792
 Alpha virt. eigenvalues --    0.90292   0.90852   0.91270   0.91416   0.92179
 Alpha virt. eigenvalues --    0.92590   0.92914   0.93808   0.94864   0.95460
 Alpha virt. eigenvalues --    0.95879   0.97739   0.97894   0.98907   0.99443
 Alpha virt. eigenvalues --    1.00291   1.00982   1.01429   1.02662   1.03376
 Alpha virt. eigenvalues --    1.03935   1.04775   1.05710   1.06285   1.06837
 Alpha virt. eigenvalues --    1.07101   1.07986   1.08494   1.09491   1.10245
 Alpha virt. eigenvalues --    1.11550   1.12044   1.12641   1.13211   1.13588
 Alpha virt. eigenvalues --    1.13995   1.15770   1.16815   1.17162   1.18283
 Alpha virt. eigenvalues --    1.19108   1.20578   1.21365   1.22193   1.22427
 Alpha virt. eigenvalues --    1.22759   1.23853   1.24430   1.25041   1.25585
 Alpha virt. eigenvalues --    1.25974   1.27216   1.27902   1.29300   1.29515
 Alpha virt. eigenvalues --    1.30521   1.32240   1.32488   1.33889   1.35459
 Alpha virt. eigenvalues --    1.36136   1.37194   1.37909   1.38354   1.38629
 Alpha virt. eigenvalues --    1.39368   1.39965   1.40238   1.40917   1.41802
 Alpha virt. eigenvalues --    1.43112   1.43486   1.45350   1.46333   1.47039
 Alpha virt. eigenvalues --    1.47691   1.48766   1.49259   1.50763   1.51891
 Alpha virt. eigenvalues --    1.52022   1.52570   1.54281   1.56111   1.56798
 Alpha virt. eigenvalues --    1.56913   1.57621   1.59028   1.59497   1.59666
 Alpha virt. eigenvalues --    1.60073   1.61885   1.62387   1.63152   1.64279
 Alpha virt. eigenvalues --    1.64715   1.64951   1.65434   1.65823   1.66613
 Alpha virt. eigenvalues --    1.67316   1.67782   1.68103   1.68593   1.69739
 Alpha virt. eigenvalues --    1.70494   1.70794   1.71264   1.71919   1.72032
 Alpha virt. eigenvalues --    1.72709   1.73331   1.74246   1.74585   1.75624
 Alpha virt. eigenvalues --    1.76089   1.76553   1.77146   1.77922   1.78398
 Alpha virt. eigenvalues --    1.78693   1.79453   1.79736   1.80412   1.81031
 Alpha virt. eigenvalues --    1.81626   1.82028   1.82604   1.83025   1.83427
 Alpha virt. eigenvalues --    1.84108   1.84339   1.84815   1.85895   1.86411
 Alpha virt. eigenvalues --    1.86964   1.87111   1.87845   1.88005   1.88985
 Alpha virt. eigenvalues --    1.89782   1.90366   1.90650   1.91846   1.92225
 Alpha virt. eigenvalues --    1.93018   1.93814   1.94257   1.94702   1.95443
 Alpha virt. eigenvalues --    1.95827   1.96800   1.96977   1.97272   1.98733
 Alpha virt. eigenvalues --    1.98939   1.99750   2.00188   2.00908   2.01602
 Alpha virt. eigenvalues --    2.02258   2.02291   2.02756   2.02825   2.03865
 Alpha virt. eigenvalues --    2.04191   2.04762   2.05060   2.06874   2.06996
 Alpha virt. eigenvalues --    2.07266   2.08133   2.08427   2.10826   2.11956
 Alpha virt. eigenvalues --    2.13259   2.13961   2.14940   2.15035   2.15633
 Alpha virt. eigenvalues --    2.15792   2.17139   2.18214   2.18607   2.19307
 Alpha virt. eigenvalues --    2.20930   2.21634   2.21961   2.22752   2.23664
 Alpha virt. eigenvalues --    2.24130   2.25125   2.25781   2.26300   2.27112
 Alpha virt. eigenvalues --    2.27686   2.28328   2.29446   2.30956   2.31843
 Alpha virt. eigenvalues --    2.32542   2.33712   2.34354   2.34953   2.35340
 Alpha virt. eigenvalues --    2.35751   2.36245   2.37787   2.38884   2.39952
 Alpha virt. eigenvalues --    2.40794   2.40919   2.41595   2.42524   2.43571
 Alpha virt. eigenvalues --    2.44407   2.45634   2.45859   2.46495   2.47194
 Alpha virt. eigenvalues --    2.47722   2.48426   2.49312   2.50540   2.52281
 Alpha virt. eigenvalues --    2.52860   2.53993   2.55189   2.56438   2.58373
 Alpha virt. eigenvalues --    2.58889   2.59261   2.60160   2.61096   2.62445
 Alpha virt. eigenvalues --    2.63068   2.63638   2.64165   2.64891   2.65676
 Alpha virt. eigenvalues --    2.67895   2.69201   2.70567   2.71021   2.75003
 Alpha virt. eigenvalues --    2.77474   2.78429   2.81214   2.82868   2.84539
 Alpha virt. eigenvalues --    2.86496   2.88236   2.88533   2.90897   2.92439
 Alpha virt. eigenvalues --    2.92623   2.93861   2.94425   2.97070   2.99678
 Alpha virt. eigenvalues --    3.02259   3.03102   3.06281   3.10953   3.12159
 Alpha virt. eigenvalues --    3.69607   3.73262   3.79632   3.81742   3.88291
 Alpha virt. eigenvalues --    3.89570   3.93089   3.95995   3.97201   3.98999
 Alpha virt. eigenvalues --    4.04395   4.05896   4.07272   4.08781   4.10292
 Alpha virt. eigenvalues --    4.11644   4.13695   4.16695   4.19051   4.19464
 Alpha virt. eigenvalues --    4.20081   4.22089   4.23197   4.28613   4.31279
 Alpha virt. eigenvalues --    4.31574   4.34335   4.37546   4.38065   4.42314
 Alpha virt. eigenvalues --    4.44937   4.47125   4.50085   4.50950   4.57262
 Alpha virt. eigenvalues --    4.57479   4.60099   4.65030
          Condensed to atoms (all electrons):
 Mulliken charges:
               1
     1  N   -0.770424
     2  H    0.397346
     3  H    0.420812
     4  H    0.455869
     5  C   -0.102896
     6  H    0.212432
     7  C    0.641141
     8  C   -0.129922
     9  H    0.183636
    10  O   -0.537932
    11  C   -0.478565
    12  H    0.169344
    13  H    0.159422
    14  H    0.191612
    15  C   -0.484792
    16  H    0.141451
    17  H    0.169962
    18  H    0.198256
    19  N   -0.584299
    20  H    0.354706
    21  C   -0.098778
    22  H    0.213207
    23  C    0.614001
    24  C   -0.445867
    25  H    0.193041
    26  H    0.165855
    27  H    0.167687
    28  O   -0.491770
    29  N   -0.643380
    30  H    0.364795
    31  C   -0.035449
    32  H    0.194437
    33  C    0.619834
    34  C   -0.058212
    35  H    0.215911
    36  H    0.127519
    37  O   -0.616685
    38  O   -0.646728
    39  H    0.438504
    40  N   -0.575617
    41  H    0.365150
    42  C   -0.077467
    43  H    0.175493
    44  C    0.629898
    45  C   -0.317888
    46  H    0.191451
    47  H    0.155338
    48  O   -0.566672
    49  C   -0.071494
    50  H    0.131987
    51  C   -0.447014
    52  H    0.155238
    53  H    0.150804
    54  H    0.155793
    55  C   -0.456641
    56  H    0.150965
    57  H    0.138828
    58  H    0.161827
    59  N   -0.597037
    60  H    0.353327
    61  C   -0.075503
    62  H    0.179064
    63  C    0.605410
    64  C   -0.277883
    65  H    0.151699
    66  H    0.143498
    67  O   -0.626363
    68  C   -0.306816
    69  H    0.174889
    70  H    0.155001
    71  C   -0.146064
    72  H    0.163779
    73  H    0.171179
    74  N   -0.605897
    75  H    0.403587
    76  N   -0.754039
    77  H    0.366197
    78  H    0.371037
    79  N   -0.759562
    80  H    0.417726
    81  H    0.353013
    82  C    0.767815
    83  O   -0.563119
 Sum of Mulliken charges =   1.00000
 Mulliken charges with hydrogens summed into heavy atoms:
               1
     1  N    0.503603
     5  C    0.109537
     7  C    0.641141
     8  C    0.053714
    10  O   -0.537932
    11  C    0.041813
    15  C    0.024877
    19  N   -0.229593
    21  C    0.114430
    23  C    0.614001
    24  C    0.080716
    28  O   -0.491770
    29  N   -0.278585
    31  C    0.158987
    33  C    0.619834
    34  C    0.285217
    37  O   -0.616685
    38  O   -0.208224
    40  N   -0.210467
    42  C    0.098027
    44  C    0.629898
    45  C    0.028901
    48  O   -0.566672
    49  C    0.060493
    51  C    0.014822
    55  C   -0.005021
    59  N   -0.243710
    61  C    0.103561
    63  C    0.605410
    64  C    0.017314
    67  O   -0.626363
    68  C    0.023075
    71  C    0.188894
    74  N   -0.202309
    76  N   -0.016805
    79  N    0.011176
    82  C    0.767815
    83  O   -0.563119
 Electronic spatial extent (au):  <R**2>=          29182.7823
 Charge=              1.0000 electrons
 Dipole moment (field-independent basis, Debye):
    X=             -7.8427    Y=             23.3572    Z=              0.4581  Tot=             24.6430
 Quadrupole moment (field-independent basis, Debye-Ang):
   XX=           -123.6852   YY=            -83.6435   ZZ=           -198.3078
   XY=              7.0683   XZ=            -29.7563   YZ=            -42.8815
 Traceless Quadrupole moment (field-independent basis, Debye-Ang):
   XX=             11.5269   YY=             51.5687   ZZ=            -63.0956
   XY=              7.0683   XZ=            -29.7563   YZ=            -42.8815
 Octapole moment (field-independent basis, Debye-Ang**2):
  XXX=            553.9910  YYY=            -19.8173  ZZZ=           -260.2992  XYY=            561.2864
  XXY=            -12.2174  XXZ=            -73.3911  XZZ=            293.2962  YZZ=           -191.8663
  YYZ=           -426.3477  XYZ=           -183.1650
 Hexadecapole moment (field-independent basis, Debye-Ang**3):
 XXXX=         -13952.4856 YYYY=          -6017.7933 ZZZZ=          -6513.2409 XXXY=           -910.1511
 XXXZ=           1642.1269 YYYX=            891.3451 YYYZ=           -295.1798 ZZZX=           2509.9082
 ZZZY=           2179.3780 XXYY=          -3165.5241 XXZZ=          -3583.6343 YYZZ=          -1922.3477
 XXYZ=            244.5101 YYXZ=           -549.4397 ZZXY=           -103.3019
 N-N= 4.859459550766D+03 E-N=-1.404382439417D+04  KE= 1.850920318207D+03
 Unable to Open any file for archive entry.
 1\1\GINC-QML-002\SP\RB3LYP\6-31G(d)\C23H45N8O7(1+)\KENGMITH\10-Jul-202
 2\0\\# B3LYP/6-31G* empiricaldispersion=gd3bj guess=read geom=check no
 symm integral(ultrafinegrid)\\Candidate Structure: Conf:126 Charge cal
 c in gas phase\\1,1\N,0,-3.7448441872,2.9265093791,2.3712410571\H,0,-3
 .4705023898,3.8745638875,2.1130107419\H,0,-4.0518987938,2.8612772882,3
 .3586236425\H,0,-2.9364229442,2.2632279282,2.2905255523\C,0,-4.9015444
 606,2.3997430548,1.5542776645\H,0,-5.6505876037,3.1998249654,1.5352471
 004\C,0,-5.4189981926,1.2484541581,2.4605399484\C,0,-4.4682391148,2.04
 05026603,0.1174590756\H,0,-3.9982855244,1.0508904686,0.1476019045\O,0,
 -5.1815375478,1.3301903026,3.6708046684\C,0,-5.6865060885,2.0224207145
 ,-0.8221350072\H,0,-6.0779928785,3.037799385,-0.9548981065\H,0,-6.5220
 640692,1.407823446,-0.4714254373\H,0,-5.3916206489,1.6461485125,-1.805
 4006375\C,0,-3.4254294521,3.0248418242,-0.4331808925\H,0,-3.8168180643
 ,4.0511511158,-0.4500566094\H,0,-2.4862841198,3.0016046281,0.124183791
 2\H,0,-3.1703235028,2.7467416393,-1.4586220672\N,0,-6.0442527866,0.205
 4673725,1.8954788431\H,0,-6.0991849581,0.1610992621,0.886986152\C,0,-6
 .1796310345,-1.0872100733,2.6001917892\H,0,-6.1465124798,-0.8535574075
 ,3.6665913258\C,0,-4.9357823173,-1.9279212921,2.1963770283\C,0,-7.4790
 5863,-1.7832075103,2.2309436682\H,0,-7.5440811323,-2.7405120734,2.7528
 465773\H,0,-8.3347952214,-1.1637477071,2.511934638\H,0,-7.5188448475,-
 1.998098394,1.1589641879\O,0,-5.0410410188,-2.9649129951,1.5614822399\
 N,0,-3.7546351065,-1.3341052782,2.5342209822\H,0,-3.7883002333,-0.4863
 72711,3.0890517062\C,0,-2.4742268719,-1.5729280267,1.8926682234\H,0,-1
 .9402797036,-2.4131939402,2.3535613147\C,0,-1.6489635937,-0.298744395,
 2.0524657677\C,0,-2.6129450223,-1.8855356881,0.3588492805\H,0,-3.08425
 471,-2.8616838436,0.260631151\H,0,-3.2848044448,-1.1346831132,-0.08129
 22075\O,0,-2.1727913596,0.7783251894,2.3965655355\O,0,-1.3681208916,-1
 .9182775667,-0.2985181372\H,0,-1.1661693671,-0.9981818546,-0.577586551
 8\N,0,-0.3463592655,-0.4139135362,1.7593610367\H,0,-0.0945392767,-1.28
 32825395,1.2943026322\C,0,0.4425360399,0.7545078674,1.4041123253\H,0,0
 .4105309497,1.4602753145,2.2382434717\C,0,-0.1618474943,1.4353341309,0
 .1593048035\C,0,1.894882732,0.3387070868,1.1085202084\H,0,2.4451805376
 ,1.2177368071,0.7521272481\H,0,1.8799247403,-0.3696906383,0.2681319052
 \O,0,-0.9477009796,0.850192783,-0.5975483253\C,0,2.6405646473,-0.28526
 49548,2.3013168759\H,0,2.0857425464,-1.175389059,2.6304876662\C,0,4.03
 50530122,-0.7345340736,1.8475303643\H,0,4.6308328384,0.1240213402,1.51
 44723178\H,0,3.9757627812,-1.444502347,1.0149464094\H,0,4.5746753631,-
 1.2201550521,2.6673076582\C,0,2.7356853601,0.6815458092,3.4875705024\H
 ,0,3.2313828609,1.6145087861,3.1903917745\H,0,1.7513927114,0.933739928
 3,3.8985356831\H,0,3.3209456077,0.2380774698,4.2997253466\N,0,0.263617
 6956,2.7047927255,-0.0316408679\H,0,1.0803206475,2.9850684982,0.517304
 5154\C,0,0.4101673117,3.2774915207,-1.3784238818\H,0,-0.1067494352,2.6
 27514771,-2.0859700789\C,0,1.9433638782,3.2914002461,-1.6558408341\C,0
 ,-0.1911810939,4.7029606649,-1.4051658463\H,0,0.4502230581,5.357627485
 9,-0.7996229442\H,0,-1.1493671299,4.6464736149,-0.8788785897\O,0,2.302
 0125731,3.2112835746,-2.87533053\C,0,-0.4425378413,5.3340900195,-2.796
 4000154\H,0,-0.5365847131,4.5498812619,-3.5582551167\H,0,-1.4071947947
 ,5.8537887017,-2.7810844906\C,0,0.5908094639,6.3662287909,-3.273072347
 5\H,0,0.7405327308,7.1303578099,-2.5006259045\H,0,0.2118495499,6.86761
 98481,-4.172414871\N,0,1.8641730024,5.7111788259,-3.5645033\H,0,1.8330
 022573,4.674791719,-3.603406115\N,0,3.2715949756,7.483496799,-2.998109
 7997\H,0,4.2024536312,7.8138429002,-2.7882524148\H,0,2.6654756651,8.14
 69072583,-3.4586676813\N,0,4.0570806541,5.276111835,-3.0689368569\H,0,
 3.7620393839,4.2882013162,-2.9323017201\H,0,4.989679454,5.5690881556,-
 2.8197322578\C,0,3.0700122124,6.1603641751,-3.2118271162\O,0,2.6786321
 348,3.4399239371,-0.6611379223\\Version=ES64L-G16RevC.01\HF=-1868.2043
 412\RMSD=7.893e-09\Dipole=-0.8179149,6.101743,-0.4282237\Quadrupole=8.
 569992,38.3400582,-46.9100501,5.2550713,-22.1230918,-31.8813666\PG=C01
  [X(C23H45N8O7)]\\@
 The archive entry for this job was punched.


 THE PROMISED LAND ALWAYS LIES ON THE OTHER SIDE OF A WILDERNESS.

                         -- HAVELOCK ELLIS
 Job cpu time:       0 days  0 hours  3 minutes  8.2 seconds.
 Elapsed time:       0 days  0 hours  0 minutes 47.7 seconds.
 File lengths (MBytes):  RWF=    344 Int=      0 D2E=      0 Chk=     48 Scr=     16
 Normal termination of Gaussian 16 at Sun Jul 10 18:06:02 2022.
