 Entering Gaussian System, Link 0=/opt/software/Gaussian/g16-AVX2-C.01/g16/g16
 Input=charge-conf-197.com
 Output=charge-conf-197.log
 Initial command:
 /opt/software/Gaussian/g16-AVX2-C.01/g16/l1.exe "/mnt/gs18/scratch/users/kengmith/Gau-69496.inp" -scrdir="/mnt/gs18/scratch/users/kengmith/"
 Entering Link 1 = /opt/software/Gaussian/g16-AVX2-C.01/g16/l1.exe PID=     69510.
  
 Copyright (c) 1988-2019, Gaussian, Inc.  All Rights Reserved.
  
 This is part of the Gaussian(R) 16 program.  It is based on
 the Gaussian(R) 09 system (copyright 2009, Gaussian, Inc.),
 the Gaussian(R) 03 system (copyright 2003, Gaussian, Inc.),
 the Gaussian(R) 98 system (copyright 1998, Gaussian, Inc.),
 the Gaussian(R) 94 system (copyright 1995, Gaussian, Inc.),
 the Gaussian 92(TM) system (copyright 1992, Gaussian, Inc.),
 the Gaussian 90(TM) system (copyright 1990, Gaussian, Inc.),
 the Gaussian 88(TM) system (copyright 1988, Gaussian, Inc.),
 the Gaussian 86(TM) system (copyright 1986, Carnegie Mellon
 University), and the Gaussian 82(TM) system (copyright 1983,
 Carnegie Mellon University). Gaussian is a federally registered
 trademark of Gaussian, Inc.
  
 This software contains proprietary and confidential information,
 including trade secrets, belonging to Gaussian, Inc.
  
 This software is provided under written license and may be
 used, copied, transmitted, or stored only in accord with that
 written license.
  
 The following legend is applicable only to US Government
 contracts under FAR:
  
                    RESTRICTED RIGHTS LEGEND
  
 Use, reproduction and disclosure by the US Government is
 subject to restrictions as set forth in subparagraphs (a)
 and (c) of the Commercial Computer Software - Restricted
 Rights clause in FAR 52.227-19.
  
 Gaussian, Inc.
 340 Quinnipiac St., Bldg. 40, Wallingford CT 06492
  
  
 ---------------------------------------------------------------
 Warning -- This program may not be used in any manner that
 competes with the business of Gaussian, Inc. or will provide
 assistance to any competitor of Gaussian, Inc.  The licensee
 of this program is prohibited from giving any competitor of
 Gaussian, Inc. access to this program.  By using this program,
 the user acknowledges that Gaussian, Inc. is engaged in the
 business of creating and licensing software in the field of
 computational chemistry and represents and warrants to the
 licensee that it is not a competitor of Gaussian, Inc. and that
 it will not use this program in any manner prohibited above.
 ---------------------------------------------------------------
  

 Cite this work as:
 Gaussian 16, Revision C.01,
 M. J. Frisch, G. W. Trucks, H. B. Schlegel, G. E. Scuseria, 
 M. A. Robb, J. R. Cheeseman, G. Scalmani, V. Barone, 
 G. A. Petersson, H. Nakatsuji, X. Li, M. Caricato, A. V. Marenich, 
 J. Bloino, B. G. Janesko, R. Gomperts, B. Mennucci, H. P. Hratchian, 
 J. V. Ortiz, A. F. Izmaylov, J. L. Sonnenberg, D. Williams-Young, 
 F. Ding, F. Lipparini, F. Egidi, J. Goings, B. Peng, A. Petrone, 
 T. Henderson, D. Ranasinghe, V. G. Zakrzewski, J. Gao, N. Rega, 
 G. Zheng, W. Liang, M. Hada, M. Ehara, K. Toyota, R. Fukuda, 
 J. Hasegawa, M. Ishida, T. Nakajima, Y. Honda, O. Kitao, H. Nakai, 
 T. Vreven, K. Throssell, J. A. Montgomery, Jr., J. E. Peralta, 
 F. Ogliaro, M. J. Bearpark, J. J. Heyd, E. N. Brothers, K. N. Kudin, 
 V. N. Staroverov, T. A. Keith, R. Kobayashi, J. Normand, 
 K. Raghavachari, A. P. Rendell, J. C. Burant, S. S. Iyengar, 
 J. Tomasi, M. Cossi, J. M. Millam, M. Klene, C. Adamo, R. Cammi, 
 J. W. Ochterski, R. L. Martin, K. Morokuma, O. Farkas, 
 J. B. Foresman, and D. J. Fox, Gaussian, Inc., Wallingford CT, 2019.
 
 ******************************************
 Gaussian 16:  ES64L-G16RevC.01  3-Jul-2019
                19-Jun-2022 
 ******************************************
 %mem=8gb
 %nproc=4
 Will use up to    4 processors via shared memory.
 %chk=conf-197.chk
 -------------------------------------------------------------------
 # B3LYP/6-31G* guess=read geom=check nosymm integral(ultrafinegrid)
 -------------------------------------------------------------------
 1/29=2,38=1,172=1/1;
 2/12=2,15=1,40=1/2;
 3/5=1,6=6,7=1,11=2,14=-4,25=1,30=1,74=-5,75=-5,116=-2/1,2,3;
 4/5=1/1;
 5/5=2,38=6/2;
 6/7=2,8=2,9=2,10=2,28=1/1;
 99/5=1,9=1/99;
 ------------------------------------------------------
 Candidate Structure: Conf:197 Charge calc in gas phase
 ------------------------------------------------------
 Structure from the checkpoint file:  "conf-197.chk"
 Charge =  1 Multiplicity = 1
 Redundant internal coordinates found in file.  (old form).
 N,0,-5.5318964327,2.3504006062,2.6076831276
 H,0,-6.0964065687,1.5036308305,2.5391485435
 H,0,-5.90894058,2.9037724019,3.3759868384
 C,0,-4.1573781929,1.9568441448,2.9133155139
 H,0,-3.5263440767,2.8526460071,2.831757349
 C,0,-3.7569539223,0.9329409225,1.8461979684
 C,0,-3.9275533943,1.3254190315,4.3203989801
 H,0,-2.8700966388,1.0408067016,4.4087890263
 H,0,-4.5131790527,0.4004660138,4.3658016636
 O,0,-4.3813420282,-0.1179601869,1.7180081121
 C,0,-4.3035992313,2.2570290926,5.4492207469
 C,0,-5.588991916,2.2308988858,6.0099460593
 H,0,-6.3087340135,1.4941130334,5.6603905999
 C,0,-3.3862791981,3.1997326154,5.9369221949
 H,0,-2.379811937,3.2279240897,5.5233421278
 C,0,-5.9485795132,3.1209177617,7.0246099242
 H,0,-6.9477262542,3.0785436769,7.4499239458
 C,0,-3.7401453882,4.0889178284,6.9513111964
 H,0,-3.011042127,4.8052415471,7.3211425384
 C,0,-5.0252327919,4.0536511241,7.497650803
 H,0,-5.3011301108,4.7424732493,8.2912752574
 N,0,-2.6897659082,1.2630931494,1.0678486095
 H,0,-2.1644879599,2.1086204378,1.2489763293
 C,0,-2.1332754591,0.3719152748,0.0634413707
 H,0,-2.480482081,-0.6364685657,0.3048600096
 C,0,-0.6092056392,0.4614112052,0.1614552454
 C,0,-2.5515471218,0.7524822236,-1.3797154157
 H,0,-2.2280471224,1.7896630336,-1.544612986
 H,0,-1.9727794972,0.1368206415,-2.0834992307
 O,0,-0.0446700596,1.5353543907,0.3777561384
 C,0,-4.0546523522,0.6238968287,-1.6940781085
 H,0,-4.6087804729,1.202205925,-0.9428178695
 C,0,-4.3436039309,1.239083697,-3.0724690318
 H,0,-3.8101439118,0.699398464,-3.8662334214
 H,0,-5.4136671255,1.1948566287,-3.3037214741
 H,0,-4.0356074295,2.2914983029,-3.1168407526
 C,0,-4.5453269415,-0.830052096,-1.6296151944
 H,0,-3.9713744642,-1.4716333443,-2.3126248066
 H,0,-4.4729589949,-1.232999358,-0.6153489342
 H,0,-5.5980471781,-0.8922970698,-1.9278649997
 N,0,0.0724476519,-0.7072425558,-0.0166136908
 H,0,-0.4422086886,-1.4768394538,-0.4265324606
 C,0,1.5088110446,-0.6719300714,-0.2374350201
 H,0,1.9421051089,-0.046979582,0.5460470819
 C,0,1.7962227434,0.0068524783,-1.6014154271
 C,0,2.1053537754,-2.0834624758,-0.119858482
 H,0,1.5867361957,-2.613861558,0.6893374256
 H,0,1.9396050959,-2.6631652012,-1.037701007
 O,0,0.9419955396,0.0584616492,-2.4837960348
 C,0,3.6023400108,-2.0510682965,0.2084582975
 N,0,4.1871483354,-3.2646219927,0.3535172745
 H,0,5.1691818854,-3.2998258384,0.5916605584
 H,0,3.6745414743,-4.13171401,0.2910493489
 O,0,4.2276476715,-1.0015005449,0.3441637522
 N,0,3.0200372261,0.5868944664,-1.7099684256
 H,0,3.7351973802,0.3537680962,-1.0189820462
 C,0,3.3714869871,1.3480389467,-2.8882316683
 H,0,2.7565839305,0.9813541705,-3.7180185033
 C,0,4.8356510379,1.1085738052,-3.2356232
 C,0,3.0960839374,2.8658581872,-2.70704047
 H,0,3.3687993342,3.3718626943,-3.6414904588
 H,0,3.7633630666,3.2564971903,-1.9264122621
 O,0,5.6195945415,0.4820240846,-2.5644319045
 C,0,1.6383631997,3.1519837387,-2.3171916778
 H,0,0.9458066153,2.714423351,-3.0478018529
 H,0,1.3987160583,2.666405775,-1.3660619352
 C,0,1.3239646005,4.6361997664,-2.135763842
 H,0,0.3187837605,4.7484140025,-1.7103474578
 H,0,2.0483739537,5.1025587497,-1.4575154776
 N,0,1.3854961069,5.3528967213,-3.4295774711
 H,0,1.3156250938,4.7837874886,-4.2646547121
 N,0,1.1947117877,7.4828223207,-2.5319738158
 H,0,1.4051116522,8.4694380665,-2.5830922741
 H,0,0.8898828403,7.1171442528,-1.6415333011
 N,0,1.5922918785,7.2193182463,-4.7964941057
 H,0,1.3522368488,8.1819254212,-4.986770819
 H,0,1.8980834401,6.6573763364,-5.5781610691
 C,0,1.3848386387,6.6742110671,-3.5842132881
 O,0,5.1641503677,1.7110221778,-4.4034004163
 H,0,6.1083669298,1.5162328131,-4.5596428466
 Recover connectivity data from disk.
                           ----------------------------
                           !    Current Parameters    !
                           ! (Angstroms and Degrees)  !
 --------------------------                            --------------------------
 ! Name  Definition              Value                                          !
 --------------------------------------------------------------------------------
 ! R1    R(1,2)                  1.02                                           !
 ! R2    R(1,3)                  1.0192                                         !
 ! R3    R(1,4)                  1.4621                                         !
 ! R4    R(4,5)                  1.0988                                         !
 ! R5    R(4,6)                  1.5321                                         !
 ! R6    R(4,7)                  1.5593                                         !
 ! R7    R(6,10)                 1.2291                                         !
 ! R8    R(6,22)                 1.3615                                         !
 ! R9    R(7,8)                  1.0986                                         !
 ! R10   R(7,9)                  1.0957                                         !
 ! R11   R(7,11)                 1.5111                                         !
 ! R12   R(11,12)                1.4026                                         !
 ! R13   R(11,14)                1.4029                                         !
 ! R14   R(12,13)                1.0877                                         !
 ! R15   R(12,16)                1.3968                                         !
 ! R16   R(14,15)                1.0885                                         !
 ! R17   R(14,18)                1.3946                                         !
 ! R18   R(16,17)                1.0867                                         !
 ! R19   R(16,20)                1.3951                                         !
 ! R20   R(18,19)                1.087                                          !
 ! R21   R(18,20)                1.3968                                         !
 ! R22   R(20,21)                1.0865                                         !
 ! R23   R(22,23)                1.0118                                         !
 ! R24   R(22,24)                1.4535                                         !
 ! R25   R(24,25)                1.0935                                         !
 ! R26   R(24,26)                1.5298                                         !
 ! R27   R(24,27)                1.55                                           !
 ! R28   R(26,30)                1.2324                                         !
 ! R29   R(26,41)                1.3646                                         !
 ! R30   R(27,28)                1.0989                                         !
 ! R31   R(27,29)                1.0997                                         !
 ! R32   R(27,31)                1.541                                          !
 ! R33   R(31,32)                1.0981                                         !
 ! R34   R(31,33)                1.5369                                         !
 ! R35   R(31,37)                1.5359                                         !
 ! R36   R(33,34)                1.0981                                         !
 ! R37   R(33,35)                1.0957                                         !
 ! R38   R(33,36)                1.0975                                         !
 ! R39   R(37,38)                1.0989                                         !
 ! R40   R(37,39)                1.0938                                         !
 ! R41   R(37,40)                1.0959                                         !
 ! R42   R(41,42)                1.0125                                         !
 ! R43   R(41,43)                1.4537                                         !
 ! R44   R(43,44)                1.0919                                         !
 ! R45   R(43,45)                1.5504                                         !
 ! R46   R(43,46)                1.5369                                         !
 ! R47   R(45,49)                1.2292                                         !
 ! R48   R(45,55)                1.3587                                         !
 ! R49   R(46,47)                1.0978                                         !
 ! R50   R(46,48)                1.0982                                         !
 ! R51   R(46,50)                1.5329                                         !
 ! R52   R(50,51)                1.3549                                         !
 ! R53   R(50,54)                1.2292                                         !
 ! R54   R(51,52)                1.0111                                         !
 ! R55   R(51,53)                1.0092                                         !
 ! R56   R(55,56)                1.0214                                         !
 ! R57   R(55,57)                1.4461                                         !
 ! R58   R(57,58)                1.096                                          !
 ! R59   R(57,59)                1.5237                                         !
 ! R60   R(57,60)                1.5532                                         !
 ! R61   R(59,63)                1.2073                                         !
 ! R62   R(59,79)                1.3545                                         !
 ! R63   R(60,61)                1.0971                                         !
 ! R64   R(60,62)                1.0987                                         !
 ! R65   R(60,64)                1.5358                                         !
 ! R66   R(64,65)                1.0977                                         !
 ! R67   R(64,66)                1.0945                                         !
 ! R68   R(64,67)                1.528                                          !
 ! R69   R(67,68)                1.0973                                         !
 ! R70   R(67,69)                1.0965                                         !
 ! R71   R(67,70)                1.4803                                         !
 ! R72   R(70,71)                1.013                                          !
 ! R73   R(70,78)                1.3303                                         !
 ! R74   R(72,73)                1.0101                                         !
 ! R75   R(72,74)                1.0097                                         !
 ! R76   R(72,78)                1.3406                                         !
 ! R77   R(75,76)                1.0102                                         !
 ! R78   R(75,77)                1.0101                                         !
 ! R79   R(75,78)                1.3453                                         !
 ! R80   R(79,80)                0.9767                                         !
 ! A1    A(2,1,3)              107.2572                                         !
 ! A2    A(2,1,4)              108.1128                                         !
 ! A3    A(3,1,4)              109.6562                                         !
 ! A4    A(1,4,5)              107.7551                                         !
 ! A5    A(1,4,6)              106.2599                                         !
 ! A6    A(1,4,7)              115.8621                                         !
 ! A7    A(5,4,6)              110.0621                                         !
 ! A8    A(5,4,7)              108.2082                                         !
 ! A9    A(6,4,7)              108.6244                                         !
 ! A10   A(4,6,10)             120.7482                                         !
 ! A11   A(4,6,22)             116.1657                                         !
 ! A12   A(10,6,22)            123.0859                                         !
 ! A13   A(4,7,8)              108.6246                                         !
 ! A14   A(4,7,9)              107.4849                                         !
 ! A15   A(4,7,11)             112.8151                                         !
 ! A16   A(8,7,9)              107.0027                                         !
 ! A17   A(8,7,11)             109.8237                                         !
 ! A18   A(9,7,11)             110.8834                                         !
 ! A19   A(7,11,12)            121.0105                                         !
 ! A20   A(7,11,14)            120.747                                          !
 ! A21   A(12,11,14)           118.2151                                         !
 ! A22   A(11,12,13)           119.3772                                         !
 ! A23   A(11,12,16)           120.9615                                         !
 ! A24   A(13,12,16)           119.652                                          !
 ! A25   A(11,14,15)           119.3359                                         !
 ! A26   A(11,14,18)           121.0248                                         !
 ! A27   A(15,14,18)           119.6355                                         !
 ! A28   A(12,16,17)           119.7458                                         !
 ! A29   A(12,16,20)           120.1283                                         !
 ! A30   A(17,16,20)           120.1239                                         !
 ! A31   A(14,18,19)           119.8327                                         !
 ! A32   A(14,18,20)           120.1218                                         !
 ! A33   A(19,18,20)           120.044                                          !
 ! A34   A(16,20,18)           119.5481                                         !
 ! A35   A(16,20,21)           120.2306                                         !
 ! A36   A(18,20,21)           120.2194                                         !
 ! A37   A(6,22,23)            120.4808                                         !
 ! A38   A(6,22,24)            123.1245                                         !
 ! A39   A(23,22,24)           115.9333                                         !
 ! A40   A(22,24,25)           106.9345                                         !
 ! A41   A(22,24,26)           107.5342                                         !
 ! A42   A(22,24,27)           112.9255                                         !
 ! A43   A(25,24,26)           110.8629                                         !
 ! A44   A(25,24,27)           110.2613                                         !
 ! A45   A(26,24,27)           108.308                                          !
 ! A46   A(24,26,30)           121.2363                                         !
 ! A47   A(24,26,41)           116.0519                                         !
 ! A48   A(30,26,41)           122.709                                          !
 ! A49   A(24,27,28)           106.9783                                         !
 ! A50   A(24,27,29)           108.4446                                         !
 ! A51   A(24,27,31)           115.637                                          !
 ! A52   A(28,27,29)           106.1072                                         !
 ! A53   A(28,27,31)           109.5902                                         !
 ! A54   A(29,27,31)           109.6386                                         !
 ! A55   A(27,31,32)           107.9807                                         !
 ! A56   A(27,31,33)           109.4483                                         !
 ! A57   A(27,31,37)           112.4608                                         !
 ! A58   A(32,31,33)           107.9332                                         !
 ! A59   A(32,31,37)           107.9759                                         !
 ! A60   A(33,31,37)           110.8865                                         !
 ! A61   A(31,33,34)           111.1149                                         !
 ! A62   A(31,33,35)           110.9017                                         !
 ! A63   A(31,33,36)           111.5529                                         !
 ! A64   A(34,33,35)           107.5801                                         !
 ! A65   A(34,33,36)           107.8019                                         !
 ! A66   A(35,33,36)           107.714                                          !
 ! A67   A(31,37,38)           111.0852                                         !
 ! A68   A(31,37,39)           111.5021                                         !
 ! A69   A(31,37,40)           110.4401                                         !
 ! A70   A(38,37,39)           109.0698                                         !
 ! A71   A(38,37,40)           107.4217                                         !
 ! A72   A(39,37,40)           107.1572                                         !
 ! A73   A(26,41,42)           116.7352                                         !
 ! A74   A(26,41,43)           119.5117                                         !
 ! A75   A(42,41,43)           117.3361                                         !
 ! A76   A(41,43,44)           107.2786                                         !
 ! A77   A(41,43,45)           109.1138                                         !
 ! A78   A(41,43,46)           110.4623                                         !
 ! A79   A(44,43,45)           107.8862                                         !
 ! A80   A(44,43,46)           108.4667                                         !
 ! A81   A(45,43,46)           113.4182                                         !
 ! A82   A(43,45,49)           121.4046                                         !
 ! A83   A(43,45,55)           115.0986                                         !
 ! A84   A(49,45,55)           123.4143                                         !
 ! A85   A(43,46,47)           108.4675                                         !
 ! A86   A(43,46,48)           111.2412                                         !
 ! A87   A(43,46,50)           112.0876                                         !
 ! A88   A(47,46,48)           106.842                                          !
 ! A89   A(47,46,50)           108.2819                                         !
 ! A90   A(48,46,50)           109.7284                                         !
 ! A91   A(46,50,51)           115.1831                                         !
 ! A92   A(46,50,54)           122.5792                                         !
 ! A93   A(51,50,54)           122.234                                          !
 ! A94   A(50,51,52)           118.3993                                         !
 ! A95   A(50,51,53)           122.9347                                         !
 ! A96   A(52,51,53)           118.5539                                         !
 ! A97   A(45,55,56)           118.6326                                         !
 ! A98   A(45,55,57)           120.5789                                         !
 ! A99   A(56,55,57)           120.0782                                         !
 ! A100  A(55,57,58)           107.7249                                         !
 ! A101  A(55,57,59)           109.6683                                         !
 ! A102  A(55,57,60)           112.0992                                         !
 ! A103  A(58,57,59)           108.2963                                         !
 ! A104  A(58,57,60)           108.409                                          !
 ! A105  A(59,57,60)           110.521                                          !
 ! A106  A(57,59,63)           125.3624                                         !
 ! A107  A(57,59,79)           111.0824                                         !
 ! A108  A(63,59,79)           123.5494                                         !
 ! A109  A(57,60,61)           107.8952                                         !
 ! A110  A(57,60,62)           108.822                                          !
 ! A111  A(57,60,64)           112.3312                                         !
 ! A112  A(61,60,62)           106.87                                           !
 ! A113  A(61,60,64)           111.4824                                         !
 ! A114  A(62,60,64)           109.2592                                         !
 ! A115  A(60,64,65)           110.8317                                         !
 ! A116  A(60,64,66)           110.2282                                         !
 ! A117  A(60,64,67)           113.9791                                         !
 ! A118  A(65,64,66)           105.2732                                         !
 ! A119  A(65,64,67)           109.6591                                         !
 ! A120  A(66,64,67)           106.4227                                         !
 ! A121  A(64,67,68)           109.5042                                         !
 ! A122  A(64,67,69)           110.5272                                         !
 ! A123  A(64,67,70)           110.9746                                         !
 ! A124  A(68,67,69)           108.7783                                         !
 ! A125  A(68,67,70)           109.1125                                         !
 ! A126  A(69,67,70)           107.8935                                         !
 ! A127  A(67,70,71)           116.4642                                         !
 ! A128  A(67,70,78)           125.622                                          !
 ! A129  A(71,70,78)           117.526                                          !
 ! A130  A(73,72,74)           117.4681                                         !
 ! A131  A(73,72,78)           121.3247                                         !
 ! A132  A(74,72,78)           121.1014                                         !
 ! A133  A(76,75,77)           117.1492                                         !
 ! A134  A(76,75,78)           121.2793                                         !
 ! A135  A(77,75,78)           121.2388                                         !
 ! A136  A(70,78,72)           120.5252                                         !
 ! A137  A(70,78,75)           120.4722                                         !
 ! A138  A(72,78,75)           118.9971                                         !
 ! A139  A(59,79,80)           106.4803                                         !
 ! D1    D(2,1,4,5)            171.3447                                         !
 ! D2    D(2,1,4,6)             53.4017                                         !
 ! D3    D(2,1,4,7)            -67.3341                                         !
 ! D4    D(3,1,4,5)            -72.022                                          !
 ! D5    D(3,1,4,6)            170.035                                          !
 ! D6    D(3,1,4,7)             49.2992                                         !
 ! D7    D(1,4,6,10)           -60.0107                                         !
 ! D8    D(1,4,6,22)           119.834                                          !
 ! D9    D(5,4,6,10)          -176.4141                                         !
 ! D10   D(5,4,6,22)             3.4306                                         !
 ! D11   D(7,4,6,10)            65.2841                                         !
 ! D12   D(7,4,6,22)          -114.8712                                         !
 ! D13   D(1,4,7,8)            177.8471                                         !
 ! D14   D(1,4,7,9)             62.3994                                         !
 ! D15   D(1,4,7,11)           -60.1464                                         !
 ! D16   D(5,4,7,8)            -61.0745                                         !
 ! D17   D(5,4,7,9)           -176.5223                                         !
 ! D18   D(5,4,7,11)            60.932                                          !
 ! D19   D(6,4,7,8)             58.3933                                         !
 ! D20   D(6,4,7,9)            -57.0544                                         !
 ! D21   D(6,4,7,11)          -179.6002                                         !
 ! D22   D(4,6,22,23)            4.4328                                         !
 ! D23   D(4,6,22,24)          176.3172                                         !
 ! D24   D(10,6,22,23)        -175.7265                                         !
 ! D25   D(10,6,22,24)          -3.8421                                         !
 ! D26   D(4,7,11,12)           92.4265                                         !
 ! D27   D(4,7,11,14)          -85.6369                                         !
 ! D28   D(8,7,11,12)         -146.2448                                         !
 ! D29   D(8,7,11,14)           35.6918                                         !
 ! D30   D(9,7,11,12)          -28.1956                                         !
 ! D31   D(9,7,11,14)          153.7409                                         !
 ! D32   D(7,11,12,13)           3.1453                                         !
 ! D33   D(7,11,12,16)        -177.9677                                         !
 ! D34   D(14,11,12,13)       -178.7434                                         !
 ! D35   D(14,11,12,16)          0.1436                                         !
 ! D36   D(7,11,14,15)          -2.6298                                         !
 ! D37   D(7,11,14,18)         178.0755                                         !
 ! D38   D(12,11,14,15)        179.2537                                         !
 ! D39   D(12,11,14,18)         -0.041                                          !
 ! D40   D(11,12,16,17)       -179.5602                                         !
 ! D41   D(11,12,16,20)         -0.0694                                         !
 ! D42   D(13,12,16,17)         -0.6762                                         !
 ! D43   D(13,12,16,20)        178.8146                                         !
 ! D44   D(11,14,18,19)        179.424                                          !
 ! D45   D(11,14,18,20)         -0.1361                                         !
 ! D46   D(15,14,18,19)          0.1314                                         !
 ! D47   D(15,14,18,20)       -179.4288                                         !
 ! D48   D(12,16,20,18)         -0.1096                                         !
 ! D49   D(12,16,20,21)       -179.605                                          !
 ! D50   D(17,16,20,18)        179.3793                                         !
 ! D51   D(17,16,20,21)         -0.1161                                         !
 ! D52   D(14,18,20,16)          0.2111                                         !
 ! D53   D(14,18,20,21)        179.7066                                         !
 ! D54   D(19,18,20,16)       -179.3481                                         !
 ! D55   D(19,18,20,21)          0.1474                                         !
 ! D56   D(6,22,24,25)         -18.9178                                         !
 ! D57   D(6,22,24,26)        -138.0363                                         !
 ! D58   D(6,22,24,27)         102.5367                                         !
 ! D59   D(23,22,24,25)        153.3072                                         !
 ! D60   D(23,22,24,26)         34.1887                                         !
 ! D61   D(23,22,24,27)        -85.2383                                         !
 ! D62   D(22,24,26,30)        -38.6861                                         !
 ! D63   D(22,24,26,41)        141.9061                                         !
 ! D64   D(25,24,26,30)       -155.258                                          !
 ! D65   D(25,24,26,41)         25.3342                                         !
 ! D66   D(27,24,26,30)         83.6468                                         !
 ! D67   D(27,24,26,41)        -95.7611                                         !
 ! D68   D(22,24,27,28)         57.2885                                         !
 ! D69   D(22,24,27,29)        171.3437                                         !
 ! D70   D(22,24,27,31)        -65.0809                                         !
 ! D71   D(25,24,27,28)        176.8425                                         !
 ! D72   D(25,24,27,29)        -69.1022                                         !
 ! D73   D(25,24,27,31)         54.4731                                         !
 ! D74   D(26,24,27,28)        -61.6907                                         !
 ! D75   D(26,24,27,29)         52.3645                                         !
 ! D76   D(26,24,27,31)        175.9398                                         !
 ! D77   D(24,26,41,42)         15.18                                           !
 ! D78   D(24,26,41,43)        166.339                                          !
 ! D79   D(30,26,41,42)       -164.2183                                         !
 ! D80   D(30,26,41,43)        -13.0593                                         !
 ! D81   D(24,27,31,32)         53.9156                                         !
 ! D82   D(24,27,31,33)        171.1676                                         !
 ! D83   D(24,27,31,37)        -65.1145                                         !
 ! D84   D(28,27,31,32)        -67.0547                                         !
 ! D85   D(28,27,31,33)         50.1973                                         !
 ! D86   D(28,27,31,37)        173.9152                                         !
 ! D87   D(29,27,31,32)        176.8626                                         !
 ! D88   D(29,27,31,33)        -65.8853                                         !
 ! D89   D(29,27,31,37)         57.8326                                         !
 ! D90   D(27,31,33,34)         62.5624                                         !
 ! D91   D(27,31,33,35)       -177.8298                                         !
 ! D92   D(27,31,33,36)        -57.7621                                         !
 ! D93   D(32,31,33,34)        179.8442                                         !
 ! D94   D(32,31,33,35)        -60.5479                                         !
 ! D95   D(32,31,33,36)         59.5198                                         !
 ! D96   D(37,31,33,34)        -62.0769                                         !
 ! D97   D(37,31,33,35)         57.5309                                         !
 ! D98   D(37,31,33,36)        177.5987                                         !
 ! D99   D(27,31,37,38)        -56.8599                                         !
 ! D100  D(27,31,37,39)         65.0277                                         !
 ! D101  D(27,31,37,40)       -175.9476                                         !
 ! D102  D(32,31,37,38)       -175.8927                                         !
 ! D103  D(32,31,37,39)        -54.0052                                         !
 ! D104  D(32,31,37,40)         65.0195                                         !
 ! D105  D(33,31,37,38)         66.0543                                         !
 ! D106  D(33,31,37,39)       -172.0582                                         !
 ! D107  D(33,31,37,40)        -53.0334                                         !
 ! D108  D(26,41,43,44)         50.2014                                         !
 ! D109  D(26,41,43,45)        -66.4272                                         !
 ! D110  D(26,41,43,46)        168.2441                                         !
 ! D111  D(42,41,43,44)       -158.809                                          !
 ! D112  D(42,41,43,45)         84.5624                                         !
 ! D113  D(42,41,43,46)        -40.7663                                         !
 ! D114  D(41,43,45,49)        -22.0958                                         !
 ! D115  D(41,43,45,55)        154.7094                                         !
 ! D116  D(44,43,45,49)       -138.3372                                         !
 ! D117  D(44,43,45,55)         38.468                                          !
 ! D118  D(46,43,45,49)        101.4977                                         !
 ! D119  D(46,43,45,55)        -81.6971                                         !
 ! D120  D(41,43,46,47)        -37.8964                                         !
 ! D121  D(41,43,46,48)         79.3322                                         !
 ! D122  D(41,43,46,50)       -157.3976                                         !
 ! D123  D(44,43,46,47)         79.4159                                         !
 ! D124  D(44,43,46,48)       -163.3555                                         !
 ! D125  D(44,43,46,50)        -40.0853                                         !
 ! D126  D(45,43,46,47)       -160.7491                                         !
 ! D127  D(45,43,46,48)        -43.5205                                         !
 ! D128  D(45,43,46,50)         79.7497                                         !
 ! D129  D(43,45,55,56)         14.7767                                         !
 ! D130  D(43,45,55,57)       -174.8717                                         !
 ! D131  D(49,45,55,56)       -168.4901                                         !
 ! D132  D(49,45,55,57)          1.8614                                         !
 ! D133  D(43,46,50,51)        178.7122                                         !
 ! D134  D(43,46,50,54)         -0.5986                                         !
 ! D135  D(47,46,50,51)         59.1022                                         !
 ! D136  D(47,46,50,54)       -120.2085                                         !
 ! D137  D(48,46,50,51)        -57.17                                           !
 ! D138  D(48,46,50,54)        123.5193                                         !
 ! D139  D(46,50,51,52)       -178.6163                                         !
 ! D140  D(46,50,51,53)         -2.5263                                         !
 ! D141  D(54,50,51,52)          0.6971                                         !
 ! D142  D(54,50,51,53)        176.7871                                         !
 ! D143  D(45,55,57,58)        -25.102                                          !
 ! D144  D(45,55,57,59)       -142.7628                                         !
 ! D145  D(45,55,57,60)         94.0813                                         !
 ! D146  D(56,55,57,58)        145.1103                                         !
 ! D147  D(56,55,57,59)         27.4494                                         !
 ! D148  D(56,55,57,60)        -95.7065                                         !
 ! D149  D(55,57,59,63)         -6.4236                                         !
 ! D150  D(55,57,59,79)        174.4332                                         !
 ! D151  D(58,57,59,63)       -123.7274                                         !
 ! D152  D(58,57,59,79)         57.1294                                         !
 ! D153  D(60,57,59,63)        117.6583                                         !
 ! D154  D(60,57,59,79)        -61.485                                          !
 ! D155  D(55,57,60,61)       -179.0231                                         !
 ! D156  D(55,57,60,62)         65.3668                                         !
 ! D157  D(55,57,60,64)        -55.7472                                         !
 ! D158  D(58,57,60,61)        -60.2427                                         !
 ! D159  D(58,57,60,62)       -175.8529                                         !
 ! D160  D(58,57,60,64)         63.0331                                         !
 ! D161  D(59,57,60,61)         58.303                                          !
 ! D162  D(59,57,60,62)        -57.3072                                         !
 ! D163  D(59,57,60,64)       -178.4212                                         !
 ! D164  D(57,59,79,80)        179.9772                                         !
 ! D165  D(63,59,79,80)          0.8156                                         !
 ! D166  D(57,60,64,65)        -55.4386                                         !
 ! D167  D(57,60,64,66)         60.7023                                         !
 ! D168  D(57,60,64,67)       -179.7158                                         !
 ! D169  D(61,60,64,65)         65.8031                                         !
 ! D170  D(61,60,64,66)       -178.056                                          !
 ! D171  D(61,60,64,67)        -58.4741                                         !
 ! D172  D(62,60,64,65)       -176.3014                                         !
 ! D173  D(62,60,64,66)        -60.1604                                         !
 ! D174  D(62,60,64,67)         59.4214                                         !
 ! D175  D(60,64,67,68)       -171.265                                          !
 ! D176  D(60,64,67,69)        -51.4449                                         !
 ! D177  D(60,64,67,70)         68.2182                                         !
 ! D178  D(65,64,67,68)         63.8307                                         !
 ! D179  D(65,64,67,69)       -176.3492                                         !
 ! D180  D(65,64,67,70)        -56.6862                                         !
 ! D181  D(66,64,67,68)        -49.5552                                         !
 ! D182  D(66,64,67,69)         70.2649                                         !
 ! D183  D(66,64,67,70)       -170.072                                          !
 ! D184  D(64,67,70,71)         19.2943                                         !
 ! D185  D(64,67,70,78)       -168.0627                                         !
 ! D186  D(68,67,70,71)       -101.4542                                         !
 ! D187  D(68,67,70,78)         71.1888                                         !
 ! D188  D(69,67,70,71)        140.519                                          !
 ! D189  D(69,67,70,78)        -46.838                                          !
 ! D190  D(67,70,78,72)         -6.508                                          !
 ! D191  D(67,70,78,75)        172.6276                                         !
 ! D192  D(71,70,78,72)        166.0648                                         !
 ! D193  D(71,70,78,75)        -14.7996                                         !
 ! D194  D(73,72,78,70)        165.3298                                         !
 ! D195  D(73,72,78,75)        -13.8184                                         !
 ! D196  D(74,72,78,70)        -10.8365                                         !
 ! D197  D(74,72,78,75)        170.0153                                         !
 ! D198  D(76,75,78,70)        163.2016                                         !
 ! D199  D(76,75,78,72)        -17.6497                                         !
 ! D200  D(77,75,78,70)         -9.9868                                         !
 ! D201  D(77,75,78,72)        169.1619                                         !
 --------------------------------------------------------------------------------
 Symmetry turned off by external request.
 Stoichiometry    C25H41N8O6(1+)
 Framework group  C1[X(C25H41N8O6)]
 Deg. of freedom   234
 Full point group                 C1      NOp   1
                          Input orientation:                          
 ---------------------------------------------------------------------
 Center     Atomic      Atomic             Coordinates (Angstroms)
 Number     Number       Type             X           Y           Z
 ---------------------------------------------------------------------
      1          7           0       -5.531896    2.350401    2.607683
      2          1           0       -6.096407    1.503631    2.539149
      3          1           0       -5.908941    2.903772    3.375987
      4          6           0       -4.157378    1.956844    2.913316
      5          1           0       -3.526344    2.852646    2.831757
      6          6           0       -3.756954    0.932941    1.846198
      7          6           0       -3.927553    1.325419    4.320399
      8          1           0       -2.870097    1.040807    4.408789
      9          1           0       -4.513179    0.400466    4.365802
     10          8           0       -4.381342   -0.117960    1.718008
     11          6           0       -4.303599    2.257029    5.449221
     12          6           0       -5.588992    2.230899    6.009946
     13          1           0       -6.308734    1.494113    5.660391
     14          6           0       -3.386279    3.199733    5.936922
     15          1           0       -2.379812    3.227924    5.523342
     16          6           0       -5.948580    3.120918    7.024610
     17          1           0       -6.947726    3.078544    7.449924
     18          6           0       -3.740145    4.088918    6.951311
     19          1           0       -3.011042    4.805242    7.321143
     20          6           0       -5.025233    4.053651    7.497651
     21          1           0       -5.301130    4.742473    8.291275
     22          7           0       -2.689766    1.263093    1.067849
     23          1           0       -2.164488    2.108620    1.248976
     24          6           0       -2.133275    0.371915    0.063441
     25          1           0       -2.480482   -0.636469    0.304860
     26          6           0       -0.609206    0.461411    0.161455
     27          6           0       -2.551547    0.752482   -1.379715
     28          1           0       -2.228047    1.789663   -1.544613
     29          1           0       -1.972779    0.136821   -2.083499
     30          8           0       -0.044670    1.535354    0.377756
     31          6           0       -4.054652    0.623897   -1.694078
     32          1           0       -4.608780    1.202206   -0.942818
     33          6           0       -4.343604    1.239084   -3.072469
     34          1           0       -3.810144    0.699398   -3.866233
     35          1           0       -5.413667    1.194857   -3.303721
     36          1           0       -4.035607    2.291498   -3.116841
     37          6           0       -4.545327   -0.830052   -1.629615
     38          1           0       -3.971374   -1.471633   -2.312625
     39          1           0       -4.472959   -1.232999   -0.615349
     40          1           0       -5.598047   -0.892297   -1.927865
     41          7           0        0.072448   -0.707243   -0.016614
     42          1           0       -0.442209   -1.476839   -0.426532
     43          6           0        1.508811   -0.671930   -0.237435
     44          1           0        1.942105   -0.046980    0.546047
     45          6           0        1.796223    0.006852   -1.601415
     46          6           0        2.105354   -2.083462   -0.119858
     47          1           0        1.586736   -2.613862    0.689337
     48          1           0        1.939605   -2.663165   -1.037701
     49          8           0        0.941996    0.058462   -2.483796
     50          6           0        3.602340   -2.051068    0.208458
     51          7           0        4.187148   -3.264622    0.353517
     52          1           0        5.169182   -3.299826    0.591661
     53          1           0        3.674541   -4.131714    0.291049
     54          8           0        4.227648   -1.001501    0.344164
     55          7           0        3.020037    0.586894   -1.709968
     56          1           0        3.735197    0.353768   -1.018982
     57          6           0        3.371487    1.348039   -2.888232
     58          1           0        2.756584    0.981354   -3.718019
     59          6           0        4.835651    1.108574   -3.235623
     60          6           0        3.096084    2.865858   -2.707040
     61          1           0        3.368799    3.371863   -3.641490
     62          1           0        3.763363    3.256497   -1.926412
     63          8           0        5.619595    0.482024   -2.564432
     64          6           0        1.638363    3.151984   -2.317192
     65          1           0        0.945807    2.714423   -3.047802
     66          1           0        1.398716    2.666406   -1.366062
     67          6           0        1.323965    4.636200   -2.135764
     68          1           0        0.318784    4.748414   -1.710347
     69          1           0        2.048374    5.102559   -1.457515
     70          7           0        1.385496    5.352897   -3.429577
     71          1           0        1.315625    4.783787   -4.264655
     72          7           0        1.194712    7.482822   -2.531974
     73          1           0        1.405112    8.469438   -2.583092
     74          1           0        0.889883    7.117144   -1.641533
     75          7           0        1.592292    7.219318   -4.796494
     76          1           0        1.352237    8.181925   -4.986771
     77          1           0        1.898083    6.657376   -5.578161
     78          6           0        1.384839    6.674211   -3.584213
     79          8           0        5.164150    1.711022   -4.403400
     80          1           0        6.108367    1.516233   -4.559643
 ---------------------------------------------------------------------
 Rotational constants (GHZ):           0.0921545           0.0397011           0.0350488
 Standard basis: 6-31G(d) (6D, 7F)
   667 basis functions,  1256 primitive gaussians,   667 cartesian basis functions
   147 alpha electrons      147 beta electrons
       nuclear repulsion energy      4457.9208509992 Hartrees.
 NAtoms=   80 NActive=   80 NUniq=   80 SFac= 1.00D+00 NAtFMM=   60 NAOKFM=T Big=T
 Integral buffers will be    131072 words long.
 Raffenetti 2 integral format.
 Two-electron integral symmetry is turned off.
 One-electron integrals computed using PRISM.
 NBasis=   667 RedAO= T EigKep=  4.68D-04  NBF=   667
 NBsUse=   667 1.00D-06 EigRej= -1.00D+00 NBFU=   667
 Initial guess from the checkpoint file:  "conf-197.chk"
 B after Tr=     0.000000    0.000000    0.000000
         Rot=    1.000000    0.000000    0.000000    0.000000 Ang=   0.00 deg.
 Requested convergence on RMS density matrix=1.00D-08 within 128 cycles.
 Requested convergence on MAX density matrix=1.00D-06.
 Requested convergence on             energy=1.00D-06.
 No special actions if energy rises.
 SCF Done:  E(RB3LYP) =  -1866.60631998     A.U. after    3 cycles
            NFock=  3  Conv=0.54D-09     -V/T= 2.0095

 **********************************************************************

            Population analysis using the SCF Density.

 **********************************************************************

 Alpha  occ. eigenvalues --  -19.28643 -19.22931 -19.20191 -19.19937 -19.19616
 Alpha  occ. eigenvalues --  -19.16661 -14.54523 -14.54349 -14.54226 -14.44194
 Alpha  occ. eigenvalues --  -14.44137 -14.43492 -14.41860 -14.35927 -10.50742
 Alpha  occ. eigenvalues --  -10.40985 -10.38007 -10.37057 -10.36617 -10.36574
 Alpha  occ. eigenvalues --  -10.33810 -10.33025 -10.31667 -10.30156 -10.29959
 Alpha  occ. eigenvalues --  -10.29731 -10.29199 -10.27406 -10.24733 -10.24224
 Alpha  occ. eigenvalues --  -10.24067 -10.23621 -10.23512 -10.23434 -10.23404
 Alpha  occ. eigenvalues --  -10.23313 -10.23260 -10.22678 -10.21564  -1.19489
 Alpha  occ. eigenvalues --   -1.19159  -1.12282  -1.11826  -1.11062  -1.10559
 Alpha  occ. eigenvalues --   -1.08586  -1.08228  -1.07383  -1.00811  -1.00585
 Alpha  occ. eigenvalues --   -0.98928  -0.98216  -0.93531  -0.92081  -0.89720
 Alpha  occ. eigenvalues --   -0.87951  -0.86530  -0.85707  -0.82147  -0.82075
 Alpha  occ. eigenvalues --   -0.81076  -0.79701  -0.78782  -0.76709  -0.76424
 Alpha  occ. eigenvalues --   -0.75798  -0.73874  -0.72997  -0.71919  -0.71063
 Alpha  occ. eigenvalues --   -0.70569  -0.68361  -0.67836  -0.67626  -0.67336
 Alpha  occ. eigenvalues --   -0.66131  -0.65692  -0.64894  -0.64322  -0.62706
 Alpha  occ. eigenvalues --   -0.62525  -0.61977  -0.61649  -0.61272  -0.61007
 Alpha  occ. eigenvalues --   -0.58429  -0.58300  -0.57601  -0.57509  -0.56818
 Alpha  occ. eigenvalues --   -0.56032  -0.55874  -0.55149  -0.54643  -0.53941
 Alpha  occ. eigenvalues --   -0.53325  -0.52904  -0.52255  -0.51755  -0.50967
 Alpha  occ. eigenvalues --   -0.50750  -0.50553  -0.50102  -0.49684  -0.49386
 Alpha  occ. eigenvalues --   -0.49060  -0.48609  -0.48291  -0.47788  -0.47348
 Alpha  occ. eigenvalues --   -0.46992  -0.46805  -0.46735  -0.46315  -0.45996
 Alpha  occ. eigenvalues --   -0.45636  -0.45523  -0.45026  -0.44897  -0.44546
 Alpha  occ. eigenvalues --   -0.44050  -0.43500  -0.43206  -0.43059  -0.42747
 Alpha  occ. eigenvalues --   -0.42427  -0.41093  -0.40774  -0.40724  -0.39878
 Alpha  occ. eigenvalues --   -0.38292  -0.38218  -0.38100  -0.37631  -0.37494
 Alpha  occ. eigenvalues --   -0.36599  -0.35333  -0.34956  -0.34234  -0.33771
 Alpha  occ. eigenvalues --   -0.33545  -0.32878  -0.30801  -0.30695  -0.29663
 Alpha  occ. eigenvalues --   -0.29254  -0.27625
 Alpha virt. eigenvalues --   -0.14474  -0.10472  -0.08002  -0.07027  -0.06617
 Alpha virt. eigenvalues --   -0.05989  -0.05679  -0.05235  -0.05067  -0.04806
 Alpha virt. eigenvalues --   -0.04595  -0.02327  -0.01714  -0.00925  -0.00038
 Alpha virt. eigenvalues --    0.00037   0.00275   0.01430   0.02626   0.02829
 Alpha virt. eigenvalues --    0.03650   0.04220   0.04410   0.04762   0.05004
 Alpha virt. eigenvalues --    0.05784   0.06208   0.06522   0.06878   0.07469
 Alpha virt. eigenvalues --    0.07828   0.08133   0.08415   0.08471   0.08508
 Alpha virt. eigenvalues --    0.08875   0.09066   0.09780   0.10049   0.10218
 Alpha virt. eigenvalues --    0.10789   0.11644   0.11934   0.12151   0.12422
 Alpha virt. eigenvalues --    0.12575   0.12708   0.12945   0.13152   0.13502
 Alpha virt. eigenvalues --    0.14250   0.14298   0.14568   0.14884   0.15037
 Alpha virt. eigenvalues --    0.15544   0.15655   0.16122   0.16567   0.17062
 Alpha virt. eigenvalues --    0.17518   0.17768   0.18021   0.18203   0.19975
 Alpha virt. eigenvalues --    0.20196   0.21008   0.21033   0.21204   0.21836
 Alpha virt. eigenvalues --    0.22464   0.23142   0.23614   0.24896   0.25416
 Alpha virt. eigenvalues --    0.26214   0.27833   0.27896   0.28979   0.29147
 Alpha virt. eigenvalues --    0.30159   0.30748   0.31085   0.32565   0.33701
 Alpha virt. eigenvalues --    0.34675   0.35938   0.37025   0.37609   0.38231
 Alpha virt. eigenvalues --    0.39908   0.40353   0.41147   0.41571   0.42752
 Alpha virt. eigenvalues --    0.43710   0.44381   0.45424   0.45599   0.45867
 Alpha virt. eigenvalues --    0.46680   0.47212   0.47257   0.47958   0.48134
 Alpha virt. eigenvalues --    0.48278   0.48494   0.48711   0.48972   0.50007
 Alpha virt. eigenvalues --    0.50311   0.50534   0.50894   0.51392   0.51919
 Alpha virt. eigenvalues --    0.52151   0.52171   0.52484   0.53407   0.53758
 Alpha virt. eigenvalues --    0.53939   0.54499   0.54910   0.55159   0.55460
 Alpha virt. eigenvalues --    0.56042   0.56577   0.56979   0.57063   0.57215
 Alpha virt. eigenvalues --    0.57590   0.57833   0.57975   0.58220   0.58840
 Alpha virt. eigenvalues --    0.58944   0.59269   0.60140   0.60324   0.60571
 Alpha virt. eigenvalues --    0.61061   0.61400   0.61715   0.62830   0.63426
 Alpha virt. eigenvalues --    0.63522   0.63807   0.64630   0.66329   0.66719
 Alpha virt. eigenvalues --    0.67105   0.67289   0.67884   0.68289   0.68473
 Alpha virt. eigenvalues --    0.69052   0.69672   0.69694   0.70124   0.70376
 Alpha virt. eigenvalues --    0.70407   0.70811   0.71823   0.72537   0.73038
 Alpha virt. eigenvalues --    0.73614   0.74035   0.74277   0.74623   0.75301
 Alpha virt. eigenvalues --    0.75470   0.75616   0.76108   0.76336   0.77283
 Alpha virt. eigenvalues --    0.77483   0.78031   0.78434   0.78888   0.79123
 Alpha virt. eigenvalues --    0.79460   0.79556   0.79879   0.80151   0.80446
 Alpha virt. eigenvalues --    0.80516   0.80593   0.81082   0.81275   0.81838
 Alpha virt. eigenvalues --    0.82095   0.82476   0.83014   0.83274   0.83751
 Alpha virt. eigenvalues --    0.84115   0.84290   0.84796   0.85406   0.85753
 Alpha virt. eigenvalues --    0.86118   0.86328   0.86806   0.87065   0.87649
 Alpha virt. eigenvalues --    0.87965   0.88509   0.88636   0.89338   0.89604
 Alpha virt. eigenvalues --    0.89815   0.90298   0.90490   0.91082   0.91502
 Alpha virt. eigenvalues --    0.92163   0.92524   0.93380   0.93703   0.94222
 Alpha virt. eigenvalues --    0.95263   0.95633   0.95959   0.96151   0.96586
 Alpha virt. eigenvalues --    0.97695   0.98501   0.98721   0.98840   0.99971
 Alpha virt. eigenvalues --    1.00086   1.01821   1.02538   1.03041   1.03390
 Alpha virt. eigenvalues --    1.05952   1.06356   1.07200   1.07390   1.08071
 Alpha virt. eigenvalues --    1.09059   1.09820   1.09976   1.11141   1.11242
 Alpha virt. eigenvalues --    1.12491   1.12970   1.13717   1.14805   1.15393
 Alpha virt. eigenvalues --    1.15998   1.17311   1.17918   1.18084   1.20148
 Alpha virt. eigenvalues --    1.21507   1.21795   1.22019   1.23738   1.24296
 Alpha virt. eigenvalues --    1.25214   1.26429   1.27019   1.27309   1.28508
 Alpha virt. eigenvalues --    1.30201   1.31700   1.31825   1.32103   1.32784
 Alpha virt. eigenvalues --    1.35536   1.36494   1.36649   1.37600   1.38482
 Alpha virt. eigenvalues --    1.39068   1.39577   1.40267   1.40564   1.41266
 Alpha virt. eigenvalues --    1.42403   1.43288   1.44041   1.44473   1.44842
 Alpha virt. eigenvalues --    1.45261   1.45349   1.45627   1.46354   1.47016
 Alpha virt. eigenvalues --    1.48779   1.49654   1.51251   1.51761   1.53311
 Alpha virt. eigenvalues --    1.54016   1.54708   1.55362   1.55541   1.55816
 Alpha virt. eigenvalues --    1.56551   1.57202   1.57872   1.59135   1.60094
 Alpha virt. eigenvalues --    1.60434   1.63350   1.64146   1.64168   1.65051
 Alpha virt. eigenvalues --    1.66156   1.67347   1.67917   1.68092   1.69248
 Alpha virt. eigenvalues --    1.69538   1.70594   1.70990   1.71236   1.72452
 Alpha virt. eigenvalues --    1.72826   1.73345   1.73802   1.74304   1.74511
 Alpha virt. eigenvalues --    1.75299   1.75698   1.76831   1.76945   1.77280
 Alpha virt. eigenvalues --    1.77684   1.78040   1.78349   1.78712   1.79760
 Alpha virt. eigenvalues --    1.80744   1.80922   1.81105   1.82009   1.82651
 Alpha virt. eigenvalues --    1.83426   1.85031   1.85132   1.85579   1.86205
 Alpha virt. eigenvalues --    1.86944   1.87222   1.87496   1.88345   1.88718
 Alpha virt. eigenvalues --    1.89510   1.89819   1.90181   1.90963   1.91330
 Alpha virt. eigenvalues --    1.91891   1.92508   1.93182   1.93320   1.93933
 Alpha virt. eigenvalues --    1.94356   1.94741   1.95393   1.95667   1.96873
 Alpha virt. eigenvalues --    1.97154   1.97525   1.97982   2.00064   2.00742
 Alpha virt. eigenvalues --    2.01050   2.01384   2.01839   2.02218   2.02661
 Alpha virt. eigenvalues --    2.04112   2.04724   2.05271   2.06975   2.07549
 Alpha virt. eigenvalues --    2.08085   2.09296   2.09674   2.10420   2.10477
 Alpha virt. eigenvalues --    2.11669   2.12123   2.12822   2.14177   2.14479
 Alpha virt. eigenvalues --    2.14936   2.16021   2.17413   2.17675   2.18256
 Alpha virt. eigenvalues --    2.19064   2.19100   2.19961   2.21468   2.21737
 Alpha virt. eigenvalues --    2.22730   2.23406   2.25253   2.26030   2.26511
 Alpha virt. eigenvalues --    2.27249   2.27867   2.28962   2.30947   2.31354
 Alpha virt. eigenvalues --    2.32721   2.32885   2.34072   2.34420   2.34999
 Alpha virt. eigenvalues --    2.35657   2.36258   2.36952   2.37720   2.38502
 Alpha virt. eigenvalues --    2.39061   2.39164   2.40314   2.41386   2.42533
 Alpha virt. eigenvalues --    2.43468   2.44443   2.45260   2.46238   2.47387
 Alpha virt. eigenvalues --    2.48558   2.49262   2.50214   2.50314   2.51458
 Alpha virt. eigenvalues --    2.53015   2.53571   2.54799   2.55193   2.55325
 Alpha virt. eigenvalues --    2.56453   2.57607   2.59173   2.59541   2.61118
 Alpha virt. eigenvalues --    2.62435   2.62730   2.64441   2.65494   2.66738
 Alpha virt. eigenvalues --    2.67176   2.68194   2.69638   2.70375   2.71065
 Alpha virt. eigenvalues --    2.71615   2.72672   2.74927   2.75237   2.75592
 Alpha virt. eigenvalues --    2.77115   2.77886   2.81709   2.83679   2.86253
 Alpha virt. eigenvalues --    2.87778   2.88827   2.89156   2.91792   2.93490
 Alpha virt. eigenvalues --    2.95167   2.95531   2.95827   2.98104   3.00262
 Alpha virt. eigenvalues --    3.00802   3.02820   3.08194   3.10487   3.12829
 Alpha virt. eigenvalues --    3.36356   3.62089   3.67903   3.72879   3.75779
 Alpha virt. eigenvalues --    3.76720   3.83998   3.93781   3.96083   3.97303
 Alpha virt. eigenvalues --    3.99204   4.03810   4.04770   4.04836   4.07588
 Alpha virt. eigenvalues --    4.08606   4.08891   4.10530   4.13600   4.18151
 Alpha virt. eigenvalues --    4.20880   4.22909   4.23374   4.24778   4.27030
 Alpha virt. eigenvalues --    4.27373   4.29336   4.30475   4.33748   4.37189
 Alpha virt. eigenvalues --    4.38010   4.40470   4.41601   4.48652   4.51088
 Alpha virt. eigenvalues --    4.55307   4.59990   4.61607   4.65224   4.66539
          Condensed to atoms (all electrons):
 Mulliken charges:
               1
     1  N   -0.722727
     2  H    0.314658
     3  H    0.309422
     4  C   -0.055471
     5  H    0.123483
     6  C    0.643381
     7  C   -0.363532
     8  H    0.140547
     9  H    0.168659
    10  O   -0.537636
    11  C    0.168787
    12  C   -0.197057
    13  H    0.131163
    14  C   -0.179433
    15  H    0.116544
    16  C   -0.127057
    17  H    0.138823
    18  C   -0.127343
    19  H    0.131442
    20  C   -0.130162
    21  H    0.137021
    22  N   -0.608118
    23  H    0.335582
    24  C   -0.070607
    25  H    0.179789
    26  C    0.640310
    27  C   -0.250567
    28  H    0.119707
    29  H    0.150391
    30  O   -0.558343
    31  C   -0.070725
    32  H    0.152788
    33  C   -0.442615
    34  H    0.138156
    35  H    0.153457
    36  H    0.123688
    37  C   -0.465274
    38  H    0.125569
    39  H    0.181226
    40  H    0.150232
    41  N   -0.602729
    42  H    0.342115
    43  C   -0.037925
    44  H    0.206695
    45  C    0.608847
    46  C   -0.418164
    47  H    0.195415
    48  H    0.187956
    49  O   -0.540623
    50  C    0.628005
    51  N   -0.742171
    52  H    0.362475
    53  H    0.352075
    54  O   -0.514747
    55  N   -0.624146
    56  H    0.396848
    57  C   -0.038346
    58  H    0.202341
    59  C    0.578984
    60  C   -0.268129
    61  H    0.143810
    62  H    0.157376
    63  O   -0.438070
    64  C   -0.338675
    65  H    0.178095
    66  H    0.230949
    67  C   -0.159742
    68  H    0.196436
    69  H    0.184549
    70  N   -0.598649
    71  H    0.368661
    72  N   -0.755726
    73  H    0.388663
    74  H    0.398840
    75  N   -0.763416
    76  H    0.387893
    77  H    0.387761
    78  C    0.838909
    79  O   -0.575141
    80  H    0.424549
 Sum of Mulliken charges =   1.00000
 Mulliken charges with hydrogens summed into heavy atoms:
               1
     1  N   -0.098647
     4  C    0.068012
     6  C    0.643381
     7  C   -0.054326
    10  O   -0.537636
    11  C    0.168787
    12  C   -0.065893
    14  C   -0.062890
    16  C    0.011767
    18  C    0.004099
    20  C    0.006859
    22  N   -0.272536
    24  C    0.109182
    26  C    0.640310
    27  C    0.019531
    30  O   -0.558343
    31  C    0.082063
    33  C   -0.027315
    37  C   -0.008247
    41  N   -0.260614
    43  C    0.168771
    45  C    0.608847
    46  C   -0.034793
    49  O   -0.540623
    50  C    0.628005
    51  N   -0.027622
    54  O   -0.514747
    55  N   -0.227298
    57  C    0.163994
    59  C    0.578984
    60  C    0.033057
    63  O   -0.438070
    64  C    0.070369
    67  C    0.221243
    70  N   -0.229989
    72  N    0.031776
    75  N    0.012238
    78  C    0.838909
    79  O   -0.150592
 Electronic spatial extent (au):  <R**2>=          34932.4639
 Charge=              1.0000 electrons
 Dipole moment (field-independent basis, Debye):
    X=              9.6967    Y=             23.7020    Z=            -14.3249  Tot=             29.3430
 Quadrupole moment (field-independent basis, Debye-Ang):
   XX=           -206.5883   YY=              1.1838   ZZ=           -146.5013
   XY=             22.7658   XZ=            -41.5460   YZ=            -96.6336
 Traceless Quadrupole moment (field-independent basis, Debye-Ang):
   XX=            -89.2864   YY=            118.4857   ZZ=            -29.1994
   XY=             22.7658   XZ=            -41.5460   YZ=            -96.6336
 Octapole moment (field-independent basis, Debye-Ang**2):
  XXX=            448.8530  YYY=            341.8385  ZZZ=           -367.4721  XYY=            499.7130
  XXY=           -353.7508  XXZ=            -55.3864  XZZ=            209.5036  YZZ=            169.3414
  YYZ=           -720.3945  XYZ=           -231.5691
 Hexadecapole moment (field-independent basis, Debye-Ang**3):
 XXXX=         -16433.5270 YYYY=            310.3772 ZZZZ=         -13493.0085 XXXY=           1159.2433
 XXXZ=           4129.9543 YYYX=           3133.7785 YYYZ=          -5369.2534 ZZZX=           3901.4275
 ZZZY=          -1632.8737 XXYY=          -4346.9207 XXZZ=          -4247.6787 YYZZ=          -1043.5432
 XXYZ=            -95.9598 YYXZ=            599.9404 ZZXY=            834.0260
 N-N= 4.457920850999D+03 E-N=-1.323918457897D+04  KE= 1.849124232411D+03
 Unable to Open any file for archive entry.
 1\1\GINC-VIM-002\SP\RB3LYP\6-31G(d)\C25H41N8O6(1+)\KENGMITH\19-Jun-202
 2\0\\# B3LYP/6-31G* guess=read geom=check nosymm integral(ultrafinegri
 d)\\Candidate Structure: Conf:197 Charge calc in gas phase\\1,1\N,0,-5
 .5318964327,2.3504006062,2.6076831276\H,0,-6.0964065687,1.5036308305,2
 .5391485435\H,0,-5.90894058,2.9037724019,3.3759868384\C,0,-4.157378192
 9,1.9568441448,2.9133155139\H,0,-3.5263440767,2.8526460071,2.831757349
 \C,0,-3.7569539223,0.9329409225,1.8461979684\C,0,-3.9275533943,1.32541
 90315,4.3203989801\H,0,-2.8700966388,1.0408067016,4.4087890263\H,0,-4.
 5131790527,0.4004660138,4.3658016636\O,0,-4.3813420282,-0.1179601869,1
 .7180081121\C,0,-4.3035992313,2.2570290926,5.4492207469\C,0,-5.5889919
 16,2.2308988858,6.0099460593\H,0,-6.3087340135,1.4941130334,5.66039059
 99\C,0,-3.3862791981,3.1997326154,5.9369221949\H,0,-2.379811937,3.2279
 240897,5.5233421278\C,0,-5.9485795132,3.1209177617,7.0246099242\H,0,-6
 .9477262542,3.0785436769,7.4499239458\C,0,-3.7401453882,4.0889178284,6
 .9513111964\H,0,-3.011042127,4.8052415471,7.3211425384\C,0,-5.02523279
 19,4.0536511241,7.497650803\H,0,-5.3011301108,4.7424732493,8.291275257
 4\N,0,-2.6897659082,1.2630931494,1.0678486095\H,0,-2.1644879599,2.1086
 204378,1.2489763293\C,0,-2.1332754591,0.3719152748,0.0634413707\H,0,-2
 .480482081,-0.6364685657,0.3048600096\C,0,-0.6092056392,0.4614112052,0
 .1614552454\C,0,-2.5515471218,0.7524822236,-1.3797154157\H,0,-2.228047
 1224,1.7896630336,-1.544612986\H,0,-1.9727794972,0.1368206415,-2.08349
 92307\O,0,-0.0446700596,1.5353543907,0.3777561384\C,0,-4.0546523522,0.
 6238968287,-1.6940781085\H,0,-4.6087804729,1.202205925,-0.9428178695\C
 ,0,-4.3436039309,1.239083697,-3.0724690318\H,0,-3.8101439118,0.6993984
 64,-3.8662334214\H,0,-5.4136671255,1.1948566287,-3.3037214741\H,0,-4.0
 356074295,2.2914983029,-3.1168407526\C,0,-4.5453269415,-0.830052096,-1
 .6296151944\H,0,-3.9713744642,-1.4716333443,-2.3126248066\H,0,-4.47295
 89949,-1.232999358,-0.6153489342\H,0,-5.5980471781,-0.8922970698,-1.92
 78649997\N,0,0.0724476519,-0.7072425558,-0.0166136908\H,0,-0.442208688
 6,-1.4768394538,-0.4265324606\C,0,1.5088110446,-0.6719300714,-0.237435
 0201\H,0,1.9421051089,-0.046979582,0.5460470819\C,0,1.7962227434,0.006
 8524783,-1.6014154271\C,0,2.1053537754,-2.0834624758,-0.119858482\H,0,
 1.5867361957,-2.613861558,0.6893374256\H,0,1.9396050959,-2.6631652012,
 -1.037701007\O,0,0.9419955396,0.0584616492,-2.4837960348\C,0,3.6023400
 108,-2.0510682965,0.2084582975\N,0,4.1871483354,-3.2646219927,0.353517
 2745\H,0,5.1691818854,-3.2998258384,0.5916605584\H,0,3.6745414743,-4.1
 3171401,0.2910493489\O,0,4.2276476715,-1.0015005449,0.3441637522\N,0,3
 .0200372261,0.5868944664,-1.7099684256\H,0,3.7351973802,0.3537680962,-
 1.0189820462\C,0,3.3714869871,1.3480389467,-2.8882316683\H,0,2.7565839
 305,0.9813541705,-3.7180185033\C,0,4.8356510379,1.1085738052,-3.235623
 2\C,0,3.0960839374,2.8658581872,-2.70704047\H,0,3.3687993342,3.3718626
 943,-3.6414904588\H,0,3.7633630666,3.2564971903,-1.9264122621\O,0,5.61
 95945415,0.4820240846,-2.5644319045\C,0,1.6383631997,3.1519837387,-2.3
 171916778\H,0,0.9458066153,2.714423351,-3.0478018529\H,0,1.3987160583,
 2.666405775,-1.3660619352\C,0,1.3239646005,4.6361997664,-2.135763842\H
 ,0,0.3187837605,4.7484140025,-1.7103474578\H,0,2.0483739537,5.10255874
 97,-1.4575154776\N,0,1.3854961069,5.3528967213,-3.4295774711\H,0,1.315
 6250938,4.7837874886,-4.2646547121\N,0,1.1947117877,7.4828223207,-2.53
 19738158\H,0,1.4051116522,8.4694380665,-2.5830922741\H,0,0.8898828403,
 7.1171442528,-1.6415333011\N,0,1.5922918785,7.2193182463,-4.7964941057
 \H,0,1.3522368488,8.1819254212,-4.986770819\H,0,1.8980834401,6.6573763
 364,-5.5781610691\C,0,1.3848386387,6.6742110671,-3.5842132881\O,0,5.16
 41503677,1.7110221778,-4.4034004163\H,0,6.1083669298,1.5162328131,-4.5
 596428466\\Version=ES64L-G16RevC.01\HF=-1866.60632\RMSD=5.447e-10\Dipo
 le=4.6353531,6.219049,-5.6881241\Quadrupole=-66.3822274,88.0912379,-21
 .7090104,16.9258509,-30.8884079,-71.8447447\PG=C01 [X(C25H41N8O6)]\\@
 The archive entry for this job was punched.


 ADVERTISING--  HE WHO HAS SOMETHING TO SELL AND GOES AND WHISPERS
                IN A WELL, IS NOT SO APT TO GET THE DOLLARS AS HE
                WHO CLIMBS A TREE AND HOLLERS.

                   -- FROM THE BACK OF A SUGAR PACKET
 Job cpu time:       0 days  0 hours  4 minutes 17.4 seconds.
 Elapsed time:       0 days  0 hours  1 minutes  5.1 seconds.
 File lengths (MBytes):  RWF=    344 Int=      0 D2E=      0 Chk=     48 Scr=     16
 Normal termination of Gaussian 16 at Sun Jun 19 01:47:29 2022.
