 Entering Gaussian System, Link 0=/opt/software/Gaussian/g16-AVX2-C.01/g16/g16
 Input=charge-conf-95.com
 Output=charge-conf-95.log
 Initial command:
 /opt/software/Gaussian/g16-AVX2-C.01/g16/l1.exe "/mnt/gs18/scratch/users/kengmith/Gau-55057.inp" -scrdir="/mnt/gs18/scratch/users/kengmith/"
 Entering Link 1 = /opt/software/Gaussian/g16-AVX2-C.01/g16/l1.exe PID=     55074.
  
 Copyright (c) 1988-2019, Gaussian, Inc.  All Rights Reserved.
  
 This is part of the Gaussian(R) 16 program.  It is based on
 the Gaussian(R) 09 system (copyright 2009, Gaussian, Inc.),
 the Gaussian(R) 03 system (copyright 2003, Gaussian, Inc.),
 the Gaussian(R) 98 system (copyright 1998, Gaussian, Inc.),
 the Gaussian(R) 94 system (copyright 1995, Gaussian, Inc.),
 the Gaussian 92(TM) system (copyright 1992, Gaussian, Inc.),
 the Gaussian 90(TM) system (copyright 1990, Gaussian, Inc.),
 the Gaussian 88(TM) system (copyright 1988, Gaussian, Inc.),
 the Gaussian 86(TM) system (copyright 1986, Carnegie Mellon
 University), and the Gaussian 82(TM) system (copyright 1983,
 Carnegie Mellon University). Gaussian is a federally registered
 trademark of Gaussian, Inc.
  
 This software contains proprietary and confidential information,
 including trade secrets, belonging to Gaussian, Inc.
  
 This software is provided under written license and may be
 used, copied, transmitted, or stored only in accord with that
 written license.
  
 The following legend is applicable only to US Government
 contracts under FAR:
  
                    RESTRICTED RIGHTS LEGEND
  
 Use, reproduction and disclosure by the US Government is
 subject to restrictions as set forth in subparagraphs (a)
 and (c) of the Commercial Computer Software - Restricted
 Rights clause in FAR 52.227-19.
  
 Gaussian, Inc.
 340 Quinnipiac St., Bldg. 40, Wallingford CT 06492
  
  
 ---------------------------------------------------------------
 Warning -- This program may not be used in any manner that
 competes with the business of Gaussian, Inc. or will provide
 assistance to any competitor of Gaussian, Inc.  The licensee
 of this program is prohibited from giving any competitor of
 Gaussian, Inc. access to this program.  By using this program,
 the user acknowledges that Gaussian, Inc. is engaged in the
 business of creating and licensing software in the field of
 computational chemistry and represents and warrants to the
 licensee that it is not a competitor of Gaussian, Inc. and that
 it will not use this program in any manner prohibited above.
 ---------------------------------------------------------------
  

 Cite this work as:
 Gaussian 16, Revision C.01,
 M. J. Frisch, G. W. Trucks, H. B. Schlegel, G. E. Scuseria, 
 M. A. Robb, J. R. Cheeseman, G. Scalmani, V. Barone, 
 G. A. Petersson, H. Nakatsuji, X. Li, M. Caricato, A. V. Marenich, 
 J. Bloino, B. G. Janesko, R. Gomperts, B. Mennucci, H. P. Hratchian, 
 J. V. Ortiz, A. F. Izmaylov, J. L. Sonnenberg, D. Williams-Young, 
 F. Ding, F. Lipparini, F. Egidi, J. Goings, B. Peng, A. Petrone, 
 T. Henderson, D. Ranasinghe, V. G. Zakrzewski, J. Gao, N. Rega, 
 G. Zheng, W. Liang, M. Hada, M. Ehara, K. Toyota, R. Fukuda, 
 J. Hasegawa, M. Ishida, T. Nakajima, Y. Honda, O. Kitao, H. Nakai, 
 T. Vreven, K. Throssell, J. A. Montgomery, Jr., J. E. Peralta, 
 F. Ogliaro, M. J. Bearpark, J. J. Heyd, E. N. Brothers, K. N. Kudin, 
 V. N. Staroverov, T. A. Keith, R. Kobayashi, J. Normand, 
 K. Raghavachari, A. P. Rendell, J. C. Burant, S. S. Iyengar, 
 J. Tomasi, M. Cossi, J. M. Millam, M. Klene, C. Adamo, R. Cammi, 
 J. W. Ochterski, R. L. Martin, K. Morokuma, O. Farkas, 
 J. B. Foresman, and D. J. Fox, Gaussian, Inc., Wallingford CT, 2019.
 
 ******************************************
 Gaussian 16:  ES64L-G16RevC.01  3-Jul-2019
                19-Jun-2022 
 ******************************************
 %mem=8gb
 %nproc=4
 Will use up to    4 processors via shared memory.
 %chk=conf-95.chk
 -------------------------------------------------------------------
 # B3LYP/6-31G* guess=read geom=check nosymm integral(ultrafinegrid)
 -------------------------------------------------------------------
 1/29=2,38=1,172=1/1;
 2/12=2,15=1,40=1/2;
 3/5=1,6=6,7=1,11=2,14=-4,25=1,30=1,74=-5,75=-5,116=-2/1,2,3;
 4/5=1/1;
 5/5=2,38=6/2;
 6/7=2,8=2,9=2,10=2,28=1/1;
 99/5=1,9=1/99;
 -----------------------------------------------------
 Candidate Structure: Conf:95 Charge calc in gas phase
 -----------------------------------------------------
 Structure from the checkpoint file:  "conf-95.chk"
 Charge =  1 Multiplicity = 1
 Redundant internal coordinates found in file.  (old form).
 N,0,-2.1752627496,1.6672930085,3.3299150898
 H,0,-2.2902568899,2.0000320322,4.2867191265
 H,0,-2.0691565332,0.6535130125,3.3698181125
 C,0,-3.4152307196,1.9466649183,2.5790908338
 H,0,-4.2998881547,1.5364507239,3.0963814501
 C,0,-3.3048070432,1.1447818923,1.2671360293
 C,0,-3.6215079072,3.4682129725,2.4298617643
 H,0,-4.5461248717,3.6445882693,1.8646938886
 H,0,-2.7876994322,3.8858096609,1.8525473265
 O,0,-2.843802945,-0.0005668934,1.3026443917
 C,0,-3.7285233266,4.1779536562,3.7661698256
 C,0,-4.9191908484,4.1269774012,4.5056955009
 H,0,-5.7811127976,3.5992904983,4.1020489345
 C,0,-2.6386868148,4.877728354,4.3003782189
 H,0,-1.7130129169,4.9377657253,3.7324214356
 C,0,-5.0164499277,4.7548773586,5.7472310353
 H,0,-5.9487433909,4.709439293,6.3032712037
 C,0,-2.7329469483,5.5088041938,5.5425865692
 H,0,-1.8794471633,6.0528645042,5.9378910083
 C,0,-3.9219739793,5.4474963673,6.2699714018
 H,0,-3.9984745888,5.9408934558,7.2346724296
 N,0,-3.7375006647,1.7232951547,0.1175451246
 H,0,-3.9410030025,2.7140160142,0.1212857391
 C,0,-3.4883744524,1.1224491338,-1.2074652333
 H,0,-3.5989202685,0.0430013991,-1.0833880428
 C,0,-2.0201434123,1.4696166123,-1.5475144309
 C,0,-4.4634041455,1.6600061043,-2.2555423177
 H,0,-4.2737025006,2.7337696497,-2.3806460156
 H,0,-4.1947829826,1.2008586796,-3.2165426076
 O,0,-1.7111133053,2.5020557603,-2.1321354369
 C,0,-5.9575202033,1.4105806722,-1.9705766154
 H,0,-6.1999157139,1.8603115633,-0.9962736955
 C,0,-6.8129124483,2.1128876392,-3.0359349412
 H,0,-6.6181816708,1.696750821,-4.0327145703
 H,0,-7.8813846626,1.9880278945,-2.8276393847
 H,0,-6.6014633391,3.1879928009,-3.0771354805
 C,0,-6.3014830004,-0.0847763055,-1.8950859715
 H,0,-6.042776116,-0.5943924089,-2.8325004801
 H,0,-5.7747698711,-0.5928726756,-1.0795276606
 H,0,-7.3749669733,-0.2270331347,-1.727484443
 N,0,-1.1141976253,0.5947123719,-1.0195325889
 H,0,-1.4923375606,-0.1533869436,-0.4486866211
 C,0,0.2443098655,1.0146706856,-0.7451861188
 H,0,0.2826684668,2.0800139614,-0.9991191793
 C,0,1.2829921129,0.3235070629,-1.6490745514
 C,0,0.5776804988,0.8268122703,0.7696030608
 H,0,-0.3388989856,0.5871779494,1.311521462
 H,0,1.2710782623,-0.0102714447,0.91031595
 O,0,1.0007415583,-0.5211793994,-2.4897874424
 C,0,1.2439403238,2.069904908,1.3424528299
 N,0,0.6229072452,2.6328290805,2.3988043573
 H,0,1.0348403105,3.4701026318,2.7902686599
 H,0,-0.2996438305,2.3240366071,2.7306971006
 O,0,2.2847031023,2.5202555903,0.8445472979
 N,0,2.5559791479,0.7774178649,-1.4327876402
 H,0,2.70975098,1.4347850685,-0.6570307971
 C,0,3.6734009617,0.1664355946,-2.116477089
 H,0,3.2907214305,-0.7829337843,-2.5189383023
 C,0,4.8228433417,-0.2017923418,-1.1784266971
 C,0,4.2039766747,1.011119905,-3.2912114691
 H,0,5.0848966028,0.4993631012,-3.6949441521
 H,0,4.5560107382,1.9791448894,-2.910163516
 O,0,5.9820142808,-0.2739596808,-1.526754521
 C,0,3.1366089241,1.236172011,-4.3685416996
 H,0,2.7133605097,0.2809891061,-4.7068536764
 H,0,2.2942053907,1.7929520427,-3.9462732337
 C,0,3.6422297711,2.0310968796,-5.573236865
 H,0,2.8153938458,2.2381314232,-6.2641763619
 H,0,4.0769702354,2.9831302079,-5.2469854475
 N,0,4.6944835089,1.2751841284,-6.2874854582
 H,0,4.7213926862,0.2753068956,-6.1273615831
 N,0,5.4355181355,3.0338413436,-7.6061492866
 H,0,6.1988490189,3.5121656799,-8.0630561213
 H,0,4.5834622315,3.5539132956,-7.4545058169
 N,0,6.6192708024,1.0448278892,-7.5625581903
 H,0,7.1540771741,1.3041640225,-8.3792221876
 H,0,6.8837356347,0.1941576824,-7.0859466926
 C,0,5.5738075649,1.7815151188,-7.146778588
 O,0,4.4052889891,-0.4822895392,0.0705501294
 H,0,5.2006605362,-0.7275599549,0.5814442445
 Recover connectivity data from disk.
                           ----------------------------
                           !    Current Parameters    !
                           ! (Angstroms and Degrees)  !
 --------------------------                            --------------------------
 ! Name  Definition              Value                                          !
 --------------------------------------------------------------------------------
 ! R1    R(1,2)                  1.0195                                         !
 ! R2    R(1,3)                  1.0201                                         !
 ! R3    R(1,4)                  1.4762                                         !
 ! R4    R(4,5)                  1.1038                                         !
 ! R5    R(4,6)                  1.5416                                         !
 ! R6    R(4,7)                  1.5427                                         !
 ! R7    R(6,10)                 1.2352                                         !
 ! R8    R(6,22)                 1.3577                                         !
 ! R9    R(7,8)                  1.0979                                         !
 ! R10   R(7,9)                  1.0968                                         !
 ! R11   R(7,11)                 1.5169                                         !
 ! R12   R(11,12)                1.4026                                         !
 ! R13   R(11,14)                1.401                                          !
 ! R14   R(12,13)                1.0883                                         !
 ! R15   R(12,16)                1.3947                                         !
 ! R16   R(14,15)                1.0877                                         !
 ! R17   R(14,18)                1.3965                                         !
 ! R18   R(16,17)                1.0865                                         !
 ! R19   R(16,20)                1.3967                                         !
 ! R20   R(18,19)                1.0866                                         !
 ! R21   R(18,20)                1.3952                                         !
 ! R22   R(20,21)                1.0863                                         !
 ! R23   R(22,23)                1.0114                                         !
 ! R24   R(22,24)                1.4761                                         !
 ! R25   R(24,25)                1.0922                                         !
 ! R26   R(24,26)                1.5466                                         !
 ! R27   R(24,27)                1.5291                                         !
 ! R28   R(26,30)                1.2261                                         !
 ! R29   R(26,41)                1.3656                                         !
 ! R30   R(27,28)                1.0975                                         !
 ! R31   R(27,29)                1.0984                                         !
 ! R32   R(27,31)                1.5414                                         !
 ! R33   R(31,32)                1.1001                                         !
 ! R34   R(31,33)                1.5362                                         !
 ! R35   R(31,37)                1.5363                                         !
 ! R36   R(33,34)                1.0976                                         !
 ! R37   R(33,35)                1.0957                                         !
 ! R38   R(33,36)                1.0965                                         !
 ! R39   R(37,38)                1.0979                                         !
 ! R40   R(37,39)                1.0958                                         !
 ! R41   R(37,40)                1.0958                                         !
 ! R42   R(41,42)                1.0142                                         !
 ! R43   R(41,43)                1.4482                                         !
 ! R44   R(43,44)                1.0959                                         !
 ! R45   R(43,45)                1.5406                                         !
 ! R46   R(43,46)                1.5624                                         !
 ! R47   R(45,49)                1.2247                                         !
 ! R48   R(45,55)                1.3687                                         !
 ! R49   R(46,47)                1.0914                                         !
 ! R50   R(46,48)                1.096                                          !
 ! R51   R(46,50)                1.5223                                         !
 ! R52   R(50,51)                1.3485                                         !
 ! R53   R(50,54)                1.2385                                         !
 ! R54   R(51,52)                1.0119                                         !
 ! R55   R(51,53)                1.0279                                         !
 ! R56   R(55,56)                1.0284                                         !
 ! R57   R(55,57)                1.4455                                         !
 ! R58   R(57,58)                1.0999                                         !
 ! R59   R(57,59)                1.5286                                         !
 ! R60   R(57,60)                1.5411                                         !
 ! R61   R(59,63)                1.2125                                         !
 ! R62   R(59,79)                1.3465                                         !
 ! R63   R(60,61)                1.0959                                         !
 ! R64   R(60,62)                1.0983                                         !
 ! R65   R(60,64)                1.5332                                         !
 ! R66   R(64,65)                1.0982                                         !
 ! R67   R(64,66)                1.0945                                         !
 ! R68   R(64,67)                1.5293                                         !
 ! R69   R(67,68)                1.0972                                         !
 ! R70   R(67,69)                1.0963                                         !
 ! R71   R(67,70)                1.4795                                         !
 ! R72   R(70,71)                1.013                                          !
 ! R73   R(70,78)                1.3296                                         !
 ! R74   R(72,73)                1.0101                                         !
 ! R75   R(72,74)                1.0097                                         !
 ! R76   R(72,78)                1.3411                                         !
 ! R77   R(75,76)                1.0101                                         !
 ! R78   R(75,77)                1.0103                                         !
 ! R79   R(75,78)                1.3448                                         !
 ! R80   R(79,80)                0.9766                                         !
 ! A1    A(2,1,3)              107.4197                                         !
 ! A2    A(2,1,4)              108.7122                                         !
 ! A3    A(3,1,4)              107.1776                                         !
 ! A4    A(1,4,5)              111.376                                          !
 ! A5    A(1,4,6)              105.9168                                         !
 ! A6    A(1,4,7)              110.3747                                         !
 ! A7    A(5,4,6)              105.2436                                         !
 ! A8    A(5,4,7)              107.7399                                         !
 ! A9    A(6,4,7)              116.1227                                         !
 ! A10   A(4,6,10)             118.9876                                         !
 ! A11   A(4,6,22)             118.4319                                         !
 ! A12   A(10,6,22)            122.5742                                         !
 ! A13   A(4,7,8)              108.7138                                         !
 ! A14   A(4,7,9)              108.9531                                         !
 ! A15   A(4,7,11)             112.687                                          !
 ! A16   A(8,7,9)              107.9454                                         !
 ! A17   A(8,7,11)             108.5968                                         !
 ! A18   A(9,7,11)             109.8281                                         !
 ! A19   A(7,11,12)            120.49                                           !
 ! A20   A(7,11,14)            120.9801                                         !
 ! A21   A(12,11,14)           118.5209                                         !
 ! A22   A(11,12,13)           119.6315                                         !
 ! A23   A(11,12,16)           120.811                                          !
 ! A24   A(13,12,16)           119.5549                                         !
 ! A25   A(11,14,15)           119.3731                                         !
 ! A26   A(11,14,18)           120.8227                                         !
 ! A27   A(15,14,18)           119.8003                                         !
 ! A28   A(12,16,17)           119.7754                                         !
 ! A29   A(12,16,20)           120.1174                                         !
 ! A30   A(17,16,20)           120.1059                                         !
 ! A31   A(14,18,19)           119.7915                                         !
 ! A32   A(14,18,20)           120.093                                          !
 ! A33   A(19,18,20)           120.1144                                         !
 ! A34   A(16,20,18)           119.6347                                         !
 ! A35   A(16,20,21)           120.1613                                         !
 ! A36   A(18,20,21)           120.2029                                         !
 ! A37   A(6,22,23)            118.5782                                         !
 ! A38   A(6,22,24)            122.1963                                         !
 ! A39   A(23,22,24)           115.8498                                         !
 ! A40   A(22,24,25)           106.4548                                         !
 ! A41   A(22,24,26)           105.44                                           !
 ! A42   A(22,24,27)           111.3805                                         !
 ! A43   A(25,24,26)           110.0556                                         !
 ! A44   A(25,24,27)           111.1486                                         !
 ! A45   A(26,24,27)           112.0697                                         !
 ! A46   A(24,26,30)           122.219                                          !
 ! A47   A(24,26,41)           113.6386                                         !
 ! A48   A(30,26,41)           123.823                                          !
 ! A49   A(24,27,28)           108.1708                                         !
 ! A50   A(24,27,29)           107.2647                                         !
 ! A51   A(24,27,31)           115.7534                                         !
 ! A52   A(28,27,29)           105.4834                                         !
 ! A53   A(28,27,31)           110.2998                                         !
 ! A54   A(29,27,31)           109.3396                                         !
 ! A55   A(27,31,32)           108.1293                                         !
 ! A56   A(27,31,33)           109.7283                                         !
 ! A57   A(27,31,37)           112.5587                                         !
 ! A58   A(32,31,33)           107.7344                                         !
 ! A59   A(32,31,37)           107.762                                          !
 ! A60   A(33,31,37)           110.757                                          !
 ! A61   A(31,33,34)           110.9585                                         !
 ! A62   A(31,33,35)           111.0416                                         !
 ! A63   A(31,33,36)           111.527                                          !
 ! A64   A(34,33,35)           107.6045                                         !
 ! A65   A(34,33,36)           107.6628                                         !
 ! A66   A(35,33,36)           107.8738                                         !
 ! A67   A(31,37,38)           110.9222                                         !
 ! A68   A(31,37,39)           112.3518                                         !
 ! A69   A(31,37,40)           110.6849                                         !
 ! A70   A(38,37,39)           107.8776                                         !
 ! A71   A(38,37,40)           107.5286                                         !
 ! A72   A(39,37,40)           107.2694                                         !
 ! A73   A(26,41,42)           116.2861                                         !
 ! A74   A(26,41,43)           120.6488                                         !
 ! A75   A(42,41,43)           117.1976                                         !
 ! A76   A(41,43,44)           105.7152                                         !
 ! A77   A(41,43,45)           113.0295                                         !
 ! A78   A(41,43,46)           110.4244                                         !
 ! A79   A(44,43,45)           106.0561                                         !
 ! A80   A(44,43,46)           109.5169                                         !
 ! A81   A(45,43,46)           111.7792                                         !
 ! A82   A(43,45,49)           123.8329                                         !
 ! A83   A(43,45,55)           112.6781                                         !
 ! A84   A(49,45,55)           123.4734                                         !
 ! A85   A(43,46,47)           109.1843                                         !
 ! A86   A(43,46,48)           110.5663                                         !
 ! A87   A(43,46,50)           111.1033                                         !
 ! A88   A(47,46,48)           107.449                                          !
 ! A89   A(47,46,50)           111.1003                                         !
 ! A90   A(48,46,50)           107.3654                                         !
 ! A91   A(46,50,51)           115.7284                                         !
 ! A92   A(46,50,54)           120.8932                                         !
 ! A93   A(51,50,54)           123.3763                                         !
 ! A94   A(50,51,52)           117.4498                                         !
 ! A95   A(50,51,53)           122.742                                          !
 ! A96   A(52,51,53)           119.2757                                         !
 ! A97   A(45,55,56)           118.0517                                         !
 ! A98   A(45,55,57)           120.27                                           !
 ! A99   A(56,55,57)           120.757                                          !
 ! A100  A(55,57,58)           105.6021                                         !
 ! A101  A(55,57,59)           113.1325                                         !
 ! A102  A(55,57,60)           113.267                                          !
 ! A103  A(58,57,59)           106.1553                                         !
 ! A104  A(58,57,60)           108.2982                                         !
 ! A105  A(59,57,60)           109.9327                                         !
 ! A106  A(57,59,63)           123.8417                                         !
 ! A107  A(57,59,79)           112.7192                                         !
 ! A108  A(63,59,79)           123.4041                                         !
 ! A109  A(57,60,61)           107.5554                                         !
 ! A110  A(57,60,62)           109.2073                                         !
 ! A111  A(57,60,64)           112.1113                                         !
 ! A112  A(61,60,62)           106.3657                                         !
 ! A113  A(61,60,64)           111.6729                                         !
 ! A114  A(62,60,64)           109.729                                          !
 ! A115  A(60,64,65)           110.9235                                         !
 ! A116  A(60,64,66)           109.8405                                         !
 ! A117  A(60,64,67)           113.5566                                         !
 ! A118  A(65,64,66)           105.3482                                         !
 ! A119  A(65,64,67)           109.6856                                         !
 ! A120  A(66,64,67)           107.0949                                         !
 ! A121  A(64,67,68)           110.1804                                         !
 ! A122  A(64,67,69)           110.3699                                         !
 ! A123  A(64,67,70)           110.4791                                         !
 ! A124  A(68,67,69)           108.8067                                         !
 ! A125  A(68,67,70)           109.1696                                         !
 ! A126  A(69,67,70)           107.7785                                         !
 ! A127  A(67,70,71)           116.5458                                         !
 ! A128  A(67,70,78)           126.0004                                         !
 ! A129  A(71,70,78)           117.4171                                         !
 ! A130  A(73,72,74)           117.5006                                         !
 ! A131  A(73,72,78)           121.2814                                         !
 ! A132  A(74,72,78)           121.1026                                         !
 ! A133  A(76,75,77)           117.3229                                         !
 ! A134  A(76,75,78)           121.3954                                         !
 ! A135  A(77,75,78)           121.2569                                         !
 ! A136  A(70,78,72)           120.5823                                         !
 ! A137  A(70,78,75)           120.3518                                         !
 ! A138  A(72,78,75)           119.0651                                         !
 ! A139  A(59,79,80)           106.5593                                         !
 ! D1    D(2,1,4,5)            -53.4018                                         !
 ! D2    D(2,1,4,6)           -167.3069                                         !
 ! D3    D(2,1,4,7)             66.2291                                         !
 ! D4    D(3,1,4,5)             62.4179                                         !
 ! D5    D(3,1,4,6)            -51.4872                                         !
 ! D6    D(3,1,4,7)           -177.9512                                         !
 ! D7    D(1,4,6,10)            40.8279                                         !
 ! D8    D(1,4,6,22)          -140.0585                                         !
 ! D9    D(5,4,6,10)           -77.2422                                         !
 ! D10   D(5,4,6,22)           101.8714                                         !
 ! D11   D(7,4,6,10)           163.721                                          !
 ! D12   D(7,4,6,22)           -17.1654                                         !
 ! D13   D(1,4,7,8)            179.7252                                         !
 ! D14   D(1,4,7,9)             62.3196                                         !
 ! D15   D(1,4,7,11)           -59.8401                                         !
 ! D16   D(5,4,7,8)            -58.4694                                         !
 ! D17   D(5,4,7,9)           -175.8751                                         !
 ! D18   D(5,4,7,11)            61.9652                                         !
 ! D19   D(6,4,7,8)             59.1976                                         !
 ! D20   D(6,4,7,9)            -58.208                                          !
 ! D21   D(6,4,7,11)           179.6323                                         !
 ! D22   D(4,6,22,23)           12.1853                                         !
 ! D23   D(4,6,22,24)          170.5752                                         !
 ! D24   D(10,6,22,23)        -168.7349                                         !
 ! D25   D(10,6,22,24)         -10.3449                                         !
 ! D26   D(4,7,11,12)          -77.7244                                         !
 ! D27   D(4,7,11,14)          101.1674                                         !
 ! D28   D(8,7,11,12)           42.7774                                         !
 ! D29   D(8,7,11,14)         -138.3308                                         !
 ! D30   D(9,7,11,12)          160.6105                                         !
 ! D31   D(9,7,11,14)          -20.4977                                         !
 ! D32   D(7,11,12,13)          -1.8697                                         !
 ! D33   D(7,11,12,16)         178.7236                                         !
 ! D34   D(14,11,12,13)        179.2116                                         !
 ! D35   D(14,11,12,16)         -0.1951                                         !
 ! D36   D(7,11,14,15)           1.9271                                         !
 ! D37   D(7,11,14,18)        -178.7853                                         !
 ! D38   D(12,11,14,15)       -179.1598                                         !
 ! D39   D(12,11,14,18)          0.1278                                         !
 ! D40   D(11,12,16,17)        179.6547                                         !
 ! D41   D(11,12,16,20)          0.0893                                         !
 ! D42   D(13,12,16,17)          0.2475                                         !
 ! D43   D(13,12,16,20)       -179.3179                                         !
 ! D44   D(11,14,18,19)       -179.5728                                         !
 ! D45   D(11,14,18,20)          0.0455                                         !
 ! D46   D(15,14,18,19)         -0.2882                                         !
 ! D47   D(15,14,18,20)        179.3301                                         !
 ! D48   D(12,16,20,18)          0.0873                                         !
 ! D49   D(12,16,20,21)        179.7012                                         !
 ! D50   D(17,16,20,18)       -179.4767                                         !
 ! D51   D(17,16,20,21)          0.1372                                         !
 ! D52   D(14,18,20,16)         -0.1539                                         !
 ! D53   D(14,18,20,21)       -179.7677                                         !
 ! D54   D(19,18,20,16)        179.4631                                         !
 ! D55   D(19,18,20,21)         -0.1507                                         !
 ! D56   D(6,22,24,25)          38.4043                                         !
 ! D57   D(6,22,24,26)         -78.5026                                         !
 ! D58   D(6,22,24,27)         159.7118                                         !
 ! D59   D(23,22,24,25)       -162.6576                                         !
 ! D60   D(23,22,24,26)         80.4355                                         !
 ! D61   D(23,22,24,27)        -41.3501                                         !
 ! D62   D(22,24,26,30)        -89.0063                                         !
 ! D63   D(22,24,26,41)         84.7334                                         !
 ! D64   D(25,24,26,30)        156.5585                                         !
 ! D65   D(25,24,26,41)        -29.7019                                         !
 ! D66   D(27,24,26,30)         32.3323                                         !
 ! D67   D(27,24,26,41)       -153.928                                          !
 ! D68   D(22,24,27,28)         64.5326                                         !
 ! D69   D(22,24,27,29)        177.8756                                         !
 ! D70   D(22,24,27,31)        -59.7828                                         !
 ! D71   D(25,24,27,28)       -176.938                                          !
 ! D72   D(25,24,27,29)        -63.595                                          !
 ! D73   D(25,24,27,31)         58.7467                                         !
 ! D74   D(26,24,27,28)        -53.3228                                         !
 ! D75   D(26,24,27,29)         60.0202                                         !
 ! D76   D(26,24,27,31)       -177.6382                                         !
 ! D77   D(24,26,41,42)         -1.9299                                         !
 ! D78   D(24,26,41,43)       -154.2093                                         !
 ! D79   D(30,26,41,42)        171.6943                                         !
 ! D80   D(30,26,41,43)         19.4149                                         !
 ! D81   D(24,27,31,32)         57.6497                                         !
 ! D82   D(24,27,31,33)        174.9026                                         !
 ! D83   D(24,27,31,37)        -61.2715                                         !
 ! D84   D(28,27,31,32)        -65.5542                                         !
 ! D85   D(28,27,31,33)         51.6987                                         !
 ! D86   D(28,27,31,37)        175.5246                                         !
 ! D87   D(29,27,31,32)        178.8838                                         !
 ! D88   D(29,27,31,33)        -63.8633                                         !
 ! D89   D(29,27,31,37)         59.9626                                         !
 ! D90   D(27,31,33,34)         62.9852                                         !
 ! D91   D(27,31,33,35)       -177.3871                                         !
 ! D92   D(27,31,33,36)        -57.0389                                         !
 ! D93   D(32,31,33,34)       -179.5152                                         !
 ! D94   D(32,31,33,35)        -59.8875                                         !
 ! D95   D(32,31,33,36)         60.4607                                         !
 ! D96   D(37,31,33,34)        -61.8876                                         !
 ! D97   D(37,31,33,35)         57.7401                                         !
 ! D98   D(37,31,33,36)        178.0883                                         !
 ! D99   D(27,31,37,38)        -58.6989                                         !
 ! D100  D(27,31,37,39)         62.135                                          !
 ! D101  D(27,31,37,40)       -177.9742                                         !
 ! D102  D(32,31,37,38)       -177.8345                                         !
 ! D103  D(32,31,37,39)        -57.0006                                         !
 ! D104  D(32,31,37,40)         62.8902                                         !
 ! D105  D(33,31,37,38)         64.5547                                         !
 ! D106  D(33,31,37,39)       -174.6114                                         !
 ! D107  D(33,31,37,40)        -54.7206                                         !
 ! D108  D(26,41,43,44)          2.6574                                         !
 ! D109  D(26,41,43,45)       -112.925                                          !
 ! D110  D(26,41,43,46)        121.0244                                         !
 ! D111  D(42,41,43,44)       -149.3795                                         !
 ! D112  D(42,41,43,45)         95.0382                                         !
 ! D113  D(42,41,43,46)        -31.0124                                         !
 ! D114  D(41,43,45,49)         -1.8708                                         !
 ! D115  D(41,43,45,55)        176.7401                                         !
 ! D116  D(44,43,45,49)       -117.2496                                         !
 ! D117  D(44,43,45,55)         61.3613                                         !
 ! D118  D(46,43,45,49)        123.4518                                         !
 ! D119  D(46,43,45,55)        -57.9373                                         !
 ! D120  D(41,43,46,47)         -9.8333                                         !
 ! D121  D(41,43,46,48)        108.178                                          !
 ! D122  D(41,43,46,50)       -132.7111                                         !
 ! D123  D(44,43,46,47)        106.1836                                         !
 ! D124  D(44,43,46,48)       -135.8051                                         !
 ! D125  D(44,43,46,50)        -16.6942                                         !
 ! D126  D(45,43,46,47)       -136.5831                                         !
 ! D127  D(45,43,46,48)        -18.5718                                         !
 ! D128  D(45,43,46,50)        100.5391                                         !
 ! D129  D(43,45,55,56)          5.9916                                         !
 ! D130  D(43,45,55,57)        175.0917                                         !
 ! D131  D(49,45,55,56)       -175.3917                                         !
 ! D132  D(49,45,55,57)         -6.2916                                         !
 ! D133  D(43,46,50,51)        122.7563                                         !
 ! D134  D(43,46,50,54)        -56.7409                                         !
 ! D135  D(47,46,50,51)          0.9893                                         !
 ! D136  D(47,46,50,54)       -178.508                                          !
 ! D137  D(48,46,50,51)       -116.2318                                         !
 ! D138  D(48,46,50,54)         64.2709                                         !
 ! D139  D(46,50,51,52)       -178.9641                                         !
 ! D140  D(46,50,51,53)         -7.4048                                         !
 ! D141  D(54,50,51,52)          0.5193                                         !
 ! D142  D(54,50,51,53)        172.0786                                         !
 ! D143  D(45,55,57,58)        -15.0619                                         !
 ! D144  D(45,55,57,59)       -130.748                                          !
 ! D145  D(45,55,57,60)        103.2911                                         !
 ! D146  D(56,55,57,58)        153.7404                                         !
 ! D147  D(56,55,57,59)         38.0544                                         !
 ! D148  D(56,55,57,60)        -87.9066                                         !
 ! D149  D(55,57,59,63)       -153.1226                                         !
 ! D150  D(55,57,59,79)         28.9642                                         !
 ! D151  D(58,57,59,63)         91.5209                                         !
 ! D152  D(58,57,59,79)        -86.3922                                         !
 ! D153  D(60,57,59,63)        -25.3993                                         !
 ! D154  D(60,57,59,79)        156.6875                                         !
 ! D155  D(55,57,60,61)        176.1672                                         !
 ! D156  D(55,57,60,62)         61.1326                                         !
 ! D157  D(55,57,60,64)        -60.6966                                         !
 ! D158  D(58,57,60,61)        -67.0541                                         !
 ! D159  D(58,57,60,62)        177.9114                                         !
 ! D160  D(58,57,60,64)         56.0821                                         !
 ! D161  D(59,57,60,61)         48.5186                                         !
 ! D162  D(59,57,60,62)        -66.516                                          !
 ! D163  D(59,57,60,64)        171.6548                                         !
 ! D164  D(57,59,79,80)        178.4397                                         !
 ! D165  D(63,59,79,80)          0.5159                                         !
 ! D166  D(57,60,64,65)        -53.9694                                         !
 ! D167  D(57,60,64,66)         62.0838                                         !
 ! D168  D(57,60,64,67)       -178.0333                                         !
 ! D169  D(61,60,64,65)         66.8143                                         !
 ! D170  D(61,60,64,66)       -177.1325                                         !
 ! D171  D(61,60,64,67)        -57.2497                                         !
 ! D172  D(62,60,64,65)       -175.4998                                         !
 ! D173  D(62,60,64,66)        -59.4466                                         !
 ! D174  D(62,60,64,67)         60.4363                                         !
 ! D175  D(60,64,67,68)       -174.8667                                         !
 ! D176  D(60,64,67,69)        -54.6786                                         !
 ! D177  D(60,64,67,70)         64.4222                                         !
 ! D178  D(65,64,67,68)         60.4004                                         !
 ! D179  D(65,64,67,69)       -179.4115                                         !
 ! D180  D(65,64,67,70)        -60.3107                                         !
 ! D181  D(66,64,67,68)        -53.4367                                         !
 ! D182  D(66,64,67,69)         66.7515                                         !
 ! D183  D(66,64,67,70)       -174.1477                                         !
 ! D184  D(64,67,70,71)         20.4624                                         !
 ! D185  D(64,67,70,78)       -161.8087                                         !
 ! D186  D(68,67,70,71)       -100.8499                                         !
 ! D187  D(68,67,70,78)         76.879                                          !
 ! D188  D(69,67,70,71)        141.1229                                         !
 ! D189  D(69,67,70,78)        -41.1482                                         !
 ! D190  D(67,70,78,72)        -10.7943                                         !
 ! D191  D(67,70,78,75)        168.891                                          !
 ! D192  D(71,70,78,72)        166.917                                          !
 ! D193  D(71,70,78,75)        -13.3977                                         !
 ! D194  D(73,72,78,70)        164.2905                                         !
 ! D195  D(73,72,78,75)        -15.3988                                         !
 ! D196  D(74,72,78,70)        -11.7049                                         !
 ! D197  D(74,72,78,75)        168.6058                                         !
 ! D198  D(76,75,78,70)        163.7616                                         !
 ! D199  D(76,75,78,72)        -16.5484                                         !
 ! D200  D(77,75,78,70)        -14.3778                                         !
 ! D201  D(77,75,78,72)        165.3122                                         !
 --------------------------------------------------------------------------------
 Symmetry turned off by external request.
 Stoichiometry    C25H41N8O6(1+)
 Framework group  C1[X(C25H41N8O6)]
 Deg. of freedom   234
 Full point group                 C1      NOp   1
                          Input orientation:                          
 ---------------------------------------------------------------------
 Center     Atomic      Atomic             Coordinates (Angstroms)
 Number     Number       Type             X           Y           Z
 ---------------------------------------------------------------------
      1          7           0       -2.175263    1.667293    3.329915
      2          1           0       -2.290257    2.000032    4.286719
      3          1           0       -2.069157    0.653513    3.369818
      4          6           0       -3.415231    1.946665    2.579091
      5          1           0       -4.299888    1.536451    3.096381
      6          6           0       -3.304807    1.144782    1.267136
      7          6           0       -3.621508    3.468213    2.429862
      8          1           0       -4.546125    3.644588    1.864694
      9          1           0       -2.787699    3.885810    1.852547
     10          8           0       -2.843803   -0.000567    1.302644
     11          6           0       -3.728523    4.177954    3.766170
     12          6           0       -4.919191    4.126977    4.505696
     13          1           0       -5.781113    3.599290    4.102049
     14          6           0       -2.638687    4.877728    4.300378
     15          1           0       -1.713013    4.937766    3.732421
     16          6           0       -5.016450    4.754877    5.747231
     17          1           0       -5.948743    4.709439    6.303271
     18          6           0       -2.732947    5.508804    5.542587
     19          1           0       -1.879447    6.052865    5.937891
     20          6           0       -3.921974    5.447496    6.269971
     21          1           0       -3.998475    5.940893    7.234672
     22          7           0       -3.737501    1.723295    0.117545
     23          1           0       -3.941003    2.714016    0.121286
     24          6           0       -3.488374    1.122449   -1.207465
     25          1           0       -3.598920    0.043001   -1.083388
     26          6           0       -2.020143    1.469617   -1.547514
     27          6           0       -4.463404    1.660006   -2.255542
     28          1           0       -4.273703    2.733770   -2.380646
     29          1           0       -4.194783    1.200859   -3.216543
     30          8           0       -1.711113    2.502056   -2.132135
     31          6           0       -5.957520    1.410581   -1.970577
     32          1           0       -6.199916    1.860312   -0.996274
     33          6           0       -6.812912    2.112888   -3.035935
     34          1           0       -6.618182    1.696751   -4.032715
     35          1           0       -7.881385    1.988028   -2.827639
     36          1           0       -6.601463    3.187993   -3.077135
     37          6           0       -6.301483   -0.084776   -1.895086
     38          1           0       -6.042776   -0.594392   -2.832500
     39          1           0       -5.774770   -0.592873   -1.079528
     40          1           0       -7.374967   -0.227033   -1.727484
     41          7           0       -1.114198    0.594712   -1.019533
     42          1           0       -1.492338   -0.153387   -0.448687
     43          6           0        0.244310    1.014671   -0.745186
     44          1           0        0.282668    2.080014   -0.999119
     45          6           0        1.282992    0.323507   -1.649075
     46          6           0        0.577680    0.826812    0.769603
     47          1           0       -0.338899    0.587178    1.311521
     48          1           0        1.271078   -0.010271    0.910316
     49          8           0        1.000742   -0.521179   -2.489787
     50          6           0        1.243940    2.069905    1.342453
     51          7           0        0.622907    2.632829    2.398804
     52          1           0        1.034840    3.470103    2.790269
     53          1           0       -0.299644    2.324037    2.730697
     54          8           0        2.284703    2.520256    0.844547
     55          7           0        2.555979    0.777418   -1.432788
     56          1           0        2.709751    1.434785   -0.657031
     57          6           0        3.673401    0.166436   -2.116477
     58          1           0        3.290721   -0.782934   -2.518938
     59          6           0        4.822843   -0.201792   -1.178427
     60          6           0        4.203977    1.011120   -3.291211
     61          1           0        5.084897    0.499363   -3.694944
     62          1           0        4.556011    1.979145   -2.910164
     63          8           0        5.982014   -0.273960   -1.526755
     64          6           0        3.136609    1.236172   -4.368542
     65          1           0        2.713361    0.280989   -4.706854
     66          1           0        2.294205    1.792952   -3.946273
     67          6           0        3.642230    2.031097   -5.573237
     68          1           0        2.815394    2.238131   -6.264176
     69          1           0        4.076970    2.983130   -5.246985
     70          7           0        4.694484    1.275184   -6.287485
     71          1           0        4.721393    0.275307   -6.127362
     72          7           0        5.435518    3.033841   -7.606149
     73          1           0        6.198849    3.512166   -8.063056
     74          1           0        4.583462    3.553913   -7.454506
     75          7           0        6.619271    1.044828   -7.562558
     76          1           0        7.154077    1.304164   -8.379222
     77          1           0        6.883736    0.194158   -7.085947
     78          6           0        5.573808    1.781515   -7.146779
     79          8           0        4.405289   -0.482290    0.070550
     80          1           0        5.200661   -0.727560    0.581444
 ---------------------------------------------------------------------
 Rotational constants (GHZ):           0.1197501           0.0369794           0.0317538
 Standard basis: 6-31G(d) (6D, 7F)
   667 basis functions,  1256 primitive gaussians,   667 cartesian basis functions
   147 alpha electrons      147 beta electrons
       nuclear repulsion energy      4489.3908721791 Hartrees.
 NAtoms=   80 NActive=   80 NUniq=   80 SFac= 1.00D+00 NAtFMM=   60 NAOKFM=T Big=T
 Integral buffers will be    131072 words long.
 Raffenetti 2 integral format.
 Two-electron integral symmetry is turned off.
 One-electron integrals computed using PRISM.
 NBasis=   667 RedAO= T EigKep=  4.64D-04  NBF=   667
 NBsUse=   667 1.00D-06 EigRej= -1.00D+00 NBFU=   667
 Initial guess from the checkpoint file:  "conf-95.chk"
 B after Tr=     0.000000    0.000000    0.000000
         Rot=    1.000000    0.000000    0.000000    0.000000 Ang=   0.00 deg.
 Requested convergence on RMS density matrix=1.00D-08 within 128 cycles.
 Requested convergence on MAX density matrix=1.00D-06.
 Requested convergence on             energy=1.00D-06.
 No special actions if energy rises.
 SCF Done:  E(RB3LYP) =  -1866.61388362     A.U. after    1 cycles
            NFock=  1  Conv=0.81D-08     -V/T= 2.0095

 **********************************************************************

            Population analysis using the SCF Density.

 **********************************************************************

 Alpha  occ. eigenvalues --  -19.27435 -19.21753 -19.19311 -19.18130 -19.18111
 Alpha  occ. eigenvalues --  -19.17707 -14.54126 -14.53875 -14.53808 -14.44052
 Alpha  occ. eigenvalues --  -14.41901 -14.41744 -14.41393 -14.40097 -10.50304
 Alpha  occ. eigenvalues --  -10.39964 -10.36761 -10.36434 -10.35607 -10.35037
 Alpha  occ. eigenvalues --  -10.34666 -10.31843 -10.30330 -10.30093 -10.30043
 Alpha  occ. eigenvalues --  -10.29805 -10.28619 -10.26735 -10.26370 -10.26100
 Alpha  occ. eigenvalues --  -10.25047 -10.24968 -10.24881 -10.24823 -10.24659
 Alpha  occ. eigenvalues --  -10.24590 -10.24383 -10.22494 -10.22411  -1.18722
 Alpha  occ. eigenvalues --   -1.18407  -1.11285  -1.10178  -1.09434  -1.09345
 Alpha  occ. eigenvalues --   -1.09281  -1.07821  -1.06934  -1.00044  -0.99313
 Alpha  occ. eigenvalues --   -0.98603  -0.96946  -0.96232  -0.91623  -0.91443
 Alpha  occ. eigenvalues --   -0.87065  -0.86400  -0.84575  -0.83917  -0.81460
 Alpha  occ. eigenvalues --   -0.81077  -0.80306  -0.78965  -0.77985  -0.76128
 Alpha  occ. eigenvalues --   -0.74848  -0.73538  -0.73368  -0.72226  -0.70933
 Alpha  occ. eigenvalues --   -0.70316  -0.67737  -0.67410  -0.66953  -0.66558
 Alpha  occ. eigenvalues --   -0.66092  -0.65816  -0.64527  -0.64131  -0.63830
 Alpha  occ. eigenvalues --   -0.62244  -0.62164  -0.60598  -0.60407  -0.59476
 Alpha  occ. eigenvalues --   -0.59223  -0.57415  -0.57025  -0.56707  -0.56576
 Alpha  occ. eigenvalues --   -0.56097  -0.55963  -0.55211  -0.54769  -0.54382
 Alpha  occ. eigenvalues --   -0.53411  -0.52849  -0.52032  -0.51643  -0.51200
 Alpha  occ. eigenvalues --   -0.51119  -0.50874  -0.49873  -0.49170  -0.48861
 Alpha  occ. eigenvalues --   -0.48630  -0.48040  -0.47889  -0.47771  -0.47388
 Alpha  occ. eigenvalues --   -0.46902  -0.46682  -0.46208  -0.46169  -0.45711
 Alpha  occ. eigenvalues --   -0.45430  -0.45184  -0.44971  -0.44912  -0.44367
 Alpha  occ. eigenvalues --   -0.43934  -0.43555  -0.43392  -0.43077  -0.42688
 Alpha  occ. eigenvalues --   -0.42260  -0.41668  -0.41507  -0.41383  -0.40269
 Alpha  occ. eigenvalues --   -0.39930  -0.39475  -0.38119  -0.37974  -0.37870
 Alpha  occ. eigenvalues --   -0.36038  -0.34771  -0.34380  -0.33180  -0.32788
 Alpha  occ. eigenvalues --   -0.32578  -0.32027  -0.31888  -0.30953  -0.30737
 Alpha  occ. eigenvalues --   -0.30390  -0.30287
 Alpha virt. eigenvalues --   -0.14104  -0.09999  -0.07018  -0.06746  -0.06301
 Alpha virt. eigenvalues --   -0.06090  -0.06045  -0.05440  -0.04595  -0.04316
 Alpha virt. eigenvalues --   -0.03804  -0.03075  -0.01292   0.00029   0.00568
 Alpha virt. eigenvalues --    0.00866   0.01890   0.02041   0.02871   0.03539
 Alpha virt. eigenvalues --    0.03652   0.04024   0.04608   0.05310   0.05771
 Alpha virt. eigenvalues --    0.06123   0.06431   0.06825   0.07182   0.07527
 Alpha virt. eigenvalues --    0.07675   0.08055   0.08489   0.08643   0.08692
 Alpha virt. eigenvalues --    0.09222   0.09451   0.09715   0.10013   0.10217
 Alpha virt. eigenvalues --    0.10297   0.11172   0.11380   0.11784   0.12070
 Alpha virt. eigenvalues --    0.12352   0.12751   0.13110   0.13508   0.13916
 Alpha virt. eigenvalues --    0.14160   0.14383   0.14466   0.14830   0.15039
 Alpha virt. eigenvalues --    0.15437   0.16114   0.16321   0.16361   0.17451
 Alpha virt. eigenvalues --    0.18134   0.18334   0.18878   0.19214   0.19668
 Alpha virt. eigenvalues --    0.20495   0.20940   0.21475   0.21560   0.22058
 Alpha virt. eigenvalues --    0.22772   0.23151   0.24220   0.24855   0.25482
 Alpha virt. eigenvalues --    0.26171   0.26712   0.27436   0.28486   0.29600
 Alpha virt. eigenvalues --    0.29848   0.30444   0.31363   0.32506   0.35204
 Alpha virt. eigenvalues --    0.35604   0.36326   0.36602   0.37690   0.38911
 Alpha virt. eigenvalues --    0.39701   0.40337   0.41940   0.42458   0.43299
 Alpha virt. eigenvalues --    0.44190   0.44857   0.45755   0.46162   0.46335
 Alpha virt. eigenvalues --    0.46714   0.47094   0.47318   0.47539   0.47736
 Alpha virt. eigenvalues --    0.48071   0.48600   0.48926   0.48972   0.49634
 Alpha virt. eigenvalues --    0.49834   0.49906   0.50598   0.51197   0.51622
 Alpha virt. eigenvalues --    0.52150   0.52290   0.52662   0.53554   0.53721
 Alpha virt. eigenvalues --    0.53939   0.54194   0.54845   0.54955   0.55105
 Alpha virt. eigenvalues --    0.55704   0.55925   0.56248   0.56896   0.57169
 Alpha virt. eigenvalues --    0.57475   0.57892   0.58189   0.58816   0.59196
 Alpha virt. eigenvalues --    0.59566   0.59688   0.60234   0.60463   0.60692
 Alpha virt. eigenvalues --    0.60942   0.61853   0.62031   0.62607   0.62895
 Alpha virt. eigenvalues --    0.63892   0.64613   0.65307   0.65499   0.66391
 Alpha virt. eigenvalues --    0.66568   0.66838   0.68069   0.68202   0.68763
 Alpha virt. eigenvalues --    0.69176   0.69223   0.69403   0.70457   0.70622
 Alpha virt. eigenvalues --    0.71195   0.71656   0.72205   0.72601   0.73593
 Alpha virt. eigenvalues --    0.74016   0.74042   0.74655   0.74796   0.75295
 Alpha virt. eigenvalues --    0.75651   0.76240   0.76453   0.76675   0.77223
 Alpha virt. eigenvalues --    0.77536   0.78243   0.78558   0.78998   0.79319
 Alpha virt. eigenvalues --    0.79489   0.79921   0.80172   0.80427   0.81073
 Alpha virt. eigenvalues --    0.81515   0.81946   0.82075   0.82384   0.82866
 Alpha virt. eigenvalues --    0.83177   0.83519   0.83705   0.84394   0.84639
 Alpha virt. eigenvalues --    0.84979   0.85254   0.85408   0.85756   0.85931
 Alpha virt. eigenvalues --    0.86336   0.86523   0.87089   0.87169   0.87440
 Alpha virt. eigenvalues --    0.87769   0.88252   0.88823   0.89288   0.89880
 Alpha virt. eigenvalues --    0.90328   0.91134   0.91835   0.91935   0.92413
 Alpha virt. eigenvalues --    0.92746   0.93146   0.94335   0.94594   0.95148
 Alpha virt. eigenvalues --    0.95580   0.95615   0.96706   0.97467   0.97831
 Alpha virt. eigenvalues --    0.98266   0.98508   0.99463   0.99773   1.00499
 Alpha virt. eigenvalues --    1.01468   1.02209   1.02572   1.03809   1.04682
 Alpha virt. eigenvalues --    1.05442   1.06254   1.06984   1.07128   1.07817
 Alpha virt. eigenvalues --    1.08866   1.09239   1.10971   1.11159   1.11918
 Alpha virt. eigenvalues --    1.12347   1.14132   1.14246   1.14687   1.14934
 Alpha virt. eigenvalues --    1.16304   1.17293   1.17737   1.18435   1.20195
 Alpha virt. eigenvalues --    1.20557   1.21131   1.21583   1.22704   1.24725
 Alpha virt. eigenvalues --    1.25842   1.26474   1.27339   1.29251   1.29984
 Alpha virt. eigenvalues --    1.30874   1.32626   1.34406   1.34504   1.35387
 Alpha virt. eigenvalues --    1.36159   1.36801   1.37257   1.37802   1.38202
 Alpha virt. eigenvalues --    1.38794   1.39197   1.39985   1.41392   1.42232
 Alpha virt. eigenvalues --    1.42421   1.43266   1.43668   1.44630   1.44824
 Alpha virt. eigenvalues --    1.45373   1.45564   1.47001   1.47394   1.47961
 Alpha virt. eigenvalues --    1.48385   1.49179   1.49875   1.50644   1.51878
 Alpha virt. eigenvalues --    1.52756   1.54303   1.54594   1.54962   1.55501
 Alpha virt. eigenvalues --    1.56875   1.58441   1.59359   1.60359   1.60779
 Alpha virt. eigenvalues --    1.61649   1.62959   1.63777   1.64114   1.66180
 Alpha virt. eigenvalues --    1.67081   1.67474   1.67919   1.69014   1.69419
 Alpha virt. eigenvalues --    1.70072   1.70660   1.71347   1.71644   1.72455
 Alpha virt. eigenvalues --    1.73039   1.73352   1.73928   1.74226   1.74521
 Alpha virt. eigenvalues --    1.74860   1.75545   1.75910   1.76263   1.77295
 Alpha virt. eigenvalues --    1.77594   1.77840   1.79152   1.80183   1.80354
 Alpha virt. eigenvalues --    1.80607   1.81188   1.81698   1.82462   1.83339
 Alpha virt. eigenvalues --    1.83403   1.83799   1.84186   1.84824   1.85605
 Alpha virt. eigenvalues --    1.86168   1.86400   1.86865   1.87703   1.88520
 Alpha virt. eigenvalues --    1.88735   1.89368   1.89863   1.90477   1.91404
 Alpha virt. eigenvalues --    1.91545   1.92020   1.92311   1.93456   1.93956
 Alpha virt. eigenvalues --    1.94766   1.95170   1.95857   1.96026   1.96599
 Alpha virt. eigenvalues --    1.97352   1.97676   1.98417   1.99879   2.00370
 Alpha virt. eigenvalues --    2.00584   2.01175   2.01700   2.02544   2.03590
 Alpha virt. eigenvalues --    2.04118   2.05803   2.06249   2.06764   2.08074
 Alpha virt. eigenvalues --    2.08267   2.08648   2.08803   2.09157   2.09845
 Alpha virt. eigenvalues --    2.10642   2.11968   2.12344   2.15103   2.15639
 Alpha virt. eigenvalues --    2.16783   2.17680   2.18290   2.18740   2.19270
 Alpha virt. eigenvalues --    2.20073   2.20401   2.21410   2.21809   2.22092
 Alpha virt. eigenvalues --    2.23126   2.24120   2.25148   2.25893   2.26864
 Alpha virt. eigenvalues --    2.27928   2.29094   2.30110   2.31025   2.31735
 Alpha virt. eigenvalues --    2.32247   2.32544   2.33331   2.34645   2.35685
 Alpha virt. eigenvalues --    2.36783   2.37063   2.37584   2.38672   2.39403
 Alpha virt. eigenvalues --    2.39584   2.40164   2.40586   2.42935   2.43670
 Alpha virt. eigenvalues --    2.44126   2.45599   2.45946   2.47087   2.48102
 Alpha virt. eigenvalues --    2.49157   2.49721   2.50124   2.52096   2.52153
 Alpha virt. eigenvalues --    2.52799   2.54100   2.54795   2.55512   2.55718
 Alpha virt. eigenvalues --    2.56641   2.58321   2.58950   2.59778   2.60002
 Alpha virt. eigenvalues --    2.60262   2.61559   2.64585   2.64656   2.65604
 Alpha virt. eigenvalues --    2.66231   2.67225   2.67696   2.68091   2.68796
 Alpha virt. eigenvalues --    2.69498   2.71135   2.71844   2.72771   2.75258
 Alpha virt. eigenvalues --    2.78638   2.80483   2.81315   2.82515   2.86195
 Alpha virt. eigenvalues --    2.88894   2.89346   2.90956   2.92230   2.94359
 Alpha virt. eigenvalues --    2.95256   2.95966   2.96562   2.97965   2.99066
 Alpha virt. eigenvalues --    3.00550   3.05912   3.07352   3.09016   3.11202
 Alpha virt. eigenvalues --    3.34985   3.62464   3.68177   3.75471   3.77732
 Alpha virt. eigenvalues --    3.84163   3.88845   3.93538   3.97862   3.99617
 Alpha virt. eigenvalues --    4.03390   4.03555   4.06051   4.06210   4.07043
 Alpha virt. eigenvalues --    4.09851   4.10673   4.11426   4.12893   4.16144
 Alpha virt. eigenvalues --    4.18536   4.19091   4.23156   4.23285   4.24226
 Alpha virt. eigenvalues --    4.27524   4.28823   4.30511   4.32088   4.36247
 Alpha virt. eigenvalues --    4.39993   4.40356   4.47682   4.49759   4.55339
 Alpha virt. eigenvalues --    4.56283   4.59093   4.63122   4.64500   4.65252
          Condensed to atoms (all electrons):
 Mulliken charges:
               1
     1  N   -0.755774
     2  H    0.328836
     3  H    0.338572
     4  C   -0.058518
     5  H    0.166351
     6  C    0.643541
     7  C   -0.378278
     8  H    0.153268
     9  H    0.161444
    10  O   -0.553402
    11  C    0.148628
    12  C   -0.180224
    13  H    0.131108
    14  C   -0.183942
    15  H    0.123848
    16  C   -0.127385
    17  H    0.145522
    18  C   -0.127699
    19  H    0.141069
    20  C   -0.127721
    21  H    0.145505
    22  N   -0.606081
    23  H    0.349982
    24  C   -0.073546
    25  H    0.182633
    26  C    0.606793
    27  C   -0.279651
    28  H    0.155825
    29  H    0.152274
    30  O   -0.527309
    31  C   -0.071858
    32  H    0.121129
    33  C   -0.443368
    34  H    0.145294
    35  H    0.150565
    36  H    0.142646
    37  C   -0.453751
    38  H    0.144566
    39  H    0.150474
    40  H    0.152806
    41  N   -0.583414
    42  H    0.361840
    43  C   -0.066034
    44  H    0.206478
    45  C    0.597851
    46  C   -0.423242
    47  H    0.188166
    48  H    0.195873
    49  O   -0.524998
    50  C    0.611487
    51  N   -0.782439
    52  H    0.338051
    53  H    0.408163
    54  O   -0.541502
    55  N   -0.634147
    56  H    0.386650
    57  C   -0.049272
    58  H    0.206218
    59  C    0.590204
    60  C   -0.258403
    61  H    0.143983
    62  H    0.157422
    63  O   -0.470817
    64  C   -0.320404
    65  H    0.178978
    66  H    0.203050
    67  C   -0.158785
    68  H    0.192462
    69  H    0.184520
    70  N   -0.594228
    71  H    0.370353
    72  N   -0.754534
    73  H    0.388192
    74  H    0.396924
    75  N   -0.762638
    76  H    0.387269
    77  H    0.390170
    78  C    0.835709
    79  O   -0.552413
    80  H    0.423090
 Sum of Mulliken charges =   1.00000
 Mulliken charges with hydrogens summed into heavy atoms:
               1
     1  N   -0.088366
     4  C    0.107833
     6  C    0.643541
     7  C   -0.063567
    10  O   -0.553402
    11  C    0.148628
    12  C   -0.049117
    14  C   -0.060094
    16  C    0.018136
    18  C    0.013370
    20  C    0.017783
    22  N   -0.256100
    24  C    0.109088
    26  C    0.606793
    27  C    0.028448
    30  O   -0.527309
    31  C    0.049271
    33  C   -0.004862
    37  C   -0.005906
    41  N   -0.221574
    43  C    0.140443
    45  C    0.597851
    46  C   -0.039203
    49  O   -0.524998
    50  C    0.611487
    51  N   -0.036224
    54  O   -0.541502
    55  N   -0.247498
    57  C    0.156945
    59  C    0.590204
    60  C    0.043002
    63  O   -0.470817
    64  C    0.061624
    67  C    0.218198
    70  N   -0.223876
    72  N    0.030581
    75  N    0.014802
    78  C    0.835709
    79  O   -0.129322
 Electronic spatial extent (au):  <R**2>=          37003.7895
 Charge=              1.0000 electrons
 Dipole moment (field-independent basis, Debye):
    X=             16.5103    Y=             10.7658    Z=            -22.1066  Tot=             29.6175
 Quadrupole moment (field-independent basis, Debye-Ang):
   XX=            -67.9276   YY=           -195.8867   ZZ=             16.4061
   XY=             21.7293   XZ=           -181.4007   YZ=            -38.6502
 Traceless Quadrupole moment (field-independent basis, Debye-Ang):
   XX=             14.5418   YY=           -113.4173   ZZ=             98.8754
   XY=             21.7293   XZ=           -181.4007   YZ=            -38.6502
 Octapole moment (field-independent basis, Debye-Ang**2):
  XXX=            875.8178  YYY=          -1116.3464  ZZZ=          -1098.3541  XYY=            194.5517
  XXY=           -125.7277  XXZ=           -844.9207  XZZ=           1342.1855  YZZ=            161.2484
  YYZ=             43.3865  XYZ=           -394.3672
 Hexadecapole moment (field-independent basis, Debye-Ang**3):
 XXXX=         -15897.9614 YYYY=          -7867.7605 ZZZZ=          -4850.8270 XXXY=           2955.1287
 XXXZ=          -1391.7907 YYYX=           2561.9453 YYYZ=          -1629.9261 ZZZX=          -5441.8155
 ZZZY=          -4158.0067 XXYY=          -4144.3627 XXZZ=           2185.1919 YYZZ=          -2350.8203
 XXYZ=          -2098.5391 YYXZ=            527.8238 ZZXY=           2919.3298
 N-N= 4.489390872179D+03 E-N=-1.330240749275D+04  KE= 1.849116539481D+03
 Unable to Open any file for archive entry.
 1\1\GINC-VIM-000\SP\RB3LYP\6-31G(d)\C25H41N8O6(1+)\KENGMITH\19-Jun-202
 2\0\\# B3LYP/6-31G* guess=read geom=check nosymm integral(ultrafinegri
 d)\\Candidate Structure: Conf:95 Charge calc in gas phase\\1,1\N,0,-2.
 1752627496,1.6672930085,3.3299150898\H,0,-2.2902568899,2.0000320322,4.
 2867191265\H,0,-2.0691565332,0.6535130125,3.3698181125\C,0,-3.41523071
 96,1.9466649183,2.5790908338\H,0,-4.2998881547,1.5364507239,3.09638145
 01\C,0,-3.3048070432,1.1447818923,1.2671360293\C,0,-3.6215079072,3.468
 2129725,2.4298617643\H,0,-4.5461248717,3.6445882693,1.8646938886\H,0,-
 2.7876994322,3.8858096609,1.8525473265\O,0,-2.843802945,-0.0005668934,
 1.3026443917\C,0,-3.7285233266,4.1779536562,3.7661698256\C,0,-4.919190
 8484,4.1269774012,4.5056955009\H,0,-5.7811127976,3.5992904983,4.102048
 9345\C,0,-2.6386868148,4.877728354,4.3003782189\H,0,-1.7130129169,4.93
 77657253,3.7324214356\C,0,-5.0164499277,4.7548773586,5.7472310353\H,0,
 -5.9487433909,4.709439293,6.3032712037\C,0,-2.7329469483,5.5088041938,
 5.5425865692\H,0,-1.8794471633,6.0528645042,5.9378910083\C,0,-3.921973
 9793,5.4474963673,6.2699714018\H,0,-3.9984745888,5.9408934558,7.234672
 4296\N,0,-3.7375006647,1.7232951547,0.1175451246\H,0,-3.9410030025,2.7
 140160142,0.1212857391\C,0,-3.4883744524,1.1224491338,-1.2074652333\H,
 0,-3.5989202685,0.0430013991,-1.0833880428\C,0,-2.0201434123,1.4696166
 123,-1.5475144309\C,0,-4.4634041455,1.6600061043,-2.2555423177\H,0,-4.
 2737025006,2.7337696497,-2.3806460156\H,0,-4.1947829826,1.2008586796,-
 3.2165426076\O,0,-1.7111133053,2.5020557603,-2.1321354369\C,0,-5.95752
 02033,1.4105806722,-1.9705766154\H,0,-6.1999157139,1.8603115633,-0.996
 2736955\C,0,-6.8129124483,2.1128876392,-3.0359349412\H,0,-6.6181816708
 ,1.696750821,-4.0327145703\H,0,-7.8813846626,1.9880278945,-2.827639384
 7\H,0,-6.6014633391,3.1879928009,-3.0771354805\C,0,-6.3014830004,-0.08
 47763055,-1.8950859715\H,0,-6.042776116,-0.5943924089,-2.8325004801\H,
 0,-5.7747698711,-0.5928726756,-1.0795276606\H,0,-7.3749669733,-0.22703
 31347,-1.727484443\N,0,-1.1141976253,0.5947123719,-1.0195325889\H,0,-1
 .4923375606,-0.1533869436,-0.4486866211\C,0,0.2443098655,1.0146706856,
 -0.7451861188\H,0,0.2826684668,2.0800139614,-0.9991191793\C,0,1.282992
 1129,0.3235070629,-1.6490745514\C,0,0.5776804988,0.8268122703,0.769603
 0608\H,0,-0.3388989856,0.5871779494,1.311521462\H,0,1.2710782623,-0.01
 02714447,0.91031595\O,0,1.0007415583,-0.5211793994,-2.4897874424\C,0,1
 .2439403238,2.069904908,1.3424528299\N,0,0.6229072452,2.6328290805,2.3
 988043573\H,0,1.0348403105,3.4701026318,2.7902686599\H,0,-0.2996438305
 ,2.3240366071,2.7306971006\O,0,2.2847031023,2.5202555903,0.8445472979\
 N,0,2.5559791479,0.7774178649,-1.4327876402\H,0,2.70975098,1.434785068
 5,-0.6570307971\C,0,3.6734009617,0.1664355946,-2.116477089\H,0,3.29072
 14305,-0.7829337843,-2.5189383023\C,0,4.8228433417,-0.2017923418,-1.17
 84266971\C,0,4.2039766747,1.011119905,-3.2912114691\H,0,5.0848966028,0
 .4993631012,-3.6949441521\H,0,4.5560107382,1.9791448894,-2.910163516\O
 ,0,5.9820142808,-0.2739596808,-1.526754521\C,0,3.1366089241,1.23617201
 1,-4.3685416996\H,0,2.7133605097,0.2809891061,-4.7068536764\H,0,2.2942
 053907,1.7929520427,-3.9462732337\C,0,3.6422297711,2.0310968796,-5.573
 236865\H,0,2.8153938458,2.2381314232,-6.2641763619\H,0,4.0769702354,2.
 9831302079,-5.2469854475\N,0,4.6944835089,1.2751841284,-6.2874854582\H
 ,0,4.7213926862,0.2753068956,-6.1273615831\N,0,5.4355181355,3.03384134
 36,-7.6061492866\H,0,6.1988490189,3.5121656799,-8.0630561213\H,0,4.583
 4622315,3.5539132956,-7.4545058169\N,0,6.6192708024,1.0448278892,-7.56
 25581903\H,0,7.1540771741,1.3041640225,-8.3792221876\H,0,6.8837356347,
 0.1941576824,-7.0859466926\C,0,5.5738075649,1.7815151188,-7.146778588\
 O,0,4.4052889891,-0.4822895392,0.0705501294\H,0,5.2006605362,-0.727559
 9549,0.5814442445\\Version=ES64L-G16RevC.01\HF=-1866.6138836\RMSD=8.12
 3e-09\Dipole=6.9791308,0.9210015,-7.4407041\Quadrupole=10.8114913,-84.
 322964,73.5114728,16.1551704,-134.8669762,-28.7354882\PG=C01 [X(C25H41
 N8O6)]\\@
 The archive entry for this job was punched.


 REALITY IS FOR PEOPLE WHO CAN'T FACE SCIENCE FICTION.
 Job cpu time:       0 days  0 hours  2 minutes  9.9 seconds.
 Elapsed time:       0 days  0 hours  0 minutes 33.3 seconds.
 File lengths (MBytes):  RWF=    344 Int=      0 D2E=      0 Chk=     48 Scr=     16
 Normal termination of Gaussian 16 at Sun Jun 19 01:46:54 2022.
