 Entering Gaussian System, Link 0=/opt/software/Gaussian/g16-AVX-C.01/g16/g16
 Input=charge-conf-651.com
 Output=charge-conf-651.log
 Initial command:
 /opt/software/Gaussian/g16-AVX-C.01/g16/l1.exe "/mnt/gs18/scratch/users/kengmith/Gau-4889.inp" -scrdir="/mnt/gs18/scratch/users/kengmith/"
 Entering Link 1 = /opt/software/Gaussian/g16-AVX-C.01/g16/l1.exe PID=      4902.
  
 Copyright (c) 1988-2019, Gaussian, Inc.  All Rights Reserved.
  
 This is part of the Gaussian(R) 16 program.  It is based on
 the Gaussian(R) 09 system (copyright 2009, Gaussian, Inc.),
 the Gaussian(R) 03 system (copyright 2003, Gaussian, Inc.),
 the Gaussian(R) 98 system (copyright 1998, Gaussian, Inc.),
 the Gaussian(R) 94 system (copyright 1995, Gaussian, Inc.),
 the Gaussian 92(TM) system (copyright 1992, Gaussian, Inc.),
 the Gaussian 90(TM) system (copyright 1990, Gaussian, Inc.),
 the Gaussian 88(TM) system (copyright 1988, Gaussian, Inc.),
 the Gaussian 86(TM) system (copyright 1986, Carnegie Mellon
 University), and the Gaussian 82(TM) system (copyright 1983,
 Carnegie Mellon University). Gaussian is a federally registered
 trademark of Gaussian, Inc.
  
 This software contains proprietary and confidential information,
 including trade secrets, belonging to Gaussian, Inc.
  
 This software is provided under written license and may be
 used, copied, transmitted, or stored only in accord with that
 written license.
  
 The following legend is applicable only to US Government
 contracts under FAR:
  
                    RESTRICTED RIGHTS LEGEND
  
 Use, reproduction and disclosure by the US Government is
 subject to restrictions as set forth in subparagraphs (a)
 and (c) of the Commercial Computer Software - Restricted
 Rights clause in FAR 52.227-19.
  
 Gaussian, Inc.
 340 Quinnipiac St., Bldg. 40, Wallingford CT 06492
  
  
 ---------------------------------------------------------------
 Warning -- This program may not be used in any manner that
 competes with the business of Gaussian, Inc. or will provide
 assistance to any competitor of Gaussian, Inc.  The licensee
 of this program is prohibited from giving any competitor of
 Gaussian, Inc. access to this program.  By using this program,
 the user acknowledges that Gaussian, Inc. is engaged in the
 business of creating and licensing software in the field of
 computational chemistry and represents and warrants to the
 licensee that it is not a competitor of Gaussian, Inc. and that
 it will not use this program in any manner prohibited above.
 ---------------------------------------------------------------
  

 Cite this work as:
 Gaussian 16, Revision C.01,
 M. J. Frisch, G. W. Trucks, H. B. Schlegel, G. E. Scuseria, 
 M. A. Robb, J. R. Cheeseman, G. Scalmani, V. Barone, 
 G. A. Petersson, H. Nakatsuji, X. Li, M. Caricato, A. V. Marenich, 
 J. Bloino, B. G. Janesko, R. Gomperts, B. Mennucci, H. P. Hratchian, 
 J. V. Ortiz, A. F. Izmaylov, J. L. Sonnenberg, D. Williams-Young, 
 F. Ding, F. Lipparini, F. Egidi, J. Goings, B. Peng, A. Petrone, 
 T. Henderson, D. Ranasinghe, V. G. Zakrzewski, J. Gao, N. Rega, 
 G. Zheng, W. Liang, M. Hada, M. Ehara, K. Toyota, R. Fukuda, 
 J. Hasegawa, M. Ishida, T. Nakajima, Y. Honda, O. Kitao, H. Nakai, 
 T. Vreven, K. Throssell, J. A. Montgomery, Jr., J. E. Peralta, 
 F. Ogliaro, M. J. Bearpark, J. J. Heyd, E. N. Brothers, K. N. Kudin, 
 V. N. Staroverov, T. A. Keith, R. Kobayashi, J. Normand, 
 K. Raghavachari, A. P. Rendell, J. C. Burant, S. S. Iyengar, 
 J. Tomasi, M. Cossi, J. M. Millam, M. Klene, C. Adamo, R. Cammi, 
 J. W. Ochterski, R. L. Martin, K. Morokuma, O. Farkas, 
 J. B. Foresman, and D. J. Fox, Gaussian, Inc., Wallingford CT, 2019.
 
 ******************************************
 Gaussian 16:  ES64L-G16RevC.01  3-Jul-2019
                 2-Jun-2022 
 ******************************************
 %mem=8gb
 %nproc=4
 Will use up to    4 processors via shared memory.
 %chk=conf-651.chk
 ----------------------------------------------------------------------
 # B3LYP/6-31G* empiricaldispersion=gd3 guess=read geom=check nosymm in
 tegral(ultrafinegrid)
 ----------------------------------------------------------------------
 1/29=2,38=1,172=1/1;
 2/12=2,15=1,40=1/2;
 3/5=1,6=6,7=1,11=2,14=-4,25=1,30=1,74=-5,75=-5,116=-2,124=31/1,2,3;
 4/5=1/1;
 5/5=2,38=6/2;
 6/7=2,8=2,9=2,10=2,28=1/1;
 99/5=1,9=1/99;
 ------------------------------------------------------
 Candidate Structure: Conf:651 Charge calc in gas phase
 ------------------------------------------------------
 Structure from the checkpoint file:  "conf-651.chk"
 Charge =  1 Multiplicity = 1
 Redundant internal coordinates found in file.  (old form).
 N,0,-5.855357313,-0.0575512826,3.9215341192
 H,0,-5.787531331,-0.7850814507,4.6381102154
 H,0,-6.6644682044,0.5320221924,4.1334260623
 H,0,-5.96464468,-0.5072136399,2.9475899291
 C,0,-4.5792640793,0.7136633699,3.7209022481
 H,0,-3.8269961572,0.3831730433,4.4392489387
 H,0,-4.765793616,1.7799018837,3.858859431
 C,0,-4.1804264936,0.3791952497,2.2560247423
 O,0,-4.9508327702,-0.3705731256,1.6326563912
 N,0,-3.069085535,0.9337158606,1.8116185138
 H,0,-2.413084497,1.4136805927,2.4381258362
 C,0,-2.4434135005,0.6691912907,0.5116219095
 H,0,-2.6961127592,-0.3493086407,0.2033821888
 C,0,-0.9281217354,0.7923807945,0.7996283561
 C,0,-2.8698997764,1.6907629551,-0.5627118936
 H,0,-2.6014623156,2.6894916304,-0.193498148
 H,0,-2.2536841291,1.5138614462,-1.454149023
 O,0,-0.5466952467,1.3330719279,1.8451830164
 C,0,-4.354975679,1.6603887078,-0.9694494617
 H,0,-4.9635887714,1.781894568,-0.0613351955
 C,0,-4.6511581399,2.8463633906,-1.8998353215
 H,0,-4.06292754,2.7729347773,-2.8230291485
 H,0,-5.7092420564,2.8661891541,-2.1823767198
 H,0,-4.409760797,3.8042102098,-1.4240598135
 C,0,-4.7452428178,0.3332905905,-1.6352068539
 H,0,-4.12867789,0.1491624194,-2.5242695303
 H,0,-4.6383039879,-0.5164636591,-0.9542773309
 H,0,-5.7912584728,0.3597633239,-1.9594962355
 N,0,-0.1219830492,0.3195041654,-0.1543577333
 H,0,-0.4765317774,-0.0904012609,-1.0169192653
 C,0,1.3319050778,0.4321642781,-0.1238011721
 H,0,1.5947154966,1.4359093131,0.2295396482
 C,0,1.7696789147,0.2442154444,-1.5892706595
 C,0,1.9609021505,-0.6145709433,0.8449626534
 H,0,1.412881461,-0.4710746867,1.7848301248
 O,0,1.0054116402,-0.2804500864,-2.4049458353
 C,0,1.7392565225,-2.0517361855,0.3573689013
 H,0,2.291341034,-2.2475742027,-0.5690485844
 H,0,2.0883184694,-2.766059715,1.1103984413
 H,0,0.6804347355,-2.2541531747,0.1633041473
 C,0,3.4439734577,-0.3377925259,1.1292095447
 H,0,4.0794686826,-0.5417422257,0.2611049289
 H,0,3.7926380009,-0.9824041568,1.9428471724
 H,0,3.6097126054,0.7014715552,1.4396951878
 N,0,3.012618218,0.6573471813,-1.8924638368
 H,0,3.6381455546,1.0160939217,-1.179070957
 C,0,3.647209417,0.3686259018,-3.1715532685
 H,0,3.3687199612,-0.6434495473,-3.4846274491
 C,0,5.1508897417,0.4549439124,-2.952882561
 C,0,3.2151048123,1.3518162414,-4.2889663416
 H,0,3.5323858736,0.9275278211,-5.2472420185
 H,0,2.1201067351,1.3435261752,-4.2834332681
 O,0,5.8352120448,0.186113991,-4.0497519588
 C,0,3.7266163625,2.8063506489,-4.1677126937
 H,0,3.7004214856,3.1206367146,-3.1150099744
 H,0,2.9909973739,3.4394267238,-4.6762739312
 C,0,5.1229408627,3.1172837381,-4.7883211868
 H,0,5.365071179,2.3422619905,-5.5248621156
 H,0,5.0370019295,4.0503954257,-5.3553837935
 C,0,6.3186412082,3.2649324183,-3.8077981304
 H,0,6.7124976788,4.2892265878,-3.8511554755
 H,0,6.0002843723,3.0868420552,-2.7786686616
 N,0,7.3970282116,2.2767177778,-4.0856203837
 H,0,8.1244214371,2.3473053148,-3.3750396856
 H,0,6.6646020772,0.8083077488,-4.0425479046
 H,0,7.8393876274,2.4805078171,-4.9818468624
 O,0,5.631516545,0.8526777176,-1.8990319143
 Recover connectivity data from disk.
                           ----------------------------
                           !    Current Parameters    !
                           ! (Angstroms and Degrees)  !
 --------------------------                            --------------------------
 ! Name  Definition              Value                                          !
 --------------------------------------------------------------------------------
 ! R1    R(1,2)                  1.0234                                         !
 ! R2    R(1,3)                  1.0233                                         !
 ! R3    R(1,4)                  1.0783                                         !
 ! R4    R(1,5)                  1.5045                                         !
 ! R5    R(5,6)                  1.0914                                         !
 ! R6    R(5,7)                  1.0912                                         !
 ! R7    R(5,8)                  1.5546                                         !
 ! R8    R(8,9)                  1.2427                                         !
 ! R9    R(8,10)                 1.3191                                         !
 ! R10   R(10,11)                1.0263                                         !
 ! R11   R(10,12)                1.4668                                         !
 ! R12   R(12,13)                1.0937                                         !
 ! R13   R(12,14)                1.5473                                         !
 ! R14   R(12,15)                1.5426                                         !
 ! R15   R(14,18)                1.2373                                         !
 ! R16   R(14,29)                1.3355                                         !
 ! R17   R(15,16)                1.0981                                         !
 ! R18   R(15,17)                1.098                                          !
 ! R19   R(15,19)                1.5401                                         !
 ! R20   R(19,20)                1.0999                                         !
 ! R21   R(19,21)                1.5362                                         !
 ! R22   R(19,25)                1.5352                                         !
 ! R23   R(21,22)                1.0971                                         !
 ! R24   R(21,23)                1.0953                                         !
 ! R25   R(21,24)                1.0964                                         !
 ! R26   R(25,26)                1.0975                                         !
 ! R27   R(25,27)                1.0942                                         !
 ! R28   R(25,28)                1.0955                                         !
 ! R29   R(29,30)                1.0187                                         !
 ! R30   R(29,31)                1.4586                                         !
 ! R31   R(31,32)                1.0961                                         !
 ! R32   R(31,33)                1.541                                          !
 ! R33   R(31,34)                1.5588                                         !
 ! R34   R(33,36)                1.2348                                         !
 ! R35   R(33,45)                1.3444                                         !
 ! R36   R(34,35)                1.0974                                         !
 ! R37   R(34,37)                1.5337                                         !
 ! R38   R(34,41)                1.5352                                         !
 ! R39   R(37,38)                1.0961                                         !
 ! R40   R(37,39)                1.0951                                         !
 ! R41   R(37,40)                1.0953                                         !
 ! R42   R(41,42)                1.095                                          !
 ! R43   R(41,43)                1.095                                          !
 ! R44   R(41,44)                1.0972                                         !
 ! R45   R(45,46)                1.0144                                         !
 ! R46   R(45,47)                1.4568                                         !
 ! R47   R(47,48)                1.0954                                         !
 ! R48   R(47,49)                1.5219                                         !
 ! R49   R(47,50)                1.5498                                         !
 ! R50   R(49,53)                1.3205                                         !
 ! R51   R(49,67)                1.2247                                         !
 ! R52   R(50,51)                1.095                                          !
 ! R53   R(50,52)                1.095                                          !
 ! R54   R(50,54)                1.5466                                         !
 ! R55   R(54,55)                1.0989                                         !
 ! R56   R(54,56)                1.0957                                         !
 ! R57   R(54,57)                1.5593                                         !
 ! R58   R(57,58)                1.0963                                         !
 ! R59   R(57,59)                1.0953                                         !
 ! R60   R(57,60)                1.5534                                         !
 ! R61   R(60,61)                1.0983                                         !
 ! R62   R(60,62)                1.0919                                         !
 ! R63   R(60,63)                1.4888                                         !
 ! R64   R(63,64)                1.0193                                         !
 ! R65   R(63,65)                1.6415                                         !
 ! R66   R(63,66)                1.02                                           !
 ! A1    A(2,1,3)              108.481                                          !
 ! A2    A(2,1,4)              110.041                                          !
 ! A3    A(2,1,5)              113.6763                                         !
 ! A4    A(3,1,4)              110.3132                                         !
 ! A5    A(3,1,5)              113.7615                                         !
 ! A6    A(4,1,5)              100.328                                          !
 ! A7    A(1,5,6)              109.9767                                         !
 ! A8    A(1,5,7)              109.8185                                         !
 ! A9    A(1,5,8)              103.4726                                         !
 ! A10   A(6,5,7)              109.2992                                         !
 ! A11   A(6,5,8)              112.2232                                         !
 ! A12   A(7,5,8)              111.914                                          !
 ! A13   A(5,8,9)              116.3232                                         !
 ! A14   A(5,8,10)             116.3052                                         !
 ! A15   A(9,8,10)             127.3683                                         !
 ! A16   A(8,10,11)            121.9693                                         !
 ! A17   A(8,10,12)            125.6021                                         !
 ! A18   A(11,10,12)           110.655                                          !
 ! A19   A(10,12,13)           108.6127                                         !
 ! A20   A(10,12,14)           103.7924                                         !
 ! A21   A(10,12,15)           112.3265                                         !
 ! A22   A(13,12,14)           110.6623                                         !
 ! A23   A(13,12,15)           110.8877                                         !
 ! A24   A(14,12,15)           110.3435                                         !
 ! A25   A(12,14,18)           119.6005                                         !
 ! A26   A(12,14,29)           115.466                                          !
 ! A27   A(18,14,29)           124.9079                                         !
 ! A28   A(12,15,16)           107.4909                                         !
 ! A29   A(12,15,17)           107.6712                                         !
 ! A30   A(12,15,19)           115.9423                                         !
 ! A31   A(16,15,17)           106.3979                                         !
 ! A32   A(16,15,19)           110.027                                          !
 ! A33   A(17,15,19)           108.879                                          !
 ! A34   A(15,19,20)           108.2604                                         !
 ! A35   A(15,19,21)           109.308                                          !
 ! A36   A(15,19,25)           112.131                                          !
 ! A37   A(20,19,21)           107.9425                                         !
 ! A38   A(20,19,25)           108.2326                                         !
 ! A39   A(21,19,25)           110.8378                                         !
 ! A40   A(19,21,22)           110.7681                                         !
 ! A41   A(19,21,23)           110.8821                                         !
 ! A42   A(19,21,24)           111.666                                          !
 ! A43   A(22,21,23)           107.5823                                         !
 ! A44   A(22,21,24)           107.7924                                         !
 ! A45   A(23,21,24)           107.9872                                         !
 ! A46   A(19,25,26)           110.7031                                         !
 ! A47   A(19,25,27)           112.1254                                         !
 ! A48   A(19,25,28)           110.5018                                         !
 ! A49   A(26,25,27)           108.5987                                         !
 ! A50   A(26,25,28)           107.4987                                         !
 ! A51   A(27,25,28)           107.237                                          !
 ! A52   A(14,29,30)           122.4956                                         !
 ! A53   A(14,29,31)           124.0124                                         !
 ! A54   A(30,29,31)           113.3124                                         !
 ! A55   A(29,31,32)           108.4506                                         !
 ! A56   A(29,31,33)           104.7046                                         !
 ! A57   A(29,31,34)           111.3077                                         !
 ! A58   A(32,31,33)           110.4962                                         !
 ! A59   A(32,31,34)           108.5321                                         !
 ! A60   A(33,31,34)           113.2349                                         !
 ! A61   A(31,33,36)           120.2785                                         !
 ! A62   A(31,33,45)           116.0805                                         !
 ! A63   A(36,33,45)           123.6292                                         !
 ! A64   A(31,34,35)           104.0612                                         !
 ! A65   A(31,34,37)           111.9216                                         !
 ! A66   A(31,34,41)           112.5703                                         !
 ! A67   A(35,34,37)           108.8226                                         !
 ! A68   A(35,34,41)           107.474                                          !
 ! A69   A(37,34,41)           111.5555                                         !
 ! A70   A(34,37,38)           111.3051                                         !
 ! A71   A(34,37,39)           110.2772                                         !
 ! A72   A(34,37,40)           111.6657                                         !
 ! A73   A(38,37,39)           107.7046                                         !
 ! A74   A(38,37,40)           107.7061                                         !
 ! A75   A(39,37,40)           108.0246                                         !
 ! A76   A(34,41,42)           112.3509                                         !
 ! A77   A(34,41,43)           109.8179                                         !
 ! A78   A(34,41,44)           111.6583                                         !
 ! A79   A(42,41,43)           107.1351                                         !
 ! A80   A(42,41,44)           108.245                                          !
 ! A81   A(43,41,44)           107.4104                                         !
 ! A82   A(33,45,46)           121.3453                                         !
 ! A83   A(33,45,47)           122.673                                          !
 ! A84   A(46,45,47)           114.7704                                         !
 ! A85   A(45,47,48)           108.8641                                         !
 ! A86   A(45,47,49)           107.0374                                         !
 ! A87   A(45,47,50)           112.6978                                         !
 ! A88   A(48,47,49)           110.1607                                         !
 ! A89   A(48,47,50)           108.0101                                         !
 ! A90   A(49,47,50)           110.0641                                         !
 ! A91   A(47,49,53)           112.4031                                         !
 ! A92   A(47,49,67)           121.9923                                         !
 ! A93   A(53,49,67)           125.2771                                         !
 ! A94   A(47,50,51)           107.7205                                         !
 ! A95   A(47,50,52)           105.6851                                         !
 ! A96   A(47,50,54)           116.6077                                         !
 ! A97   A(51,50,52)           106.932                                          !
 ! A98   A(51,50,54)           109.7061                                         !
 ! A99   A(52,50,54)           109.721                                          !
 ! A100  A(50,54,55)           109.6446                                         !
 ! A101  A(50,54,56)           106.5561                                         !
 ! A102  A(50,54,57)           116.9029                                         !
 ! A103  A(55,54,56)           105.2704                                         !
 ! A104  A(55,54,57)           110.2166                                         !
 ! A105  A(56,54,57)           107.5325                                         !
 ! A106  A(54,57,58)           108.9176                                         !
 ! A107  A(54,57,59)           107.7985                                         !
 ! A108  A(54,57,60)           117.1942                                         !
 ! A109  A(58,57,59)           105.77                                           !
 ! A110  A(58,57,60)           108.7407                                         !
 ! A111  A(59,57,60)           107.8319                                         !
 ! A112  A(57,60,61)           109.8632                                         !
 ! A113  A(57,60,62)           110.7945                                         !
 ! A114  A(57,60,63)           112.1269                                         !
 ! A115  A(61,60,62)           107.0912                                         !
 ! A116  A(61,60,63)           110.605                                          !
 ! A117  A(62,60,63)           106.189                                          !
 ! A118  A(60,63,64)           109.9272                                         !
 ! A119  A(60,63,65)           105.4071                                         !
 ! A120  A(60,63,66)           110.2101                                         !
 ! A121  A(64,63,65)           111.2269                                         !
 ! A122  A(64,63,66)           106.81                                           !
 ! A123  A(65,63,66)           113.2836                                         !
 ! D1    D(2,1,5,6)             -3.6413                                         !
 ! D2    D(2,1,5,7)           -123.9595                                         !
 ! D3    D(2,1,5,8)            116.4186                                         !
 ! D4    D(3,1,5,6)            121.1942                                         !
 ! D5    D(3,1,5,7)              0.876                                          !
 ! D6    D(3,1,5,8)           -118.746                                          !
 ! D7    D(4,1,5,6)           -121.045                                          !
 ! D8    D(4,1,5,7)            118.6368                                         !
 ! D9    D(4,1,5,8)             -0.9852                                         !
 ! D10   D(1,5,8,9)              0.8661                                         !
 ! D11   D(1,5,8,10)          -179.7546                                         !
 ! D12   D(6,5,8,9)            119.3802                                         !
 ! D13   D(6,5,8,10)           -61.2405                                         !
 ! D14   D(7,5,8,9)           -117.3087                                         !
 ! D15   D(7,5,8,10)            62.0706                                         !
 ! D16   D(5,8,10,11)           11.0048                                         !
 ! D17   D(5,8,10,12)          174.3917                                         !
 ! D18   D(9,8,10,11)         -169.6953                                         !
 ! D19   D(9,8,10,12)           -6.3083                                         !
 ! D20   D(8,10,12,13)         -28.531                                          !
 ! D21   D(8,10,12,14)        -146.31                                           !
 ! D22   D(8,10,12,15)          94.4943                                         !
 ! D23   D(11,10,12,13)        136.4461                                         !
 ! D24   D(11,10,12,14)         18.6671                                         !
 ! D25   D(11,10,12,15)       -100.5286                                         !
 ! D26   D(10,12,14,18)        -15.4274                                         !
 ! D27   D(10,12,14,29)        166.3209                                         !
 ! D28   D(13,12,14,18)       -131.775                                          !
 ! D29   D(13,12,14,29)         49.9734                                         !
 ! D30   D(15,12,14,18)        105.1169                                         !
 ! D31   D(15,12,14,29)        -73.1347                                         !
 ! D32   D(10,12,15,16)         57.663                                          !
 ! D33   D(10,12,15,17)        171.9335                                         !
 ! D34   D(10,12,15,19)        -65.8828                                         !
 ! D35   D(13,12,15,16)        179.4002                                         !
 ! D36   D(13,12,15,17)        -66.3293                                         !
 ! D37   D(13,12,15,19)         55.8544                                         !
 ! D38   D(14,12,15,16)        -57.623                                          !
 ! D39   D(14,12,15,17)         56.6474                                         !
 ! D40   D(14,12,15,19)        178.8312                                         !
 ! D41   D(12,14,29,30)          0.3356                                         !
 ! D42   D(12,14,29,31)        175.1368                                         !
 ! D43   D(18,14,29,30)       -177.8106                                         !
 ! D44   D(18,14,29,31)         -3.0094                                         !
 ! D45   D(12,15,19,20)         55.3172                                         !
 ! D46   D(12,15,19,21)        172.6611                                         !
 ! D47   D(12,15,19,25)        -64.014                                          !
 ! D48   D(16,15,19,20)        -66.896                                          !
 ! D49   D(16,15,19,21)         50.4479                                         !
 ! D50   D(16,15,19,25)        173.7728                                         !
 ! D51   D(17,15,19,20)        176.8592                                         !
 ! D52   D(17,15,19,21)        -65.7968                                         !
 ! D53   D(17,15,19,25)         57.528                                          !
 ! D54   D(15,19,21,22)         62.2629                                         !
 ! D55   D(15,19,21,23)       -178.3666                                         !
 ! D56   D(15,19,21,24)        -57.8893                                         !
 ! D57   D(20,19,21,22)        179.8069                                         !
 ! D58   D(20,19,21,23)        -60.8225                                         !
 ! D59   D(20,19,21,24)         59.6547                                         !
 ! D60   D(25,19,21,22)        -61.825                                          !
 ! D61   D(25,19,21,23)         57.5456                                         !
 ! D62   D(25,19,21,24)        178.0228                                         !
 ! D63   D(15,19,25,26)        -58.1183                                         !
 ! D64   D(15,19,25,27)         63.3291                                         !
 ! D65   D(15,19,25,28)       -177.0976                                         !
 ! D66   D(20,19,25,26)       -177.4659                                         !
 ! D67   D(20,19,25,27)        -56.0185                                         !
 ! D68   D(20,19,25,28)         63.5548                                         !
 ! D69   D(21,19,25,26)         64.3422                                         !
 ! D70   D(21,19,25,27)       -174.2104                                         !
 ! D71   D(21,19,25,28)        -54.6372                                         !
 ! D72   D(14,29,31,32)        -41.7286                                         !
 ! D73   D(14,29,31,33)       -159.7094                                         !
 ! D74   D(14,29,31,34)         77.5972                                         !
 ! D75   D(30,29,31,32)        133.4978                                         !
 ! D76   D(30,29,31,33)         15.517                                          !
 ! D77   D(30,29,31,34)       -107.1765                                         !
 ! D78   D(29,31,33,36)        -18.6146                                         !
 ! D79   D(29,31,33,45)        162.5896                                         !
 ! D80   D(32,31,33,36)       -135.1926                                         !
 ! D81   D(32,31,33,45)         46.0116                                         !
 ! D82   D(34,31,33,36)        102.8188                                         !
 ! D83   D(34,31,33,45)        -75.977                                          !
 ! D84   D(29,31,34,35)        -51.8683                                         !
 ! D85   D(29,31,34,37)         65.4753                                         !
 ! D86   D(29,31,34,41)       -167.9294                                         !
 ! D87   D(32,31,34,35)         67.4089                                         !
 ! D88   D(32,31,34,37)       -175.2475                                         !
 ! D89   D(32,31,34,41)        -48.6522                                         !
 ! D90   D(33,31,34,35)       -169.5112                                         !
 ! D91   D(33,31,34,37)        -52.1677                                         !
 ! D92   D(33,31,34,41)         74.4277                                         !
 ! D93   D(31,33,45,46)          3.7062                                         !
 ! D94   D(31,33,45,47)        170.4694                                         !
 ! D95   D(36,33,45,46)       -175.0448                                         !
 ! D96   D(36,33,45,47)         -8.2817                                         !
 ! D97   D(31,34,37,38)         67.0001                                         !
 ! D98   D(31,34,37,39)       -173.5233                                         !
 ! D99   D(31,34,37,40)        -53.4098                                         !
 ! D100  D(35,34,37,38)       -178.5518                                         !
 ! D101  D(35,34,37,39)        -59.0752                                         !
 ! D102  D(35,34,37,40)         61.0383                                         !
 ! D103  D(41,34,37,38)        -60.1437                                         !
 ! D104  D(41,34,37,39)         59.3329                                         !
 ! D105  D(41,34,37,40)        179.4464                                         !
 ! D106  D(31,34,41,42)        -70.9035                                         !
 ! D107  D(31,34,41,43)        169.9668                                         !
 ! D108  D(31,34,41,44)         50.9334                                         !
 ! D109  D(35,34,41,42)        175.0996                                         !
 ! D110  D(35,34,41,43)         55.9698                                         !
 ! D111  D(35,34,41,44)        -63.0635                                         !
 ! D112  D(37,34,41,42)         55.8877                                         !
 ! D113  D(37,34,41,43)        -63.242                                          !
 ! D114  D(37,34,41,44)        177.7246                                         !
 ! D115  D(33,45,47,48)        -37.8406                                         !
 ! D116  D(33,45,47,49)       -156.895                                          !
 ! D117  D(33,45,47,50)         81.9661                                         !
 ! D118  D(46,45,47,48)        129.722                                          !
 ! D119  D(46,45,47,49)         10.6676                                         !
 ! D120  D(46,45,47,50)       -110.4714                                         !
 ! D121  D(45,47,49,53)        178.8836                                         !
 ! D122  D(45,47,49,67)         -7.3639                                         !
 ! D123  D(48,47,49,53)         60.6708                                         !
 ! D124  D(48,47,49,67)       -125.5767                                         !
 ! D125  D(50,47,49,53)        -58.3249                                         !
 ! D126  D(50,47,49,67)        115.4277                                         !
 ! D127  D(45,47,50,51)       -166.3595                                         !
 ! D128  D(45,47,50,52)        -52.3244                                         !
 ! D129  D(45,47,50,54)         69.8617                                         !
 ! D130  D(48,47,50,51)        -46.0608                                         !
 ! D131  D(48,47,50,52)         67.9743                                         !
 ! D132  D(48,47,50,54)       -169.8396                                         !
 ! D133  D(49,47,50,51)         74.2421                                         !
 ! D134  D(49,47,50,52)       -171.7228                                         !
 ! D135  D(49,47,50,54)        -49.5366                                         !
 ! D136  D(47,50,54,55)        -39.1343                                         !
 ! D137  D(47,50,54,56)       -152.579                                          !
 ! D138  D(47,50,54,57)         87.2056                                         !
 ! D139  D(51,50,54,55)       -161.8877                                         !
 ! D140  D(51,50,54,56)         84.6676                                         !
 ! D141  D(51,50,54,57)        -35.5478                                         !
 ! D142  D(52,50,54,55)         80.9172                                         !
 ! D143  D(52,50,54,56)        -32.5274                                         !
 ! D144  D(52,50,54,57)       -152.7428                                         !
 ! D145  D(50,54,57,58)         20.3009                                         !
 ! D146  D(50,54,57,59)        134.6165                                         !
 ! D147  D(50,54,57,60)       -103.6118                                         !
 ! D148  D(55,54,57,58)        146.3574                                         !
 ! D149  D(55,54,57,59)        -99.327                                          !
 ! D150  D(55,54,57,60)         22.4448                                         !
 ! D151  D(56,54,57,58)        -99.3951                                         !
 ! D152  D(56,54,57,59)         14.9205                                         !
 ! D153  D(56,54,57,60)        136.6922                                         !
 ! D154  D(54,57,60,61)       -116.0618                                         !
 ! D155  D(54,57,60,62)          2.0667                                         !
 ! D156  D(54,57,60,63)        120.5143                                         !
 ! D157  D(58,57,60,61)        119.936                                          !
 ! D158  D(58,57,60,62)       -121.9355                                         !
 ! D159  D(58,57,60,63)         -3.4879                                         !
 ! D160  D(59,57,60,61)          5.6926                                         !
 ! D161  D(59,57,60,62)        123.8211                                         !
 ! D162  D(59,57,60,63)       -117.7313                                         !
 ! D163  D(57,60,63,64)       -174.9785                                         !
 ! D164  D(57,60,63,65)        -55.0193                                         !
 ! D165  D(57,60,63,66)         67.5532                                         !
 ! D166  D(61,60,63,64)         62.0152                                         !
 ! D167  D(61,60,63,65)       -178.0256                                         !
 ! D168  D(61,60,63,66)        -55.4531                                         !
 ! D169  D(62,60,63,64)        -53.8398                                         !
 ! D170  D(62,60,63,65)         66.1194                                         !
 ! D171  D(62,60,63,66)       -171.3081                                         !
 --------------------------------------------------------------------------------
 Symmetry turned off by external request.
 Stoichiometry    C19H38N5O5(1+)
 Framework group  C1[X(C19H38N5O5)]
 Deg. of freedom   195
 Full point group                 C1      NOp   1
                          Input orientation:                          
 ---------------------------------------------------------------------
 Center     Atomic      Atomic             Coordinates (Angstroms)
 Number     Number       Type             X           Y           Z
 ---------------------------------------------------------------------
      1          7           0       -5.855357   -0.057551    3.921534
      2          1           0       -5.787531   -0.785081    4.638110
      3          1           0       -6.664468    0.532022    4.133426
      4          1           0       -5.964645   -0.507214    2.947590
      5          6           0       -4.579264    0.713663    3.720902
      6          1           0       -3.826996    0.383173    4.439249
      7          1           0       -4.765794    1.779902    3.858859
      8          6           0       -4.180426    0.379195    2.256025
      9          8           0       -4.950833   -0.370573    1.632656
     10          7           0       -3.069086    0.933716    1.811619
     11          1           0       -2.413084    1.413681    2.438126
     12          6           0       -2.443414    0.669191    0.511622
     13          1           0       -2.696113   -0.349309    0.203382
     14          6           0       -0.928122    0.792381    0.799628
     15          6           0       -2.869900    1.690763   -0.562712
     16          1           0       -2.601462    2.689492   -0.193498
     17          1           0       -2.253684    1.513861   -1.454149
     18          8           0       -0.546695    1.333072    1.845183
     19          6           0       -4.354976    1.660389   -0.969449
     20          1           0       -4.963589    1.781895   -0.061335
     21          6           0       -4.651158    2.846363   -1.899835
     22          1           0       -4.062928    2.772935   -2.823029
     23          1           0       -5.709242    2.866189   -2.182377
     24          1           0       -4.409761    3.804210   -1.424060
     25          6           0       -4.745243    0.333291   -1.635207
     26          1           0       -4.128678    0.149162   -2.524270
     27          1           0       -4.638304   -0.516464   -0.954277
     28          1           0       -5.791258    0.359763   -1.959496
     29          7           0       -0.121983    0.319504   -0.154358
     30          1           0       -0.476532   -0.090401   -1.016919
     31          6           0        1.331905    0.432164   -0.123801
     32          1           0        1.594715    1.435909    0.229540
     33          6           0        1.769679    0.244215   -1.589271
     34          6           0        1.960902   -0.614571    0.844963
     35          1           0        1.412881   -0.471075    1.784830
     36          8           0        1.005412   -0.280450   -2.404946
     37          6           0        1.739257   -2.051736    0.357369
     38          1           0        2.291341   -2.247574   -0.569049
     39          1           0        2.088318   -2.766060    1.110398
     40          1           0        0.680435   -2.254153    0.163304
     41          6           0        3.443973   -0.337793    1.129210
     42          1           0        4.079469   -0.541742    0.261105
     43          1           0        3.792638   -0.982404    1.942847
     44          1           0        3.609713    0.701472    1.439695
     45          7           0        3.012618    0.657347   -1.892464
     46          1           0        3.638146    1.016094   -1.179071
     47          6           0        3.647209    0.368626   -3.171553
     48          1           0        3.368720   -0.643450   -3.484627
     49          6           0        5.150890    0.454944   -2.952883
     50          6           0        3.215105    1.351816   -4.288966
     51          1           0        3.532386    0.927528   -5.247242
     52          1           0        2.120107    1.343526   -4.283433
     53          8           0        5.835212    0.186114   -4.049752
     54          6           0        3.726616    2.806351   -4.167713
     55          1           0        3.700421    3.120637   -3.115010
     56          1           0        2.990997    3.439427   -4.676274
     57          6           0        5.122941    3.117284   -4.788321
     58          1           0        5.365071    2.342262   -5.524862
     59          1           0        5.037002    4.050395   -5.355384
     60          6           0        6.318641    3.264932   -3.807798
     61          1           0        6.712498    4.289227   -3.851155
     62          1           0        6.000284    3.086842   -2.778669
     63          7           0        7.397028    2.276718   -4.085620
     64          1           0        8.124421    2.347305   -3.375040
     65          1           0        6.664602    0.808308   -4.042548
     66          1           0        7.839388    2.480508   -4.981847
     67          8           0        5.631517    0.852678   -1.899032
 ---------------------------------------------------------------------
 Rotational constants (GHZ):           0.3155010           0.0572395           0.0522624
 Standard basis: 6-31G(d) (6D, 7F)
   511 basis functions,   964 primitive gaussians,   511 cartesian basis functions
   113 alpha electrons      113 beta electrons
       nuclear repulsion energy      2985.1964603702 Hartrees.
 NAtoms=   67 NActive=   67 NUniq=   67 SFac= 1.00D+00 NAtFMM=   60 NAOKFM=T Big=T
 Integral buffers will be    131072 words long.
 Raffenetti 2 integral format.
 Two-electron integral symmetry is turned off.
 Nuclear repulsion after empirical dispersion term =     2985.1165972732 Hartrees.
 One-electron integrals computed using PRISM.
 NBasis=   511 RedAO= T EigKep=  1.81D-03  NBF=   511
 NBsUse=   511 1.00D-06 EigRej= -1.00D+00 NBFU=   511
 Initial guess from the checkpoint file:  "conf-651.chk"
 B after Tr=     0.000000    0.000000    0.000000
         Rot=    1.000000    0.000000    0.000000    0.000000 Ang=   0.00 deg.
 Requested convergence on RMS density matrix=1.00D-08 within 128 cycles.
 Requested convergence on MAX density matrix=1.00D-06.
 Requested convergence on             energy=1.00D-06.
 No special actions if energy rises.
 SCF Done:  E(RB3LYP) =  -1396.72333813     A.U. after    1 cycles
            NFock=  1  Conv=0.98D-08     -V/T= 2.0095

 **********************************************************************

            Population analysis using the SCF Density.

 **********************************************************************

 Alpha  occ. eigenvalues --  -19.28369 -19.22250 -19.22030 -19.19587 -19.19507
 Alpha  occ. eigenvalues --  -14.61852 -14.50315 -14.45300 -14.43194 -14.41240
 Alpha  occ. eigenvalues --  -10.45126 -10.42280 -10.38999 -10.37332 -10.36492
 Alpha  occ. eigenvalues --  -10.34804 -10.31437 -10.29799 -10.28692 -10.27939
 Alpha  occ. eigenvalues --  -10.27905 -10.26994 -10.25278 -10.25187 -10.24883
 Alpha  occ. eigenvalues --  -10.24850 -10.24767 -10.24339 -10.24283  -1.20805
 Alpha  occ. eigenvalues --   -1.15403  -1.14846  -1.13960  -1.11366  -1.07070
 Alpha  occ. eigenvalues --   -1.06268  -1.02042  -0.99862  -0.96514  -0.92483
 Alpha  occ. eigenvalues --   -0.89746  -0.88347  -0.86024  -0.84987  -0.81897
 Alpha  occ. eigenvalues --   -0.78956  -0.76612  -0.76185  -0.75809  -0.75717
 Alpha  occ. eigenvalues --   -0.75466  -0.75331  -0.71807  -0.69732  -0.68982
 Alpha  occ. eigenvalues --   -0.68212  -0.67033  -0.65796  -0.65065  -0.64124
 Alpha  occ. eigenvalues --   -0.63921  -0.63006  -0.62049  -0.61267  -0.59265
 Alpha  occ. eigenvalues --   -0.57381  -0.57125  -0.56795  -0.56324  -0.56039
 Alpha  occ. eigenvalues --   -0.54432  -0.54143  -0.53736  -0.53541  -0.53045
 Alpha  occ. eigenvalues --   -0.52553  -0.52136  -0.51746  -0.51027  -0.50480
 Alpha  occ. eigenvalues --   -0.49717  -0.49092  -0.48429  -0.47868  -0.47756
 Alpha  occ. eigenvalues --   -0.47508  -0.46562  -0.46424  -0.46347  -0.45483
 Alpha  occ. eigenvalues --   -0.45114  -0.44705  -0.44093  -0.43291  -0.43173
 Alpha  occ. eigenvalues --   -0.42460  -0.42187  -0.41586  -0.41378  -0.41229
 Alpha  occ. eigenvalues --   -0.40752  -0.40668  -0.39639  -0.39555  -0.39434
 Alpha  occ. eigenvalues --   -0.38754  -0.36256  -0.36090  -0.34932  -0.33701
 Alpha  occ. eigenvalues --   -0.33501  -0.32893  -0.32375
 Alpha virt. eigenvalues --   -0.13399  -0.13107  -0.07859  -0.07486  -0.05996
 Alpha virt. eigenvalues --   -0.05481  -0.04912  -0.02462  -0.02025   0.00014
 Alpha virt. eigenvalues --    0.00690   0.01150   0.01663   0.01946   0.03196
 Alpha virt. eigenvalues --    0.03481   0.03995   0.04168   0.04578   0.05454
 Alpha virt. eigenvalues --    0.05813   0.05958   0.06052   0.06775   0.07313
 Alpha virt. eigenvalues --    0.07519   0.07979   0.08199   0.08484   0.08669
 Alpha virt. eigenvalues --    0.09268   0.09444   0.09852   0.10083   0.10588
 Alpha virt. eigenvalues --    0.10998   0.11324   0.11671   0.11782   0.12634
 Alpha virt. eigenvalues --    0.12858   0.13134   0.13335   0.13638   0.14408
 Alpha virt. eigenvalues --    0.14494   0.14815   0.15561   0.15833   0.16411
 Alpha virt. eigenvalues --    0.16727   0.17542   0.17620   0.18436   0.18667
 Alpha virt. eigenvalues --    0.18980   0.19278   0.19933   0.20433   0.21117
 Alpha virt. eigenvalues --    0.23108   0.23856   0.25134   0.26327   0.26729
 Alpha virt. eigenvalues --    0.28416   0.29544   0.32432   0.34391   0.34786
 Alpha virt. eigenvalues --    0.36138   0.37318   0.38250   0.40943   0.41770
 Alpha virt. eigenvalues --    0.42266   0.42732   0.43173   0.43453   0.43581
 Alpha virt. eigenvalues --    0.44010   0.44524   0.46047   0.46217   0.46838
 Alpha virt. eigenvalues --    0.47344   0.47981   0.48353   0.49194   0.49732
 Alpha virt. eigenvalues --    0.50152   0.51010   0.52041   0.52123   0.52716
 Alpha virt. eigenvalues --    0.53348   0.54186   0.55060   0.55960   0.56588
 Alpha virt. eigenvalues --    0.57005   0.57546   0.57694   0.58333   0.58389
 Alpha virt. eigenvalues --    0.58828   0.59490   0.59969   0.60879   0.61247
 Alpha virt. eigenvalues --    0.62485   0.62819   0.63340   0.63389   0.63682
 Alpha virt. eigenvalues --    0.64363   0.64796   0.65050   0.65913   0.66682
 Alpha virt. eigenvalues --    0.67033   0.67374   0.68473   0.68735   0.69529
 Alpha virt. eigenvalues --    0.70031   0.70617   0.71201   0.71389   0.72432
 Alpha virt. eigenvalues --    0.73380   0.73551   0.74313   0.75095   0.75433
 Alpha virt. eigenvalues --    0.75739   0.76235   0.76711   0.76899   0.77594
 Alpha virt. eigenvalues --    0.77818   0.78600   0.78822   0.79232   0.79532
 Alpha virt. eigenvalues --    0.80168   0.80674   0.81115   0.81472   0.81617
 Alpha virt. eigenvalues --    0.82073   0.82673   0.82997   0.83283   0.83612
 Alpha virt. eigenvalues --    0.83964   0.84616   0.85340   0.85890   0.86219
 Alpha virt. eigenvalues --    0.86747   0.86909   0.87115   0.87354   0.88180
 Alpha virt. eigenvalues --    0.88552   0.88921   0.89258   0.90158   0.90817
 Alpha virt. eigenvalues --    0.91012   0.91635   0.92069   0.92562   0.93101
 Alpha virt. eigenvalues --    0.93722   0.94112   0.95409   0.95681   0.97660
 Alpha virt. eigenvalues --    0.98735   0.99612   1.00105   1.00835   1.01459
 Alpha virt. eigenvalues --    1.01894   1.03004   1.04055   1.04938   1.05549
 Alpha virt. eigenvalues --    1.06597   1.08602   1.09759   1.10271   1.11839
 Alpha virt. eigenvalues --    1.13731   1.14898   1.15934   1.16673   1.17351
 Alpha virt. eigenvalues --    1.20385   1.20665   1.22449   1.24122   1.25535
 Alpha virt. eigenvalues --    1.27273   1.27852   1.28973   1.30628   1.32858
 Alpha virt. eigenvalues --    1.33857   1.35264   1.36302   1.36750   1.37123
 Alpha virt. eigenvalues --    1.38212   1.39362   1.40509   1.41765   1.42961
 Alpha virt. eigenvalues --    1.44213   1.45079   1.46415   1.47140   1.48313
 Alpha virt. eigenvalues --    1.49029   1.52803   1.53185   1.54396   1.55150
 Alpha virt. eigenvalues --    1.56480   1.56784   1.56960   1.57853   1.60869
 Alpha virt. eigenvalues --    1.61299   1.62658   1.63531   1.63862   1.65389
 Alpha virt. eigenvalues --    1.65917   1.66564   1.67906   1.68687   1.69056
 Alpha virt. eigenvalues --    1.70151   1.70486   1.71352   1.72001   1.72273
 Alpha virt. eigenvalues --    1.73145   1.73668   1.74174   1.74772   1.75380
 Alpha virt. eigenvalues --    1.76784   1.77002   1.78323   1.78761   1.79189
 Alpha virt. eigenvalues --    1.79630   1.80354   1.81036   1.81599   1.82114
 Alpha virt. eigenvalues --    1.83111   1.83182   1.83629   1.84207   1.85632
 Alpha virt. eigenvalues --    1.86123   1.87150   1.87666   1.88372   1.89280
 Alpha virt. eigenvalues --    1.90421   1.90927   1.91566   1.92190   1.93059
 Alpha virt. eigenvalues --    1.93137   1.93958   1.95403   1.95836   1.97031
 Alpha virt. eigenvalues --    1.98124   1.98647   1.99832   2.00386   2.01124
 Alpha virt. eigenvalues --    2.01640   2.02962   2.03474   2.05644   2.06563
 Alpha virt. eigenvalues --    2.07585   2.08576   2.10101   2.10298   2.11413
 Alpha virt. eigenvalues --    2.11673   2.13778   2.14796   2.15414   2.16544
 Alpha virt. eigenvalues --    2.16679   2.16861   2.18012   2.18465   2.18987
 Alpha virt. eigenvalues --    2.19903   2.21252   2.21920   2.24580   2.25251
 Alpha virt. eigenvalues --    2.26750   2.28404   2.28890   2.29942   2.31659
 Alpha virt. eigenvalues --    2.31770   2.32265   2.33715   2.34908   2.36029
 Alpha virt. eigenvalues --    2.36978   2.37762   2.39110   2.40122   2.41472
 Alpha virt. eigenvalues --    2.41551   2.42694   2.43500   2.44471   2.46670
 Alpha virt. eigenvalues --    2.47427   2.48891   2.51039   2.51550   2.53099
 Alpha virt. eigenvalues --    2.53716   2.55281   2.58200   2.60218   2.61457
 Alpha virt. eigenvalues --    2.62267   2.63051   2.64434   2.64794   2.65175
 Alpha virt. eigenvalues --    2.66537   2.67560   2.68638   2.69638   2.74895
 Alpha virt. eigenvalues --    2.75656   2.78868   2.79876   2.81368   2.85349
 Alpha virt. eigenvalues --    2.86262   2.88825   2.90641   2.92618   2.96297
 Alpha virt. eigenvalues --    3.02491   3.06759   3.12342   3.15024   3.61399
 Alpha virt. eigenvalues --    3.78171   3.91383   3.93814   3.94366   3.96701
 Alpha virt. eigenvalues --    3.98788   4.01967   4.06235   4.09191   4.10502
 Alpha virt. eigenvalues --    4.12989   4.15922   4.17849   4.21067   4.21912
 Alpha virt. eigenvalues --    4.23776   4.26031   4.27955   4.32887   4.33881
 Alpha virt. eigenvalues --    4.34531   4.45396   4.47057   4.49907   4.51169
 Alpha virt. eigenvalues --    4.57279   4.59248   4.61900
          Condensed to atoms (all electrons):
 Mulliken charges:
               1
     1  N   -0.751508
     2  H    0.422936
     3  H    0.422655
     4  H    0.440284
     5  C   -0.278635
     6  H    0.248915
     7  H    0.249227
     8  C    0.638412
     9  O   -0.529141
    10  N   -0.585188
    11  H    0.373311
    12  C   -0.088559
    13  H    0.194445
    14  C    0.636939
    15  C   -0.258243
    16  H    0.152234
    17  H    0.163967
    18  O   -0.553941
    19  C   -0.071066
    20  H    0.112135
    21  C   -0.446797
    22  H    0.155972
    23  H    0.156408
    24  H    0.145687
    25  C   -0.460531
    26  H    0.151349
    27  H    0.158546
    28  H    0.156621
    29  N   -0.619017
    30  H    0.365742
    31  C   -0.051132
    32  H    0.174865
    33  C    0.626070
    34  C   -0.076770
    35  H    0.156785
    36  O   -0.552582
    37  C   -0.455912
    38  H    0.163245
    39  H    0.156456
    40  H    0.141013
    41  C   -0.476093
    42  H    0.168428
    43  H    0.162175
    44  H    0.149380
    45  N   -0.616890
    46  H    0.361977
    47  C   -0.042785
    48  H    0.191908
    49  C    0.607985
    50  C   -0.265066
    51  H    0.165360
    52  H    0.166878
    53  O   -0.603505
    54  C   -0.287192
    55  H    0.139888
    56  H    0.149404
    57  C   -0.283753
    58  H    0.161415
    59  H    0.150369
    60  C   -0.161034
    61  H    0.149690
    62  H    0.182487
    63  N   -0.775431
    64  H    0.339278
    65  H    0.459098
    66  H    0.330791
    67  O   -0.509959
 Sum of Mulliken charges =   1.00000
 Mulliken charges with hydrogens summed into heavy atoms:
               1
     1  N    0.534368
     5  C    0.219508
     8  C    0.638412
     9  O   -0.529141
    10  N   -0.211877
    12  C    0.105886
    14  C    0.636939
    15  C    0.057958
    18  O   -0.553941
    19  C    0.041068
    21  C    0.011270
    25  C    0.005985
    29  N   -0.253275
    31  C    0.123733
    33  C    0.626070
    34  C    0.080015
    36  O   -0.552582
    37  C    0.004802
    41  C    0.003890
    45  N   -0.254913
    47  C    0.149123
    49  C    0.607985
    50  C    0.067171
    53  O   -0.144407
    54  C    0.002100
    57  C    0.028031
    60  C    0.171143
    63  N   -0.105362
    67  O   -0.509959
 Electronic spatial extent (au):  <R**2>=          21751.0813
 Charge=              1.0000 electrons
 Dipole moment (field-independent basis, Debye):
    X=            -14.2625    Y=              5.4003    Z=             10.5619  Tot=             18.5509
 Quadrupole moment (field-independent basis, Debye-Ang):
   XX=             -6.3228   YY=           -158.6265   ZZ=            -91.3926
   XY=             16.8080   XZ=           -114.8346   YZ=            -19.7149
 Traceless Quadrupole moment (field-independent basis, Debye-Ang):
   XX=             79.1245   YY=            -73.1792   ZZ=             -5.9453
   XY=             16.8080   XZ=           -114.8346   YZ=            -19.7149
 Octapole moment (field-independent basis, Debye-Ang**2):
  XXX=           -592.3455  YYY=           -409.2933  ZZZ=            665.4117  XYY=            -42.2757
  XXY=             87.5203  XXZ=            408.4190  XZZ=           -326.2143  YZZ=            -62.7100
  YYZ=            121.4507  XYZ=           -131.5600
 Hexadecapole moment (field-independent basis, Debye-Ang**3):
 XXXX=          -9792.2983 YYYY=          -2567.9467 ZZZZ=          -5839.4383 XXXY=            579.8824
 XXXZ=          -1078.6318 YYYX=           -523.0439 YYYZ=           1092.2223 ZZZX=           1569.7203
 ZZZY=            827.7101 XXYY=          -2695.0114 XXZZ=           -809.6073 YYZZ=          -1418.7372
 XXYZ=           -431.4020 YYXZ=            888.2791 ZZXY=            280.0006
 N-N= 2.985116597273D+03 E-N=-9.201608811285D+03  KE= 1.383592167933D+03
 Unable to Open any file for archive entry.
 1\1\GINC-QML-000\SP\RB3LYP\6-31G(d)\C19H38N5O5(1+)\KENGMITH\02-Jun-202
 2\0\\# B3LYP/6-31G* empiricaldispersion=gd3 guess=read geom=check nosy
 mm integral(ultrafinegrid)\\Candidate Structure: Conf:651 Charge calc 
 in gas phase\\1,1\N,0,-5.855357313,-0.0575512826,3.9215341192\H,0,-5.7
 87531331,-0.7850814507,4.6381102154\H,0,-6.6644682044,0.5320221924,4.1
 334260623\H,0,-5.96464468,-0.5072136399,2.9475899291\C,0,-4.5792640793
 ,0.7136633699,3.7209022481\H,0,-3.8269961572,0.3831730433,4.4392489387
 \H,0,-4.765793616,1.7799018837,3.858859431\C,0,-4.1804264936,0.3791952
 497,2.2560247423\O,0,-4.9508327702,-0.3705731256,1.6326563912\N,0,-3.0
 69085535,0.9337158606,1.8116185138\H,0,-2.413084497,1.4136805927,2.438
 1258362\C,0,-2.4434135005,0.6691912907,0.5116219095\H,0,-2.6961127592,
 -0.3493086407,0.2033821888\C,0,-0.9281217354,0.7923807945,0.7996283561
 \C,0,-2.8698997764,1.6907629551,-0.5627118936\H,0,-2.6014623156,2.6894
 916304,-0.193498148\H,0,-2.2536841291,1.5138614462,-1.454149023\O,0,-0
 .5466952467,1.3330719279,1.8451830164\C,0,-4.354975679,1.6603887078,-0
 .9694494617\H,0,-4.9635887714,1.781894568,-0.0613351955\C,0,-4.6511581
 399,2.8463633906,-1.8998353215\H,0,-4.06292754,2.7729347773,-2.8230291
 485\H,0,-5.7092420564,2.8661891541,-2.1823767198\H,0,-4.409760797,3.80
 42102098,-1.4240598135\C,0,-4.7452428178,0.3332905905,-1.6352068539\H,
 0,-4.12867789,0.1491624194,-2.5242695303\H,0,-4.6383039879,-0.51646365
 91,-0.9542773309\H,0,-5.7912584728,0.3597633239,-1.9594962355\N,0,-0.1
 219830492,0.3195041654,-0.1543577333\H,0,-0.4765317774,-0.0904012609,-
 1.0169192653\C,0,1.3319050778,0.4321642781,-0.1238011721\H,0,1.5947154
 966,1.4359093131,0.2295396482\C,0,1.7696789147,0.2442154444,-1.5892706
 595\C,0,1.9609021505,-0.6145709433,0.8449626534\H,0,1.412881461,-0.471
 0746867,1.7848301248\O,0,1.0054116402,-0.2804500864,-2.4049458353\C,0,
 1.7392565225,-2.0517361855,0.3573689013\H,0,2.291341034,-2.2475742027,
 -0.5690485844\H,0,2.0883184694,-2.766059715,1.1103984413\H,0,0.6804347
 355,-2.2541531747,0.1633041473\C,0,3.4439734577,-0.3377925259,1.129209
 5447\H,0,4.0794686826,-0.5417422257,0.2611049289\H,0,3.7926380009,-0.9
 824041568,1.9428471724\H,0,3.6097126054,0.7014715552,1.4396951878\N,0,
 3.012618218,0.6573471813,-1.8924638368\H,0,3.6381455546,1.0160939217,-
 1.179070957\C,0,3.647209417,0.3686259018,-3.1715532685\H,0,3.368719961
 2,-0.6434495473,-3.4846274491\C,0,5.1508897417,0.4549439124,-2.9528825
 61\C,0,3.2151048123,1.3518162414,-4.2889663416\H,0,3.5323858736,0.9275
 278211,-5.2472420185\H,0,2.1201067351,1.3435261752,-4.2834332681\O,0,5
 .8352120448,0.186113991,-4.0497519588\C,0,3.7266163625,2.8063506489,-4
 .1677126937\H,0,3.7004214856,3.1206367146,-3.1150099744\H,0,2.99099737
 39,3.4394267238,-4.6762739312\C,0,5.1229408627,3.1172837381,-4.7883211
 868\H,0,5.365071179,2.3422619905,-5.5248621156\H,0,5.0370019295,4.0503
 954257,-5.3553837935\C,0,6.3186412082,3.2649324183,-3.8077981304\H,0,6
 .7124976788,4.2892265878,-3.8511554755\H,0,6.0002843723,3.0868420552,-
 2.7786686616\N,0,7.3970282116,2.2767177778,-4.0856203837\H,0,8.1244214
 371,2.3473053148,-3.3750396856\H,0,6.6646020772,0.8083077488,-4.042547
 9046\H,0,7.8393876274,2.4805078171,-4.9818468624\O,0,5.631516545,0.852
 6777176,-1.8990319143\\Version=ES64L-G16RevC.01\HF=-1396.7233381\RMSD=
 9.754e-09\Dipole=-6.7008333,0.5372476,5.8310984\Quadrupole=58.8271131,
 -54.4069165,-4.4201967,12.4963185,-85.3766809,-14.6575709\PG=C01 [X(C1
 9H38N5O5)]\\@
 The archive entry for this job was punched.


 ... UNTIL SCIENCE IS MIXED WITH EMOTION AND APPEALS TO THE HEART AND
 IMAGINATION , IT IS LIKE DEAD INORGANIC MATTER; AND WHEN IT IS SO MIXED
 AND SO TRANSFORMED IT IS LITERATURE.

                                  -- JOHN BURROUGHS
 Job cpu time:       0 days  0 hours  1 minutes 40.4 seconds.
 Elapsed time:       0 days  0 hours  0 minutes 25.7 seconds.
 File lengths (MBytes):  RWF=    256 Int=      0 D2E=      0 Chk=     40 Scr=     16
 Normal termination of Gaussian 16 at Thu Jun  2 03:21:19 2022.
