 Entering Gaussian System, Link 0=/opt/software/Gaussian/g16-AVX2-C.01/g16/g16
 Input=charge-conf-156.com
 Output=charge-conf-156.log
 Initial command:
 /opt/software/Gaussian/g16-AVX2-C.01/g16/l1.exe "/mnt/gs18/scratch/users/kengmith/Gau-74054.inp" -scrdir="/mnt/gs18/scratch/users/kengmith/"
 Entering Link 1 = /opt/software/Gaussian/g16-AVX2-C.01/g16/l1.exe PID=     74078.
  
 Copyright (c) 1988-2019, Gaussian, Inc.  All Rights Reserved.
  
 This is part of the Gaussian(R) 16 program.  It is based on
 the Gaussian(R) 09 system (copyright 2009, Gaussian, Inc.),
 the Gaussian(R) 03 system (copyright 2003, Gaussian, Inc.),
 the Gaussian(R) 98 system (copyright 1998, Gaussian, Inc.),
 the Gaussian(R) 94 system (copyright 1995, Gaussian, Inc.),
 the Gaussian 92(TM) system (copyright 1992, Gaussian, Inc.),
 the Gaussian 90(TM) system (copyright 1990, Gaussian, Inc.),
 the Gaussian 88(TM) system (copyright 1988, Gaussian, Inc.),
 the Gaussian 86(TM) system (copyright 1986, Carnegie Mellon
 University), and the Gaussian 82(TM) system (copyright 1983,
 Carnegie Mellon University). Gaussian is a federally registered
 trademark of Gaussian, Inc.
  
 This software contains proprietary and confidential information,
 including trade secrets, belonging to Gaussian, Inc.
  
 This software is provided under written license and may be
 used, copied, transmitted, or stored only in accord with that
 written license.
  
 The following legend is applicable only to US Government
 contracts under FAR:
  
                    RESTRICTED RIGHTS LEGEND
  
 Use, reproduction and disclosure by the US Government is
 subject to restrictions as set forth in subparagraphs (a)
 and (c) of the Commercial Computer Software - Restricted
 Rights clause in FAR 52.227-19.
  
 Gaussian, Inc.
 340 Quinnipiac St., Bldg. 40, Wallingford CT 06492
  
  
 ---------------------------------------------------------------
 Warning -- This program may not be used in any manner that
 competes with the business of Gaussian, Inc. or will provide
 assistance to any competitor of Gaussian, Inc.  The licensee
 of this program is prohibited from giving any competitor of
 Gaussian, Inc. access to this program.  By using this program,
 the user acknowledges that Gaussian, Inc. is engaged in the
 business of creating and licensing software in the field of
 computational chemistry and represents and warrants to the
 licensee that it is not a competitor of Gaussian, Inc. and that
 it will not use this program in any manner prohibited above.
 ---------------------------------------------------------------
  

 Cite this work as:
 Gaussian 16, Revision C.01,
 M. J. Frisch, G. W. Trucks, H. B. Schlegel, G. E. Scuseria, 
 M. A. Robb, J. R. Cheeseman, G. Scalmani, V. Barone, 
 G. A. Petersson, H. Nakatsuji, X. Li, M. Caricato, A. V. Marenich, 
 J. Bloino, B. G. Janesko, R. Gomperts, B. Mennucci, H. P. Hratchian, 
 J. V. Ortiz, A. F. Izmaylov, J. L. Sonnenberg, D. Williams-Young, 
 F. Ding, F. Lipparini, F. Egidi, J. Goings, B. Peng, A. Petrone, 
 T. Henderson, D. Ranasinghe, V. G. Zakrzewski, J. Gao, N. Rega, 
 G. Zheng, W. Liang, M. Hada, M. Ehara, K. Toyota, R. Fukuda, 
 J. Hasegawa, M. Ishida, T. Nakajima, Y. Honda, O. Kitao, H. Nakai, 
 T. Vreven, K. Throssell, J. A. Montgomery, Jr., J. E. Peralta, 
 F. Ogliaro, M. J. Bearpark, J. J. Heyd, E. N. Brothers, K. N. Kudin, 
 V. N. Staroverov, T. A. Keith, R. Kobayashi, J. Normand, 
 K. Raghavachari, A. P. Rendell, J. C. Burant, S. S. Iyengar, 
 J. Tomasi, M. Cossi, J. M. Millam, M. Klene, C. Adamo, R. Cammi, 
 J. W. Ochterski, R. L. Martin, K. Morokuma, O. Farkas, 
 J. B. Foresman, and D. J. Fox, Gaussian, Inc., Wallingford CT, 2019.
 
 ******************************************
 Gaussian 16:  ES64L-G16RevC.01  3-Jul-2019
                 2-Jun-2022 
 ******************************************
 %mem=8gb
 %nproc=4
 Will use up to    4 processors via shared memory.
 %chk=conf-156.chk
 ----------------------------------------------------------------------
 # B3LYP/6-31G* empiricaldispersion=gd3 guess=read geom=check nosymm in
 tegral(ultrafinegrid)
 ----------------------------------------------------------------------
 1/29=2,38=1,172=1/1;
 2/12=2,15=1,40=1/2;
 3/5=1,6=6,7=1,11=2,14=-4,25=1,30=1,74=-5,75=-5,116=-2,124=31/1,2,3;
 4/5=1/1;
 5/5=2,38=6/2;
 6/7=2,8=2,9=2,10=2,28=1/1;
 99/5=1,9=1/99;
 ------------------------------------------------------
 Candidate Structure: Conf:156 Charge calc in gas phase
 ------------------------------------------------------
 Structure from the checkpoint file:  "conf-156.chk"
 Charge =  1 Multiplicity = 1
 Redundant internal coordinates found in file.  (old form).
 N,0,-6.0976862649,2.1537870974,2.7110784443
 H,0,-6.6006574767,1.5221059958,3.3401038974
 H,0,-6.5154870722,3.0851217722,2.7859980957
 H,0,-6.1648459434,1.7967529496,1.6979227346
 C,0,-4.6061953312,2.1418616016,2.9096856883
 H,0,-4.3471908448,1.4844450724,3.7413446389
 H,0,-4.2534731266,3.15180269,3.1259842854
 C,0,-4.0639972139,1.6133701207,1.5526998475
 O,0,-4.9079843472,1.3536371998,0.6780675425
 N,0,-2.7558031441,1.4809226596,1.4510501174
 H,0,-2.1051525551,1.7208861429,2.2050711981
 C,0,-2.0489455392,1.0141544822,0.2537135154
 H,0,-2.5756376208,0.1417142387,-0.1433272501
 C,0,-0.6444309922,0.6475871677,0.7755107353
 C,0,-1.982347988,2.1462908354,-0.8026172123
 H,0,-3.0167569177,2.4307055909,-1.0352310271
 H,0,-1.5061249624,3.0094145949,-0.3207042934
 O,0,-0.2263625848,1.1882398091,1.802319024
 C,0,-1.2390492077,1.8246914413,-2.1148333682
 H,0,-0.2078751682,1.5424778488,-1.8733774627
 C,0,-1.8841114189,0.667138053,-2.8907350135
 H,0,-2.9211752177,0.9047449452,-3.1579592042
 H,0,-1.3338460482,0.4775730951,-3.8192270294
 H,0,-1.8966980972,-0.2752150642,-2.3299946881
 C,0,-1.1781526265,3.0864328976,-2.9887103237
 H,0,-2.1836354811,3.4162809598,-3.2787092935
 H,0,-0.688364757,3.9136146688,-2.4629306237
 H,0,-0.6112349723,2.8942607534,-3.906385303
 N,0,0.0456800955,-0.2290156835,0.0288970528
 H,0,-0.3506894724,-0.5744955159,-0.837756212
 C,0,1.4953017945,-0.4125694458,0.1340890243
 H,0,1.873403322,0.3697540171,0.7975101344
 C,0,2.0363841348,-0.2221527601,-1.2857429363
 C,0,1.8904919903,-1.7994583551,0.708626449
 H,0,1.5983638637,-2.5526332022,-0.0380190483
 O,0,1.3310592161,-0.6949909111,-2.2366946906
 C,0,3.4083778606,-1.8795704977,0.9403131804
 H,0,3.7195098819,-1.1574968558,1.7051529253
 H,0,3.6785750621,-2.8779790665,1.2991125045
 H,0,4.003046652,-1.6692826523,0.0471446673
 C,0,1.1288041361,-2.0755138635,2.0122138576
 H,0,1.3436180059,-1.3008267821,2.7575573545
 H,0,1.4332213264,-3.0412367293,2.4289111596
 H,0,0.0458436976,-2.101264679,1.8533244404
 N,0,3.1755865001,0.4092052697,-1.4128447007
 H,0,3.8430873448,0.560032575,-0.6046030603
 C,0,4.0381705003,0.5349943384,-2.5854179824
 H,0,3.960810262,-0.3563044996,-3.2176780796
 C,0,5.5195185838,0.5317086301,-1.9835069497
 C,0,3.7804123442,1.8167592535,-3.3777894776
 H,0,3.7288697117,2.6451589669,-2.660945335
 H,0,4.670893392,1.9871935845,-3.9931632506
 O,0,6.4124750968,0.5505533078,-2.8339200311
 C,0,2.5168306652,1.8171883054,-4.2564386263
 H,0,2.2898585553,2.848748271,-4.5487632707
 H,0,1.6560790985,1.4771778693,-3.664939647
 C,0,2.6601630195,0.9621536964,-5.5452484887
 H,0,2.5006624903,1.586572158,-6.4313226989
 H,0,3.6876373074,0.5830634248,-5.6390679194
 C,0,1.6905536932,-0.2087622592,-5.6778211322
 H,0,0.6568182104,0.0991090265,-5.4938625249
 H,0,1.7477273015,-0.6656885568,-6.6699926353
 N,0,1.9902278514,-1.2893941158,-4.6690610387
 H,0,1.4109476378,-2.1190530736,-4.8247372018
 H,0,2.9697574539,-1.581885254,-4.7352472317
 H,0,1.8031152993,-0.9591136055,-3.6333072094
 O,0,5.5359238335,0.5154223604,-0.7179764626
 Recover connectivity data from disk.
                           ----------------------------
                           !    Current Parameters    !
                           ! (Angstroms and Degrees)  !
 --------------------------                            --------------------------
 ! Name  Definition              Value                                          !
 --------------------------------------------------------------------------------
 ! R1    R(1,2)                  1.0236                                         !
 ! R2    R(1,3)                  1.0235                                         !
 ! R3    R(1,4)                  1.0763                                         !
 ! R4    R(1,5)                  1.5047                                         !
 ! R5    R(5,6)                  1.0913                                         !
 ! R6    R(5,7)                  1.0914                                         !
 ! R7    R(5,8)                  1.5539                                         !
 ! R8    R(8,9)                  1.2429                                         !
 ! R9    R(8,10)                 1.3188                                         !
 ! R10   R(10,11)                1.0244                                         !
 ! R11   R(10,12)                1.4667                                         !
 ! R12   R(12,13)                1.0937                                         !
 ! R13   R(12,14)                1.5425                                         !
 ! R14   R(12,15)                1.5498                                         !
 ! R15   R(14,18)                1.2335                                         !
 ! R16   R(14,29)                1.3424                                         !
 ! R17   R(15,16)                1.0977                                         !
 ! R18   R(15,17)                1.0973                                         !
 ! R19   R(15,19)                1.542                                          !
 ! R20   R(19,20)                1.096                                          !
 ! R21   R(19,21)                1.5356                                         !
 ! R22   R(19,25)                1.536                                          !
 ! R23   R(21,22)                1.097                                          !
 ! R24   R(21,23)                1.0958                                         !
 ! R25   R(21,24)                1.0966                                         !
 ! R26   R(25,26)                1.0972                                         !
 ! R27   R(25,27)                1.0957                                         !
 ! R28   R(25,28)                1.0957                                         !
 ! R29   R(29,30)                1.0137                                         !
 ! R30   R(29,31)                1.465                                          !
 ! R31   R(31,32)                1.0932                                         !
 ! R32   R(31,33)                1.5313                                         !
 ! R33   R(31,34)                1.5523                                         !
 ! R34   R(33,36)                1.2749                                         !
 ! R35   R(33,45)                1.3086                                         !
 ! R36   R(34,35)                1.1                                            !
 ! R37   R(34,37)                1.5376                                         !
 ! R38   R(34,41)                1.5348                                         !
 ! R39   R(37,38)                1.0969                                         !
 ! R40   R(37,39)                1.0948                                         !
 ! R41   R(37,40)                1.0934                                         !
 ! R42   R(41,42)                1.0963                                         !
 ! R43   R(41,43)                1.095                                          !
 ! R44   R(41,44)                1.0949                                         !
 ! R45   R(45,46)                1.059                                          !
 ! R46   R(45,47)                1.4611                                         !
 ! R47   R(47,48)                1.0955                                         !
 ! R48   R(47,49)                1.599                                          !
 ! R49   R(47,50)                1.5288                                         !
 ! R50   R(49,53)                1.2333                                         !
 ! R51   R(49,67)                1.2657                                         !
 ! R52   R(50,51)                1.0967                                         !
 ! R53   R(50,52)                1.0958                                         !
 ! R54   R(50,54)                1.539                                          !
 ! R55   R(54,55)                1.0959                                         !
 ! R56   R(54,56)                1.0983                                         !
 ! R57   R(54,57)                1.5533                                         !
 ! R58   R(57,58)                1.0957                                         !
 ! R59   R(57,59)                1.0992                                         !
 ! R60   R(57,60)                1.526                                          !
 ! R61   R(60,61)                1.0942                                         !
 ! R62   R(60,62)                1.0938                                         !
 ! R63   R(60,63)                1.5084                                         !
 ! R64   R(63,64)                1.0238                                         !
 ! R65   R(63,65)                1.0244                                         !
 ! R66   R(63,66)                1.1031                                         !
 ! A1    A(2,1,3)              108.4207                                         !
 ! A2    A(2,1,4)              110.066                                          !
 ! A3    A(2,1,5)              113.6453                                         !
 ! A4    A(3,1,4)              110.1988                                         !
 ! A5    A(3,1,5)              113.7141                                         !
 ! A6    A(4,1,5)              100.5717                                         !
 ! A7    A(1,5,6)              109.9143                                         !
 ! A8    A(1,5,7)              109.8261                                         !
 ! A9    A(1,5,8)              103.4908                                         !
 ! A10   A(6,5,7)              109.2514                                         !
 ! A11   A(6,5,8)              112.1976                                         !
 ! A12   A(7,5,8)              112.0252                                         !
 ! A13   A(5,8,9)              116.6578                                         !
 ! A14   A(5,8,10)             116.5884                                         !
 ! A15   A(9,8,10)             126.7529                                         !
 ! A16   A(8,10,11)            123.3507                                         !
 ! A17   A(8,10,12)            124.9564                                         !
 ! A18   A(11,10,12)           111.6735                                         !
 ! A19   A(10,12,13)           108.5501                                         !
 ! A20   A(10,12,14)           103.7865                                         !
 ! A21   A(10,12,15)           110.16                                           !
 ! A22   A(13,12,14)           111.8219                                         !
 ! A23   A(13,12,15)           110.8528                                         !
 ! A24   A(14,12,15)           111.4096                                         !
 ! A25   A(12,14,18)           119.082                                          !
 ! A26   A(12,14,29)           115.7936                                         !
 ! A27   A(18,14,29)           125.0975                                         !
 ! A28   A(12,15,16)           107.0497                                         !
 ! A29   A(12,15,17)           107.0924                                         !
 ! A30   A(12,15,19)           116.6388                                         !
 ! A31   A(16,15,17)           107.3515                                         !
 ! A32   A(16,15,19)           109.1435                                         !
 ! A33   A(17,15,19)           109.1831                                         !
 ! A34   A(15,19,20)           108.6471                                         !
 ! A35   A(15,19,21)           112.6252                                         !
 ! A36   A(15,19,25)           109.386                                          !
 ! A37   A(20,19,21)           108.2059                                         !
 ! A38   A(20,19,25)           107.4303                                         !
 ! A39   A(21,19,25)           110.3894                                         !
 ! A40   A(19,21,22)           110.9122                                         !
 ! A41   A(19,21,23)           110.3397                                         !
 ! A42   A(19,21,24)           113.2173                                         !
 ! A43   A(22,21,23)           107.8056                                         !
 ! A44   A(22,21,24)           107.4477                                         !
 ! A45   A(23,21,24)           106.8795                                         !
 ! A46   A(19,25,26)           111.1603                                         !
 ! A47   A(19,25,27)           111.3983                                         !
 ! A48   A(19,25,28)           110.6675                                         !
 ! A49   A(26,25,27)           108.0298                                         !
 ! A50   A(26,25,28)           107.7895                                         !
 ! A51   A(27,25,28)           107.6395                                         !
 ! A52   A(14,29,30)           119.8041                                         !
 ! A53   A(14,29,31)           123.4061                                         !
 ! A54   A(30,29,31)           113.9292                                         !
 ! A55   A(29,31,32)           107.2264                                         !
 ! A56   A(29,31,33)           105.5145                                         !
 ! A57   A(29,31,34)           112.9811                                         !
 ! A58   A(32,31,33)           110.5777                                         !
 ! A59   A(32,31,34)           109.0684                                         !
 ! A60   A(33,31,34)           111.365                                          !
 ! A61   A(31,33,36)           116.7433                                         !
 ! A62   A(31,33,45)           117.2348                                         !
 ! A63   A(36,33,45)           126.0219                                         !
 ! A64   A(31,34,35)           107.0311                                         !
 ! A65   A(31,34,37)           110.7103                                         !
 ! A66   A(31,34,41)           110.4079                                         !
 ! A67   A(35,34,37)           109.1939                                         !
 ! A68   A(35,34,41)           108.7563                                         !
 ! A69   A(37,34,41)           110.6443                                         !
 ! A70   A(34,37,38)           110.5357                                         !
 ! A71   A(34,37,39)           109.9102                                         !
 ! A72   A(34,37,40)           113.8153                                         !
 ! A73   A(38,37,39)           107.5664                                         !
 ! A74   A(38,37,40)           106.7804                                         !
 ! A75   A(39,37,40)           107.9912                                         !
 ! A76   A(34,41,42)           110.6776                                         !
 ! A77   A(34,41,43)           110.1137                                         !
 ! A78   A(34,41,44)           111.8296                                         !
 ! A79   A(42,41,43)           108.0613                                         !
 ! A80   A(42,41,44)           108.0054                                         !
 ! A81   A(43,41,44)           108.028                                          !
 ! A82   A(33,45,46)           122.9063                                         !
 ! A83   A(33,45,47)           129.302                                          !
 ! A84   A(46,45,47)           103.1861                                         !
 ! A85   A(45,47,48)           110.5751                                         !
 ! A86   A(45,47,49)           104.1618                                         !
 ! A87   A(45,47,50)           112.867                                          !
 ! A88   A(48,47,49)           106.3202                                         !
 ! A89   A(48,47,50)           111.783                                          !
 ! A90   A(49,47,50)           110.6727                                         !
 ! A91   A(47,49,53)           114.2797                                         !
 ! A92   A(47,49,67)           112.8555                                         !
 ! A93   A(53,49,67)           132.8642                                         !
 ! A94   A(47,50,51)           107.6045                                         !
 ! A95   A(47,50,52)           106.5268                                         !
 ! A96   A(47,50,54)           115.7572                                         !
 ! A97   A(51,50,52)           106.7253                                         !
 ! A98   A(51,50,54)           109.534                                          !
 ! A99   A(52,50,54)           110.2762                                         !
 ! A100  A(50,54,55)           108.8188                                         !
 ! A101  A(50,54,56)           109.6257                                         !
 ! A102  A(50,54,57)           113.4399                                         !
 ! A103  A(55,54,56)           105.8264                                         !
 ! A104  A(55,54,57)           108.4168                                         !
 ! A105  A(56,54,57)           110.411                                          !
 ! A106  A(54,57,58)           110.1129                                         !
 ! A107  A(54,57,59)           110.2994                                         !
 ! A108  A(54,57,60)           115.8379                                         !
 ! A109  A(58,57,59)           105.2838                                         !
 ! A110  A(58,57,60)           105.9341                                         !
 ! A111  A(59,57,60)           108.777                                          !
 ! A112  A(57,60,61)           111.702                                          !
 ! A113  A(57,60,62)           111.4762                                         !
 ! A114  A(57,60,63)           111.4308                                         !
 ! A115  A(61,60,62)           108.6278                                         !
 ! A116  A(61,60,63)           106.0719                                         !
 ! A117  A(62,60,63)           107.2754                                         !
 ! A118  A(60,63,64)           111.4982                                         !
 ! A119  A(60,63,65)           110.5679                                         !
 ! A120  A(60,63,66)           112.3171                                         !
 ! A121  A(64,63,65)           107.4472                                         !
 ! A122  A(64,63,66)           106.8239                                         !
 ! A123  A(65,63,66)           107.9592                                         !
 ! D1    D(2,1,5,6)             -2.9909                                         !
 ! D2    D(2,1,5,7)           -123.2157                                         !
 ! D3    D(2,1,5,8)            117.0188                                         !
 ! D4    D(3,1,5,6)            121.6958                                         !
 ! D5    D(3,1,5,7)              1.471                                          !
 ! D6    D(3,1,5,8)           -118.2945                                         !
 ! D7    D(4,1,5,6)           -120.5543                                         !
 ! D8    D(4,1,5,7)            119.2209                                         !
 ! D9    D(4,1,5,8)             -0.5445                                         !
 ! D10   D(1,5,8,9)              0.6323                                         !
 ! D11   D(1,5,8,10)          -179.0517                                         !
 ! D12   D(6,5,8,9)            119.0705                                         !
 ! D13   D(6,5,8,10)           -60.6134                                         !
 ! D14   D(7,5,8,9)           -117.6166                                         !
 ! D15   D(7,5,8,10)            62.6995                                         !
 ! D16   D(5,8,10,11)           -1.0079                                         !
 ! D17   D(5,8,10,12)         -179.2716                                         !
 ! D18   D(9,8,10,11)          179.3446                                         !
 ! D19   D(9,8,10,12)            1.081                                          !
 ! D20   D(8,10,12,13)         -44.7443                                         !
 ! D21   D(8,10,12,14)        -163.8266                                         !
 ! D22   D(8,10,12,15)          76.8015                                         !
 ! D23   D(11,10,12,13)        136.8164                                         !
 ! D24   D(11,10,12,14)         17.7342                                         !
 ! D25   D(11,10,12,15)       -101.6378                                         !
 ! D26   D(10,12,14,18)        -24.6238                                         !
 ! D27   D(10,12,14,29)        157.1676                                         !
 ! D28   D(13,12,14,18)       -141.4385                                         !
 ! D29   D(13,12,14,29)         40.3529                                         !
 ! D30   D(15,12,14,18)         93.8905                                         !
 ! D31   D(15,12,14,29)        -84.3181                                         !
 ! D32   D(10,12,15,16)        -58.819                                          !
 ! D33   D(10,12,15,17)         56.0573                                         !
 ! D34   D(10,12,15,19)        178.662                                          !
 ! D35   D(13,12,15,16)         61.3465                                         !
 ! D36   D(13,12,15,17)        176.2228                                         !
 ! D37   D(13,12,15,19)        -61.1725                                         !
 ! D38   D(14,12,15,16)       -173.4406                                         !
 ! D39   D(14,12,15,17)        -58.5643                                         !
 ! D40   D(14,12,15,19)         64.0404                                         !
 ! D41   D(12,14,29,30)          2.4924                                         !
 ! D42   D(12,14,29,31)        162.1649                                         !
 ! D43   D(18,14,29,30)       -175.5941                                         !
 ! D44   D(18,14,29,31)        -15.9216                                         !
 ! D45   D(12,15,19,20)        -58.6065                                         !
 ! D46   D(12,15,19,21)         61.2532                                         !
 ! D47   D(12,15,19,25)       -175.5998                                         !
 ! D48   D(16,15,19,20)        179.9708                                         !
 ! D49   D(16,15,19,21)        -60.1695                                         !
 ! D50   D(16,15,19,25)         62.9775                                         !
 ! D51   D(17,15,19,20)         62.9045                                         !
 ! D52   D(17,15,19,21)       -177.2357                                         !
 ! D53   D(17,15,19,25)        -54.0887                                         !
 ! D54   D(15,19,21,22)         60.0174                                         !
 ! D55   D(15,19,21,23)        179.4084                                         !
 ! D56   D(15,19,21,24)        -60.8579                                         !
 ! D57   D(20,19,21,22)       -179.8681                                         !
 ! D58   D(20,19,21,23)        -60.4772                                         !
 ! D59   D(20,19,21,24)         59.2566                                         !
 ! D60   D(25,19,21,22)        -62.5678                                         !
 ! D61   D(25,19,21,23)         56.8232                                         !
 ! D62   D(25,19,21,24)        176.5569                                         !
 ! D63   D(15,19,25,26)        -63.0035                                         !
 ! D64   D(15,19,25,27)         57.5367                                         !
 ! D65   D(15,19,25,28)        177.2504                                         !
 ! D66   D(20,19,25,26)        179.238                                          !
 ! D67   D(20,19,25,27)        -60.2219                                         !
 ! D68   D(20,19,25,28)         59.4918                                         !
 ! D69   D(21,19,25,26)         61.4595                                         !
 ! D70   D(21,19,25,27)       -178.0003                                         !
 ! D71   D(21,19,25,28)        -58.2866                                         !
 ! D72   D(14,29,31,32)         -7.7507                                         !
 ! D73   D(14,29,31,33)       -125.6533                                         !
 ! D74   D(14,29,31,34)        112.4491                                         !
 ! D75   D(30,29,31,32)        152.9937                                         !
 ! D76   D(30,29,31,33)         35.0911                                         !
 ! D77   D(30,29,31,34)        -86.8065                                         !
 ! D78   D(29,31,33,36)        -38.3427                                         !
 ! D79   D(29,31,33,45)        141.6152                                         !
 ! D80   D(32,31,33,36)       -153.9698                                         !
 ! D81   D(32,31,33,45)         25.9881                                         !
 ! D82   D(34,31,33,36)         84.5921                                         !
 ! D83   D(34,31,33,45)        -95.45                                           !
 ! D84   D(29,31,34,35)         67.273                                          !
 ! D85   D(29,31,34,37)       -173.8184                                         !
 ! D86   D(29,31,34,41)        -50.9421                                         !
 ! D87   D(32,31,34,35)       -173.587                                          !
 ! D88   D(32,31,34,37)        -54.6785                                         !
 ! D89   D(32,31,34,41)         68.1979                                         !
 ! D90   D(33,31,34,35)        -51.274                                          !
 ! D91   D(33,31,34,37)         67.6345                                         !
 ! D92   D(33,31,34,41)       -169.4891                                         !
 ! D93   D(31,33,45,46)         16.4794                                         !
 ! D94   D(31,33,45,47)        168.2181                                         !
 ! D95   D(36,33,45,46)       -163.567                                          !
 ! D96   D(36,33,45,47)        -11.8283                                         !
 ! D97   D(31,34,37,38)         64.1515                                         !
 ! D98   D(31,34,37,39)       -177.2639                                         !
 ! D99   D(31,34,37,40)        -56.0024                                         !
 ! D100  D(35,34,37,38)       -178.2567                                         !
 ! D101  D(35,34,37,39)        -59.6721                                         !
 ! D102  D(35,34,37,40)         61.5894                                         !
 ! D103  D(41,34,37,38)        -58.5876                                         !
 ! D104  D(41,34,37,39)         59.997                                          !
 ! D105  D(41,34,37,40)       -178.7415                                         !
 ! D106  D(31,34,41,42)        -58.8981                                         !
 ! D107  D(31,34,41,43)       -178.3126                                         !
 ! D108  D(31,34,41,44)         61.5724                                         !
 ! D109  D(35,34,41,42)       -176.0514                                         !
 ! D110  D(35,34,41,43)         64.5341                                         !
 ! D111  D(35,34,41,44)        -55.5809                                         !
 ! D112  D(37,34,41,42)         64.0168                                         !
 ! D113  D(37,34,41,43)        -55.3977                                         !
 ! D114  D(37,34,41,44)       -175.5127                                         !
 ! D115  D(33,45,47,48)        -31.068                                          !
 ! D116  D(33,45,47,49)       -144.9138                                         !
 ! D117  D(33,45,47,50)         94.9824                                         !
 ! D118  D(46,45,47,48)        124.8345                                         !
 ! D119  D(46,45,47,49)         10.9886                                         !
 ! D120  D(46,45,47,50)       -109.1151                                         !
 ! D121  D(45,47,49,53)        175.8897                                         !
 ! D122  D(45,47,49,67)         -4.3734                                         !
 ! D123  D(48,47,49,53)         59.0465                                         !
 ! D124  D(48,47,49,67)       -121.2167                                         !
 ! D125  D(50,47,49,53)        -62.5386                                         !
 ! D126  D(50,47,49,67)        117.1982                                         !
 ! D127  D(45,47,50,51)         46.4773                                         !
 ! D128  D(45,47,50,52)        160.6248                                         !
 ! D129  D(45,47,50,54)        -76.3829                                         !
 ! D130  D(48,47,50,51)        171.8771                                         !
 ! D131  D(48,47,50,52)        -73.9755                                         !
 ! D132  D(48,47,50,54)         49.0168                                         !
 ! D133  D(49,47,50,51)        -69.814                                          !
 ! D134  D(49,47,50,52)         44.3335                                         !
 ! D135  D(49,47,50,54)        167.3258                                         !
 ! D136  D(47,50,54,55)        164.6661                                         !
 ! D137  D(47,50,54,56)         49.3621                                         !
 ! D138  D(47,50,54,57)        -74.5671                                         !
 ! D139  D(51,50,54,55)         42.8292                                         !
 ! D140  D(51,50,54,56)        -72.4747                                         !
 ! D141  D(51,50,54,57)        163.5961                                         !
 ! D142  D(52,50,54,55)        -74.3389                                         !
 ! D143  D(52,50,54,56)        170.3572                                         !
 ! D144  D(52,50,54,57)         46.428                                          !
 ! D145  D(50,54,57,58)       -121.0676                                         !
 ! D146  D(50,54,57,59)         -5.2971                                         !
 ! D147  D(50,54,57,60)        118.7891                                         !
 ! D148  D(55,54,57,58)         -0.0742                                         !
 ! D149  D(55,54,57,59)        115.6963                                         !
 ! D150  D(55,54,57,60)       -120.2175                                         !
 ! D151  D(56,54,57,58)        115.432                                          !
 ! D152  D(56,54,57,59)       -128.7975                                         !
 ! D153  D(56,54,57,60)         -4.7113                                         !
 ! D154  D(54,57,60,61)         49.533                                          !
 ! D155  D(54,57,60,62)        171.2698                                         !
 ! D156  D(54,57,60,63)        -68.9118                                         !
 ! D157  D(58,57,60,61)        -72.8505                                         !
 ! D158  D(58,57,60,62)         48.8863                                         !
 ! D159  D(58,57,60,63)        168.7047                                         !
 ! D160  D(59,57,60,61)        174.4059                                         !
 ! D161  D(59,57,60,62)        -63.8573                                         !
 ! D162  D(59,57,60,63)         55.9611                                         !
 ! D163  D(57,60,63,64)       -173.5564                                         !
 ! D164  D(57,60,63,65)        -54.0855                                         !
 ! D165  D(57,60,63,66)         66.5801                                         !
 ! D166  D(61,60,63,64)         64.6751                                         !
 ! D167  D(61,60,63,65)       -175.8539                                         !
 ! D168  D(61,60,63,66)        -55.1884                                         !
 ! D169  D(62,60,63,64)        -51.283                                          !
 ! D170  D(62,60,63,65)         68.1879                                         !
 ! D171  D(62,60,63,66)       -171.1466                                         !
 --------------------------------------------------------------------------------
 Symmetry turned off by external request.
 Stoichiometry    C19H38N5O5(1+)
 Framework group  C1[X(C19H38N5O5)]
 Deg. of freedom   195
 Full point group                 C1      NOp   1
                          Input orientation:                          
 ---------------------------------------------------------------------
 Center     Atomic      Atomic             Coordinates (Angstroms)
 Number     Number       Type             X           Y           Z
 ---------------------------------------------------------------------
      1          7           0       -6.097686    2.153787    2.711078
      2          1           0       -6.600657    1.522106    3.340104
      3          1           0       -6.515487    3.085122    2.785998
      4          1           0       -6.164846    1.796753    1.697923
      5          6           0       -4.606195    2.141862    2.909686
      6          1           0       -4.347191    1.484445    3.741345
      7          1           0       -4.253473    3.151803    3.125984
      8          6           0       -4.063997    1.613370    1.552700
      9          8           0       -4.907984    1.353637    0.678068
     10          7           0       -2.755803    1.480923    1.451050
     11          1           0       -2.105153    1.720886    2.205071
     12          6           0       -2.048946    1.014154    0.253714
     13          1           0       -2.575638    0.141714   -0.143327
     14          6           0       -0.644431    0.647587    0.775511
     15          6           0       -1.982348    2.146291   -0.802617
     16          1           0       -3.016757    2.430706   -1.035231
     17          1           0       -1.506125    3.009415   -0.320704
     18          8           0       -0.226363    1.188240    1.802319
     19          6           0       -1.239049    1.824691   -2.114833
     20          1           0       -0.207875    1.542478   -1.873377
     21          6           0       -1.884111    0.667138   -2.890735
     22          1           0       -2.921175    0.904745   -3.157959
     23          1           0       -1.333846    0.477573   -3.819227
     24          1           0       -1.896698   -0.275215   -2.329995
     25          6           0       -1.178153    3.086433   -2.988710
     26          1           0       -2.183635    3.416281   -3.278709
     27          1           0       -0.688365    3.913615   -2.462931
     28          1           0       -0.611235    2.894261   -3.906385
     29          7           0        0.045680   -0.229016    0.028897
     30          1           0       -0.350689   -0.574496   -0.837756
     31          6           0        1.495302   -0.412569    0.134089
     32          1           0        1.873403    0.369754    0.797510
     33          6           0        2.036384   -0.222153   -1.285743
     34          6           0        1.890492   -1.799458    0.708626
     35          1           0        1.598364   -2.552633   -0.038019
     36          8           0        1.331059   -0.694991   -2.236695
     37          6           0        3.408378   -1.879570    0.940313
     38          1           0        3.719510   -1.157497    1.705153
     39          1           0        3.678575   -2.877979    1.299113
     40          1           0        4.003047   -1.669283    0.047145
     41          6           0        1.128804   -2.075514    2.012214
     42          1           0        1.343618   -1.300827    2.757557
     43          1           0        1.433221   -3.041237    2.428911
     44          1           0        0.045844   -2.101265    1.853324
     45          7           0        3.175587    0.409205   -1.412845
     46          1           0        3.843087    0.560033   -0.604603
     47          6           0        4.038171    0.534994   -2.585418
     48          1           0        3.960810   -0.356304   -3.217678
     49          6           0        5.519519    0.531709   -1.983507
     50          6           0        3.780412    1.816759   -3.377789
     51          1           0        3.728870    2.645159   -2.660945
     52          1           0        4.670893    1.987194   -3.993163
     53          8           0        6.412475    0.550553   -2.833920
     54          6           0        2.516831    1.817188   -4.256439
     55          1           0        2.289859    2.848748   -4.548763
     56          1           0        1.656079    1.477178   -3.664940
     57          6           0        2.660163    0.962154   -5.545248
     58          1           0        2.500662    1.586572   -6.431323
     59          1           0        3.687637    0.583063   -5.639068
     60          6           0        1.690554   -0.208762   -5.677821
     61          1           0        0.656818    0.099109   -5.493863
     62          1           0        1.747727   -0.665689   -6.669993
     63          7           0        1.990228   -1.289394   -4.669061
     64          1           0        1.410948   -2.119053   -4.824737
     65          1           0        2.969757   -1.581885   -4.735247
     66          1           0        1.803115   -0.959114   -3.633307
     67          8           0        5.535924    0.515422   -0.717976
 ---------------------------------------------------------------------
 Rotational constants (GHZ):           0.2421416           0.0834049           0.0703387
 Standard basis: 6-31G(d) (6D, 7F)
   511 basis functions,   964 primitive gaussians,   511 cartesian basis functions
   113 alpha electrons      113 beta electrons
       nuclear repulsion energy      3129.0235901465 Hartrees.
 NAtoms=   67 NActive=   67 NUniq=   67 SFac= 1.00D+00 NAtFMM=   60 NAOKFM=T Big=T
 Integral buffers will be    131072 words long.
 Raffenetti 2 integral format.
 Two-electron integral symmetry is turned off.
 Nuclear repulsion after empirical dispersion term =     3128.9382757357 Hartrees.
 One-electron integrals computed using PRISM.
 NBasis=   511 RedAO= T EigKep=  1.92D-03  NBF=   511
 NBsUse=   511 1.00D-06 EigRej= -1.00D+00 NBFU=   511
 Initial guess from the checkpoint file:  "conf-156.chk"
 B after Tr=     0.000000    0.000000    0.000000
         Rot=    1.000000    0.000000    0.000000    0.000000 Ang=   0.00 deg.
 Requested convergence on RMS density matrix=1.00D-08 within 128 cycles.
 Requested convergence on MAX density matrix=1.00D-06.
 Requested convergence on             energy=1.00D-06.
 No special actions if energy rises.
 SCF Done:  E(RB3LYP) =  -1396.67864962     A.U. after    1 cycles
            NFock=  1  Conv=0.79D-08     -V/T= 2.0094

 **********************************************************************

            Population analysis using the SCF Density.

 **********************************************************************

 Alpha  occ. eigenvalues --  -19.29042 -19.22872 -19.22657 -19.11246 -19.09788
 Alpha  occ. eigenvalues --  -14.62553 -14.54218 -14.51224 -14.46528 -14.43107
 Alpha  occ. eigenvalues --  -10.45844 -10.42947 -10.39941 -10.38014 -10.35919
 Alpha  occ. eigenvalues --  -10.35582 -10.32022 -10.29889 -10.29214 -10.29092
 Alpha  occ. eigenvalues --  -10.28901 -10.27776 -10.27320 -10.27306 -10.26765
 Alpha  occ. eigenvalues --  -10.26650 -10.24594 -10.24537 -10.23432  -1.21472
 Alpha  occ. eigenvalues --   -1.16129  -1.14924  -1.13023  -1.09156  -1.07897
 Alpha  occ. eigenvalues --   -1.04440  -1.03137  -0.99960  -0.95635  -0.93338
 Alpha  occ. eigenvalues --   -0.90915  -0.89523  -0.88668  -0.85914  -0.84298
 Alpha  occ. eigenvalues --   -0.80456  -0.78477  -0.77734  -0.77241  -0.76454
 Alpha  occ. eigenvalues --   -0.76185  -0.75021  -0.73226  -0.72362  -0.69982
 Alpha  occ. eigenvalues --   -0.69469  -0.68296  -0.67541  -0.66803  -0.66014
 Alpha  occ. eigenvalues --   -0.65320  -0.64738  -0.64088  -0.62533  -0.62197
 Alpha  occ. eigenvalues --   -0.60547  -0.60155  -0.58844  -0.57524  -0.57235
 Alpha  occ. eigenvalues --   -0.55943  -0.55244  -0.55120  -0.54487  -0.53910
 Alpha  occ. eigenvalues --   -0.53558  -0.53183  -0.52768  -0.52144  -0.51800
 Alpha  occ. eigenvalues --   -0.50873  -0.49464  -0.49035  -0.48700  -0.48214
 Alpha  occ. eigenvalues --   -0.47942  -0.47373  -0.46758  -0.46557  -0.45952
 Alpha  occ. eigenvalues --   -0.45732  -0.44713  -0.44654  -0.44226  -0.43963
 Alpha  occ. eigenvalues --   -0.43014  -0.42737  -0.42018  -0.41902  -0.41377
 Alpha  occ. eigenvalues --   -0.40826  -0.40632  -0.40568  -0.40232  -0.40103
 Alpha  occ. eigenvalues --   -0.38378  -0.37733  -0.36756  -0.35310  -0.34376
 Alpha  occ. eigenvalues --   -0.26205  -0.26015  -0.24004
 Alpha virt. eigenvalues --   -0.14091  -0.13737  -0.09106  -0.08241  -0.07392
 Alpha virt. eigenvalues --   -0.06811  -0.06631  -0.04017  -0.03158  -0.02328
 Alpha virt. eigenvalues --   -0.01862  -0.01212   0.00105   0.00649   0.01210
 Alpha virt. eigenvalues --    0.01645   0.02629   0.02780   0.03164   0.03729
 Alpha virt. eigenvalues --    0.03802   0.04044   0.04600   0.04863   0.05413
 Alpha virt. eigenvalues --    0.06067   0.06600   0.07200   0.07600   0.07768
 Alpha virt. eigenvalues --    0.08394   0.08612   0.08811   0.09243   0.09357
 Alpha virt. eigenvalues --    0.09783   0.09967   0.10303   0.10779   0.11149
 Alpha virt. eigenvalues --    0.12187   0.12426   0.12517   0.13158   0.13694
 Alpha virt. eigenvalues --    0.13840   0.14439   0.14776   0.15013   0.15929
 Alpha virt. eigenvalues --    0.16595   0.16767   0.17123   0.17459   0.17593
 Alpha virt. eigenvalues --    0.18413   0.18925   0.19314   0.19457   0.20285
 Alpha virt. eigenvalues --    0.22141   0.22800   0.24673   0.25326   0.27888
 Alpha virt. eigenvalues --    0.28608   0.30438   0.33335   0.33448   0.35173
 Alpha virt. eigenvalues --    0.36642   0.37522   0.38640   0.39081   0.40119
 Alpha virt. eigenvalues --    0.40781   0.41254   0.42001   0.42539   0.43045
 Alpha virt. eigenvalues --    0.43259   0.43643   0.44084   0.44847   0.44940
 Alpha virt. eigenvalues --    0.46166   0.47170   0.47219   0.48380   0.48949
 Alpha virt. eigenvalues --    0.49521   0.49665   0.50335   0.50833   0.51220
 Alpha virt. eigenvalues --    0.52916   0.53248   0.54018   0.54635   0.55330
 Alpha virt. eigenvalues --    0.55658   0.56080   0.57027   0.57877   0.58644
 Alpha virt. eigenvalues --    0.58989   0.59519   0.59718   0.60633   0.60744
 Alpha virt. eigenvalues --    0.61271   0.61795   0.62322   0.62658   0.63280
 Alpha virt. eigenvalues --    0.63526   0.63723   0.64282   0.64636   0.65012
 Alpha virt. eigenvalues --    0.65371   0.66677   0.66856   0.67792   0.67885
 Alpha virt. eigenvalues --    0.68600   0.69438   0.69953   0.71376   0.71405
 Alpha virt. eigenvalues --    0.72755   0.73002   0.73747   0.73911   0.74590
 Alpha virt. eigenvalues --    0.74702   0.75500   0.75754   0.76002   0.76358
 Alpha virt. eigenvalues --    0.76973   0.77691   0.77990   0.78664   0.79029
 Alpha virt. eigenvalues --    0.79706   0.79867   0.80436   0.81012   0.81818
 Alpha virt. eigenvalues --    0.81949   0.82327   0.82458   0.82788   0.82941
 Alpha virt. eigenvalues --    0.83461   0.83984   0.84696   0.85119   0.85382
 Alpha virt. eigenvalues --    0.85602   0.86216   0.86757   0.87226   0.87498
 Alpha virt. eigenvalues --    0.87961   0.88154   0.89005   0.90654   0.90805
 Alpha virt. eigenvalues --    0.91460   0.92633   0.92927   0.93237   0.94260
 Alpha virt. eigenvalues --    0.94291   0.95541   0.96457   0.97155   0.97820
 Alpha virt. eigenvalues --    0.98383   1.00238   1.00509   1.01030   1.03066
 Alpha virt. eigenvalues --    1.03653   1.06038   1.06191   1.06869   1.08062
 Alpha virt. eigenvalues --    1.09132   1.10036   1.11039   1.12176   1.13039
 Alpha virt. eigenvalues --    1.13419   1.13997   1.15919   1.16299   1.18773
 Alpha virt. eigenvalues --    1.20237   1.21427   1.22853   1.24260   1.25889
 Alpha virt. eigenvalues --    1.28095   1.28534   1.30428   1.32090   1.32794
 Alpha virt. eigenvalues --    1.34717   1.35223   1.36041   1.36830   1.37444
 Alpha virt. eigenvalues --    1.38294   1.39572   1.41444   1.43175   1.43369
 Alpha virt. eigenvalues --    1.43828   1.45658   1.46377   1.47759   1.48213
 Alpha virt. eigenvalues --    1.49293   1.52001   1.52309   1.53958   1.54889
 Alpha virt. eigenvalues --    1.55620   1.55844   1.56417   1.57791   1.58904
 Alpha virt. eigenvalues --    1.60182   1.61242   1.62024   1.63272   1.64512
 Alpha virt. eigenvalues --    1.64727   1.66800   1.67494   1.68440   1.68953
 Alpha virt. eigenvalues --    1.69706   1.70103   1.70849   1.71688   1.72211
 Alpha virt. eigenvalues --    1.73365   1.73604   1.74199   1.74554   1.75635
 Alpha virt. eigenvalues --    1.76590   1.76841   1.78217   1.79434   1.79678
 Alpha virt. eigenvalues --    1.80443   1.80862   1.81764   1.82189   1.83099
 Alpha virt. eigenvalues --    1.83875   1.84150   1.84334   1.85760   1.86110
 Alpha virt. eigenvalues --    1.86569   1.87027   1.87763   1.87948   1.89342
 Alpha virt. eigenvalues --    1.89931   1.90607   1.90899   1.91459   1.92421
 Alpha virt. eigenvalues --    1.92575   1.94098   1.94759   1.94975   1.95457
 Alpha virt. eigenvalues --    1.96554   1.97273   1.98481   1.99089   2.00150
 Alpha virt. eigenvalues --    2.01389   2.02137   2.02584   2.02791   2.04236
 Alpha virt. eigenvalues --    2.05431   2.07594   2.08956   2.09712   2.10813
 Alpha virt. eigenvalues --    2.11542   2.12104   2.13514   2.14843   2.15033
 Alpha virt. eigenvalues --    2.15277   2.16056   2.17280   2.17856   2.18439
 Alpha virt. eigenvalues --    2.19206   2.20232   2.21047   2.22883   2.22955
 Alpha virt. eigenvalues --    2.25169   2.25942   2.26491   2.28386   2.28959
 Alpha virt. eigenvalues --    2.29985   2.30182   2.32744   2.33556   2.34175
 Alpha virt. eigenvalues --    2.35842   2.36632   2.37383   2.39155   2.40766
 Alpha virt. eigenvalues --    2.42083   2.42278   2.43369   2.43924   2.45615
 Alpha virt. eigenvalues --    2.46340   2.46750   2.48232   2.49366   2.52316
 Alpha virt. eigenvalues --    2.52714   2.54243   2.57983   2.59366   2.59775
 Alpha virt. eigenvalues --    2.60171   2.61961   2.65101   2.66014   2.67966
 Alpha virt. eigenvalues --    2.68227   2.69782   2.70167   2.74258   2.76184
 Alpha virt. eigenvalues --    2.77429   2.79475   2.80055   2.82916   2.86670
 Alpha virt. eigenvalues --    2.88215   2.89614   2.92008   2.93635   3.00566
 Alpha virt. eigenvalues --    3.02988   3.07957   3.09845   3.19495   3.60513
 Alpha virt. eigenvalues --    3.75403   3.89558   3.92777   3.94130   3.97989
 Alpha virt. eigenvalues --    4.02044   4.04782   4.07247   4.09630   4.10944
 Alpha virt. eigenvalues --    4.11159   4.16960   4.20114   4.22258   4.23125
 Alpha virt. eigenvalues --    4.24991   4.29445   4.31099   4.32696   4.37323
 Alpha virt. eigenvalues --    4.38496   4.42216   4.45810   4.49790   4.51909
 Alpha virt. eigenvalues --    4.58196   4.61064   4.65997
          Condensed to atoms (all electrons):
 Mulliken charges:
               1
     1  N   -0.750905
     2  H    0.424237
     3  H    0.424096
     4  H    0.439526
     5  C   -0.277052
     6  H    0.250940
     7  H    0.250377
     8  C    0.641330
     9  O   -0.533825
    10  N   -0.601736
    11  H    0.377768
    12  C   -0.068859
    13  H    0.186974
    14  C    0.623081
    15  C   -0.260086
    16  H    0.162230
    17  H    0.158307
    18  O   -0.537218
    19  C   -0.105078
    20  H    0.157937
    21  C   -0.452864
    22  H    0.158340
    23  H    0.145712
    24  H    0.133666
    25  C   -0.448915
    26  H    0.149725
    27  H    0.158790
    28  H    0.151290
    29  N   -0.612593
    30  H    0.362909
    31  C   -0.045317
    32  H    0.196059
    33  C    0.627505
    34  C   -0.085094
    35  H    0.128498
    36  O   -0.667245
    37  C   -0.468258
    38  H    0.165018
    39  H    0.157879
    40  H    0.179073
    41  C   -0.445936
    42  H    0.162429
    43  H    0.160495
    44  H    0.132080
    45  N   -0.566254
    46  H    0.388561
    47  C   -0.098792
    48  H    0.089111
    49  C    0.607607
    50  C   -0.264471
    51  H    0.152186
    52  H    0.189654
    53  O   -0.559489
    54  C   -0.301451
    55  H    0.157883
    56  H    0.146873
    57  C   -0.285574
    58  H    0.181683
    59  H    0.179468
    60  C   -0.198620
    61  H    0.197626
    62  H    0.195254
    63  N   -0.773524
    64  H    0.390188
    65  H    0.399457
    66  H    0.469658
    67  O   -0.602324
 Sum of Mulliken charges =   1.00000
 Mulliken charges with hydrogens summed into heavy atoms:
               1
     1  N    0.536954
     5  C    0.224266
     8  C    0.641330
     9  O   -0.533825
    10  N   -0.223969
    12  C    0.118115
    14  C    0.623081
    15  C    0.060451
    18  O   -0.537218
    19  C    0.052858
    21  C   -0.015146
    25  C    0.010891
    29  N   -0.249684
    31  C    0.150742
    33  C    0.627505
    34  C    0.043404
    36  O   -0.667245
    37  C    0.033711
    41  C    0.009068
    45  N   -0.177693
    47  C   -0.009680
    49  C    0.607607
    50  C    0.077369
    53  O   -0.559489
    54  C    0.003305
    57  C    0.075577
    60  C    0.194260
    63  N    0.485779
    67  O   -0.602324
 Electronic spatial extent (au):  <R**2>=          16871.6518
 Charge=              1.0000 electrons
 Dipole moment (field-independent basis, Debye):
    X=            -29.0438    Y=              4.2449    Z=              0.1512  Tot=             29.3528
 Quadrupole moment (field-independent basis, Debye-Ang):
   XX=           -134.5274   YY=           -139.7031   ZZ=            -72.4502
   XY=            -64.5768   XZ=            -68.6712   YZ=             37.0196
 Traceless Quadrupole moment (field-independent basis, Debye-Ang):
   XX=            -18.9671   YY=            -24.1429   ZZ=             43.1100
   XY=            -64.5768   XZ=            -68.6712   YZ=             37.0196
 Octapole moment (field-independent basis, Debye-Ang**2):
  XXX=          -1696.5767  YYY=           -258.0720  ZZZ=            283.0006  XYY=           -205.9229
  XXY=            117.1099  XXZ=            720.5106  XZZ=           -225.1835  YZZ=           -100.4326
  YYZ=            204.6638  XYZ=           -111.2592
 Hexadecapole moment (field-independent basis, Debye-Ang**3):
 XXXX=         -10609.0793 YYYY=          -2306.9002 ZZZZ=          -5205.0144 XXXY=          -1349.5443
 XXXZ=           1094.1628 YYYX=            448.0395 YYYZ=            628.9709 ZZZX=           1102.9399
 ZZZY=            964.0948 XXYY=          -1458.5385 XXZZ=          -2056.6732 YYZZ=          -1307.6536
 XXYZ=           1160.5620 YYXZ=            337.6128 ZZXY=           -324.0018
 N-N= 3.128938275736D+03 E-N=-9.487862632913D+03  KE= 1.383612299004D+03
 Unable to Open any file for archive entry.
 1\1\GINC-AMR-241\SP\RB3LYP\6-31G(d)\C19H38N5O5(1+)\KENGMITH\02-Jun-202
 2\0\\# B3LYP/6-31G* empiricaldispersion=gd3 guess=read geom=check nosy
 mm integral(ultrafinegrid)\\Candidate Structure: Conf:156 Charge calc 
 in gas phase\\1,1\N,0,-6.0976862649,2.1537870974,2.7110784443\H,0,-6.6
 006574767,1.5221059958,3.3401038974\H,0,-6.5154870722,3.0851217722,2.7
 859980957\H,0,-6.1648459434,1.7967529496,1.6979227346\C,0,-4.606195331
 2,2.1418616016,2.9096856883\H,0,-4.3471908448,1.4844450724,3.741344638
 9\H,0,-4.2534731266,3.15180269,3.1259842854\C,0,-4.0639972139,1.613370
 1207,1.5526998475\O,0,-4.9079843472,1.3536371998,0.6780675425\N,0,-2.7
 558031441,1.4809226596,1.4510501174\H,0,-2.1051525551,1.7208861429,2.2
 050711981\C,0,-2.0489455392,1.0141544822,0.2537135154\H,0,-2.575637620
 8,0.1417142387,-0.1433272501\C,0,-0.6444309922,0.6475871677,0.77551073
 53\C,0,-1.982347988,2.1462908354,-0.8026172123\H,0,-3.0167569177,2.430
 7055909,-1.0352310271\H,0,-1.5061249624,3.0094145949,-0.3207042934\O,0
 ,-0.2263625848,1.1882398091,1.802319024\C,0,-1.2390492077,1.8246914413
 ,-2.1148333682\H,0,-0.2078751682,1.5424778488,-1.8733774627\C,0,-1.884
 1114189,0.667138053,-2.8907350135\H,0,-2.9211752177,0.9047449452,-3.15
 79592042\H,0,-1.3338460482,0.4775730951,-3.8192270294\H,0,-1.896698097
 2,-0.2752150642,-2.3299946881\C,0,-1.1781526265,3.0864328976,-2.988710
 3237\H,0,-2.1836354811,3.4162809598,-3.2787092935\H,0,-0.688364757,3.9
 136146688,-2.4629306237\H,0,-0.6112349723,2.8942607534,-3.906385303\N,
 0,0.0456800955,-0.2290156835,0.0288970528\H,0,-0.3506894724,-0.5744955
 159,-0.837756212\C,0,1.4953017945,-0.4125694458,0.1340890243\H,0,1.873
 403322,0.3697540171,0.7975101344\C,0,2.0363841348,-0.2221527601,-1.285
 7429363\C,0,1.8904919903,-1.7994583551,0.708626449\H,0,1.5983638637,-2
 .5526332022,-0.0380190483\O,0,1.3310592161,-0.6949909111,-2.2366946906
 \C,0,3.4083778606,-1.8795704977,0.9403131804\H,0,3.7195098819,-1.15749
 68558,1.7051529253\H,0,3.6785750621,-2.8779790665,1.2991125045\H,0,4.0
 03046652,-1.6692826523,0.0471446673\C,0,1.1288041361,-2.0755138635,2.0
 122138576\H,0,1.3436180059,-1.3008267821,2.7575573545\H,0,1.4332213264
 ,-3.0412367293,2.4289111596\H,0,0.0458436976,-2.101264679,1.8533244404
 \N,0,3.1755865001,0.4092052697,-1.4128447007\H,0,3.8430873448,0.560032
 575,-0.6046030603\C,0,4.0381705003,0.5349943384,-2.5854179824\H,0,3.96
 0810262,-0.3563044996,-3.2176780796\C,0,5.5195185838,0.5317086301,-1.9
 835069497\C,0,3.7804123442,1.8167592535,-3.3777894776\H,0,3.7288697117
 ,2.6451589669,-2.660945335\H,0,4.670893392,1.9871935845,-3.9931632506\
 O,0,6.4124750968,0.5505533078,-2.8339200311\C,0,2.5168306652,1.8171883
 054,-4.2564386263\H,0,2.2898585553,2.848748271,-4.5487632707\H,0,1.656
 0790985,1.4771778693,-3.664939647\C,0,2.6601630195,0.9621536964,-5.545
 2484887\H,0,2.5006624903,1.586572158,-6.4313226989\H,0,3.6876373074,0.
 5830634248,-5.6390679194\C,0,1.6905536932,-0.2087622592,-5.6778211322\
 H,0,0.6568182104,0.0991090265,-5.4938625249\H,0,1.7477273015,-0.665688
 5568,-6.6699926353\N,0,1.9902278514,-1.2893941158,-4.6690610387\H,0,1.
 4109476378,-2.1190530736,-4.8247372018\H,0,2.9697574539,-1.581885254,-
 4.7352472317\H,0,1.8031152993,-0.9591136055,-3.6333072094\O,0,5.535923
 8335,0.5154223604,-0.7179764626\\Version=ES64L-G16RevC.01\HF=-1396.678
 6496\RMSD=7.863e-09\Dipole=-12.4266639,0.5326104,2.0288925\Quadrupole=
 -14.1015984,-17.9496525,32.051251,-48.0112576,-51.0553338,27.5231579\P
 G=C01 [X(C19H38N5O5)]\\@
 The archive entry for this job was punched.


 The number of Unix installations has grown to 10,
  with more expected.
                  -- The Unix Programmer's Manual,
                     2nd Edition, June, 1972.
 Job cpu time:       0 days  0 hours  1 minutes 14.2 seconds.
 Elapsed time:       0 days  0 hours  0 minutes 20.0 seconds.
 File lengths (MBytes):  RWF=    256 Int=      0 D2E=      0 Chk=     40 Scr=     16
 Normal termination of Gaussian 16 at Thu Jun  2 03:14:55 2022.
