 Entering Gaussian System, Link 0=/opt/software/Gaussian/g16-AVX2-C.01/g16/g16
 Input=charge-conf-797.com
 Output=charge-conf-797.log
 Initial command:
 /opt/software/Gaussian/g16-AVX2-C.01/g16/l1.exe "/mnt/gs18/scratch/users/kengmith/Gau-723.inp" -scrdir="/mnt/gs18/scratch/users/kengmith/"
 Entering Link 1 = /opt/software/Gaussian/g16-AVX2-C.01/g16/l1.exe PID=       735.
  
 Copyright (c) 1988-2019, Gaussian, Inc.  All Rights Reserved.
  
 This is part of the Gaussian(R) 16 program.  It is based on
 the Gaussian(R) 09 system (copyright 2009, Gaussian, Inc.),
 the Gaussian(R) 03 system (copyright 2003, Gaussian, Inc.),
 the Gaussian(R) 98 system (copyright 1998, Gaussian, Inc.),
 the Gaussian(R) 94 system (copyright 1995, Gaussian, Inc.),
 the Gaussian 92(TM) system (copyright 1992, Gaussian, Inc.),
 the Gaussian 90(TM) system (copyright 1990, Gaussian, Inc.),
 the Gaussian 88(TM) system (copyright 1988, Gaussian, Inc.),
 the Gaussian 86(TM) system (copyright 1986, Carnegie Mellon
 University), and the Gaussian 82(TM) system (copyright 1983,
 Carnegie Mellon University). Gaussian is a federally registered
 trademark of Gaussian, Inc.
  
 This software contains proprietary and confidential information,
 including trade secrets, belonging to Gaussian, Inc.
  
 This software is provided under written license and may be
 used, copied, transmitted, or stored only in accord with that
 written license.
  
 The following legend is applicable only to US Government
 contracts under FAR:
  
                    RESTRICTED RIGHTS LEGEND
  
 Use, reproduction and disclosure by the US Government is
 subject to restrictions as set forth in subparagraphs (a)
 and (c) of the Commercial Computer Software - Restricted
 Rights clause in FAR 52.227-19.
  
 Gaussian, Inc.
 340 Quinnipiac St., Bldg. 40, Wallingford CT 06492
  
  
 ---------------------------------------------------------------
 Warning -- This program may not be used in any manner that
 competes with the business of Gaussian, Inc. or will provide
 assistance to any competitor of Gaussian, Inc.  The licensee
 of this program is prohibited from giving any competitor of
 Gaussian, Inc. access to this program.  By using this program,
 the user acknowledges that Gaussian, Inc. is engaged in the
 business of creating and licensing software in the field of
 computational chemistry and represents and warrants to the
 licensee that it is not a competitor of Gaussian, Inc. and that
 it will not use this program in any manner prohibited above.
 ---------------------------------------------------------------
  

 Cite this work as:
 Gaussian 16, Revision C.01,
 M. J. Frisch, G. W. Trucks, H. B. Schlegel, G. E. Scuseria, 
 M. A. Robb, J. R. Cheeseman, G. Scalmani, V. Barone, 
 G. A. Petersson, H. Nakatsuji, X. Li, M. Caricato, A. V. Marenich, 
 J. Bloino, B. G. Janesko, R. Gomperts, B. Mennucci, H. P. Hratchian, 
 J. V. Ortiz, A. F. Izmaylov, J. L. Sonnenberg, D. Williams-Young, 
 F. Ding, F. Lipparini, F. Egidi, J. Goings, B. Peng, A. Petrone, 
 T. Henderson, D. Ranasinghe, V. G. Zakrzewski, J. Gao, N. Rega, 
 G. Zheng, W. Liang, M. Hada, M. Ehara, K. Toyota, R. Fukuda, 
 J. Hasegawa, M. Ishida, T. Nakajima, Y. Honda, O. Kitao, H. Nakai, 
 T. Vreven, K. Throssell, J. A. Montgomery, Jr., J. E. Peralta, 
 F. Ogliaro, M. J. Bearpark, J. J. Heyd, E. N. Brothers, K. N. Kudin, 
 V. N. Staroverov, T. A. Keith, R. Kobayashi, J. Normand, 
 K. Raghavachari, A. P. Rendell, J. C. Burant, S. S. Iyengar, 
 J. Tomasi, M. Cossi, J. M. Millam, M. Klene, C. Adamo, R. Cammi, 
 J. W. Ochterski, R. L. Martin, K. Morokuma, O. Farkas, 
 J. B. Foresman, and D. J. Fox, Gaussian, Inc., Wallingford CT, 2019.
 
 ******************************************
 Gaussian 16:  ES64L-G16RevC.01  3-Jul-2019
                 2-Jun-2022 
 ******************************************
 %mem=8gb
 %nproc=4
 Will use up to    4 processors via shared memory.
 %chk=conf-797.chk
 ----------------------------------------------------------------------
 # B3LYP/6-31G* empiricaldispersion=gd3 guess=read geom=check nosymm in
 tegral(ultrafinegrid)
 ----------------------------------------------------------------------
 1/29=2,38=1,172=1/1;
 2/12=2,15=1,40=1/2;
 3/5=1,6=6,7=1,11=2,14=-4,25=1,30=1,74=-5,75=-5,116=-2,124=31/1,2,3;
 4/5=1/1;
 5/5=2,38=6/2;
 6/7=2,8=2,9=2,10=2,28=1/1;
 99/5=1,9=1/99;
 ------------------------------------------------------
 Candidate Structure: Conf:797 Charge calc in gas phase
 ------------------------------------------------------
 Structure from the checkpoint file:  "conf-797.chk"
 Charge =  1 Multiplicity = 1
 Redundant internal coordinates found in file.  (old form).
 N,0,0.1773879414,-2.7195032338,-1.0214501856
 H,0,1.0291942475,-3.2609506138,-0.8325670985
 H,0,-0.5569942392,-3.2928928388,-1.4469152878
 H,0,0.4342870048,-1.9862732848,-1.7219915606
 C,0,-0.3425869531,-2.0250559486,0.1975297872
 H,0,0.4923067902,-1.4594678563,0.6163056194
 H,0,-0.6829670236,-2.7714224253,0.9201049079
 C,0,-1.4805899702,-1.1181551622,-0.3070599961
 O,0,-1.9794134684,-1.3708586228,-1.4018427073
 N,0,-1.7994162343,-0.0514601689,0.4552783542
 H,0,-1.2798879972,0.1080508165,1.3110675567
 C,0,-2.4523836882,1.1393255843,-0.1352468178
 H,0,-2.9873353294,0.7752248462,-1.0145938873
 C,0,-1.2868320199,2.0856410298,-0.5626121712
 C,0,-3.4102200009,1.7974423688,0.855537067
 H,0,-4.0727685415,1.016277422,1.2505580249
 H,0,-2.8229086764,2.1912826654,1.6941131703
 O,0,-1.087370294,3.1484522297,0.0070102706
 C,0,-4.2628770148,2.9381876126,0.2624838417
 H,0,-3.5766641353,3.6874501301,-0.1499515907
 C,0,-5.1930045305,2.4484966311,-0.8578602229
 H,0,-5.8670862603,1.6626558211,-0.4927593572
 H,0,-5.8136288187,3.2712758402,-1.2287906596
 H,0,-4.6443889866,2.0472894786,-1.7184485792
 C,0,-5.0733439107,3.6036443939,1.3838953987
 H,0,-5.7692304897,2.889159825,1.8427137306
 H,0,-4.4191184032,3.9925771426,2.1725712648
 H,0,-5.6642817306,4.4399283409,0.9949992773
 N,0,-0.4866438505,1.5418712409,-1.5303999918
 H,0,-0.8034471021,0.6785842102,-1.959971184
 C,0,0.9233150165,1.8269249234,-1.8043104272
 H,0,1.0072139635,2.5715283103,-2.6104532796
 C,0,1.4980791266,0.4958516688,-2.3466428138
 C,0,1.6910549735,2.3850392593,-0.5620388415
 H,0,1.0592891831,3.2038995345,-0.2144760757
 O,0,0.7605648045,-0.4859084779,-2.5516728735
 C,0,1.8031706455,1.3554930317,0.5697953543
 H,0,2.3925256917,0.4813241367,0.2693301938
 H,0,2.2834253359,1.8063815499,1.4439900681
 H,0,0.8122457976,1.0136674392,0.8864867808
 C,0,3.061881032,3.003868571,-0.8922548653
 H,0,3.8726093868,2.2637204412,-0.9307498824
 H,0,3.3433106247,3.7023834838,-0.0982489408
 H,0,3.0495804287,3.5713282868,-1.8309012641
 N,0,2.8157331799,0.4200683755,-2.5997011067
 H,0,3.4128377852,1.2016028888,-2.3715949598
 C,0,3.4363972329,-0.8446575293,-2.9745235351
 H,0,3.0843622685,-1.1157605077,-3.9744838064
 C,0,2.9957776472,-1.9518533636,-1.9931703678
 C,0,4.9681694804,-0.7035792391,-2.9684307847
 H,0,5.2363239104,0.1720690076,-3.5747225731
 H,0,5.2842327111,-0.4965588598,-1.9383751846
 O,0,2.808264999,-3.159809194,-2.5029084949
 C,0,5.7132166273,-1.9377994285,-3.5027117818
 H,0,5.408208668,-2.8244841327,-2.9332539906
 H,0,6.7748423553,-1.7975088318,-3.276743356
 C,0,5.545898803,-2.1949404494,-5.0246018683
 H,0,4.9903183992,-1.3718756417,-5.4980149975
 H,0,6.5304290114,-2.1907028569,-5.5044536536
 C,0,4.8741493432,-3.5217343451,-5.3895537678
 H,0,5.0234059193,-3.7323842971,-6.456438513
 H,0,5.3360465434,-4.3407535269,-4.8278522752
 N,0,3.4235054674,-3.5218761237,-5.05576356
 H,0,3.0297678488,-4.4421923737,-5.2586950818
 H,0,3.0478748156,-3.2408863856,-3.513535745
 H,0,2.9355913216,-2.875065292,-5.6779994353
 O,0,2.7990976669,-1.7367617866,-0.8077858678
 Recover connectivity data from disk.
                           ----------------------------
                           !    Current Parameters    !
                           ! (Angstroms and Degrees)  !
 --------------------------                            --------------------------
 ! Name  Definition              Value                                          !
 --------------------------------------------------------------------------------
 ! R1    R(1,2)                  1.0268                                         !
 ! R2    R(1,3)                  1.0243                                         !
 ! R3    R(1,4)                  1.0461                                         !
 ! R4    R(1,5)                  1.4962                                         !
 ! R5    R(5,6)                  1.0919                                         !
 ! R6    R(5,7)                  1.0932                                         !
 ! R7    R(5,8)                  1.5402                                         !
 ! R8    R(8,9)                  1.2293                                         !
 ! R9    R(8,10)                 1.3493                                         !
 ! R10   R(10,11)                1.0138                                         !
 ! R11   R(10,12)                1.4809                                         !
 ! R12   R(12,13)                1.0918                                         !
 ! R13   R(12,14)                1.561                                          !
 ! R14   R(12,15)                1.5272                                         !
 ! R15   R(14,18)                1.2222                                         !
 ! R16   R(14,29)                1.3684                                         !
 ! R17   R(15,16)                1.0978                                         !
 ! R18   R(15,17)                1.0969                                         !
 ! R19   R(15,19)                1.5427                                         !
 ! R20   R(19,20)                1.0965                                         !
 ! R21   R(19,21)                1.5363                                         !
 ! R22   R(19,25)                1.5353                                         !
 ! R23   R(21,22)                1.0978                                         !
 ! R24   R(21,23)                1.0953                                         !
 ! R25   R(21,24)                1.0966                                         !
 ! R26   R(25,26)                1.0978                                         !
 ! R27   R(25,27)                1.096                                          !
 ! R28   R(25,28)                1.0954                                         !
 ! R29   R(29,30)                1.015                                          !
 ! R30   R(29,31)                1.4643                                         !
 ! R31   R(31,32)                1.1006                                         !
 ! R32   R(31,33)                1.548                                          !
 ! R33   R(31,34)                1.5634                                         !
 ! R34   R(33,36)                1.2449                                         !
 ! R35   R(33,45)                1.3439                                         !
 ! R36   R(34,35)                1.0911                                         !
 ! R37   R(34,37)                1.5341                                         !
 ! R38   R(34,41)                1.5399                                         !
 ! R39   R(37,38)                1.0963                                         !
 ! R40   R(37,39)                1.0946                                         !
 ! R41   R(37,40)                1.095                                          !
 ! R42   R(41,42)                1.0984                                         !
 ! R43   R(41,43)                1.0943                                         !
 ! R44   R(41,44)                1.0969                                         !
 ! R45   R(45,46)                1.0096                                         !
 ! R46   R(45,47)                1.4578                                         !
 ! R47   R(47,48)                1.0942                                         !
 ! R48   R(47,49)                1.5437                                         !
 ! R49   R(47,50)                1.5383                                         !
 ! R50   R(49,53)                1.3244                                         !
 ! R51   R(49,67)                1.2207                                         !
 ! R52   R(50,51)                1.0983                                         !
 ! R53   R(50,52)                1.0972                                         !
 ! R54   R(50,54)                1.5375                                         !
 ! R55   R(54,55)                1.0971                                         !
 ! R56   R(54,56)                1.0944                                         !
 ! R57   R(54,57)                1.5525                                         !
 ! R58   R(57,58)                1.1001                                         !
 ! R59   R(57,59)                1.0953                                         !
 ! R60   R(57,60)                1.5313                                         !
 ! R61   R(60,61)                1.0977                                         !
 ! R62   R(60,62)                1.0953                                         !
 ! R63   R(60,63)                1.4886                                         !
 ! R64   R(63,64)                1.0214                                         !
 ! R65   R(63,65)                1.612                                          !
 ! R66   R(63,66)                1.0216                                         !
 ! A1    A(2,1,3)              112.0857                                         !
 ! A2    A(2,1,4)              106.8009                                         !
 ! A3    A(2,1,5)              112.5301                                         !
 ! A4    A(3,1,4)              106.8744                                         !
 ! A5    A(3,1,5)              110.4313                                         !
 ! A6    A(4,1,5)              107.7949                                         !
 ! A7    A(1,5,6)              106.6876                                         !
 ! A8    A(1,5,7)              109.2591                                         !
 ! A9    A(1,5,8)              105.2583                                         !
 ! A10   A(6,5,7)              109.7683                                         !
 ! A11   A(6,5,8)              112.6811                                         !
 ! A12   A(7,5,8)              112.862                                          !
 ! A13   A(5,8,9)              118.0692                                         !
 ! A14   A(5,8,10)             117.0641                                         !
 ! A15   A(9,8,10)             124.7347                                         !
 ! A16   A(8,10,11)            118.7008                                         !
 ! A17   A(8,10,12)            120.9686                                         !
 ! A18   A(11,10,12)           115.853                                          !
 ! A19   A(10,12,13)           105.6081                                         !
 ! A20   A(10,12,14)           105.5103                                         !
 ! A21   A(10,12,15)           111.3683                                         !
 ! A22   A(13,12,14)           110.3358                                         !
 ! A23   A(13,12,15)           111.035                                          !
 ! A24   A(14,12,15)           112.6244                                         !
 ! A25   A(12,14,18)           121.4276                                         !
 ! A26   A(12,14,29)           112.9139                                         !
 ! A27   A(18,14,29)           125.4307                                         !
 ! A28   A(12,15,16)           107.7777                                         !
 ! A29   A(12,15,17)           108.3539                                         !
 ! A30   A(12,15,19)           114.576                                          !
 ! A31   A(16,15,17)           107.6696                                         !
 ! A32   A(16,15,19)           109.3241                                         !
 ! A33   A(17,15,19)           108.9239                                         !
 ! A34   A(15,19,20)           107.696                                          !
 ! A35   A(15,19,21)           112.2885                                         !
 ! A36   A(15,19,25)           109.3576                                         !
 ! A37   A(20,19,21)           108.8081                                         !
 ! A38   A(20,19,25)           107.9934                                         !
 ! A39   A(21,19,25)           110.5615                                         !
 ! A40   A(19,21,22)           110.9401                                         !
 ! A41   A(19,21,23)           110.5228                                         !
 ! A42   A(19,21,24)           112.7077                                         !
 ! A43   A(22,21,23)           107.6028                                         !
 ! A44   A(22,21,24)           107.8352                                         !
 ! A45   A(23,21,24)           107.0095                                         !
 ! A46   A(19,25,26)           110.9639                                         !
 ! A47   A(19,25,27)           111.3639                                         !
 ! A48   A(19,25,28)           110.8778                                         !
 ! A49   A(26,25,27)           107.9731                                         !
 ! A50   A(26,25,28)           107.6554                                         !
 ! A51   A(27,25,28)           107.853                                          !
 ! A52   A(14,29,30)           117.0513                                         !
 ! A53   A(14,29,31)           128.1683                                         !
 ! A54   A(30,29,31)           112.7646                                         !
 ! A55   A(29,31,32)           110.0052                                         !
 ! A56   A(29,31,33)           104.8127                                         !
 ! A57   A(29,31,34)           113.185                                          !
 ! A58   A(32,31,33)           107.2669                                         !
 ! A59   A(32,31,34)           107.6413                                         !
 ! A60   A(33,31,34)           113.7673                                         !
 ! A61   A(31,33,36)           121.0542                                         !
 ! A62   A(31,33,45)           118.5887                                         !
 ! A63   A(36,33,45)           120.3565                                         !
 ! A64   A(31,34,35)           103.6917                                         !
 ! A65   A(31,34,37)           112.4915                                         !
 ! A66   A(31,34,41)           114.2198                                         !
 ! A67   A(35,34,37)           108.1169                                         !
 ! A68   A(35,34,41)           106.3898                                         !
 ! A69   A(37,34,41)           111.2751                                         !
 ! A70   A(34,37,38)           111.8522                                         !
 ! A71   A(34,37,39)           110.1718                                         !
 ! A72   A(34,37,40)           110.8993                                         !
 ! A73   A(38,37,39)           108.1489                                         !
 ! A74   A(38,37,40)           108.4721                                         !
 ! A75   A(39,37,40)           107.1365                                         !
 ! A76   A(34,41,42)           113.1898                                         !
 ! A77   A(34,41,43)           109.2605                                         !
 ! A78   A(34,41,44)           112.4218                                         !
 ! A79   A(42,41,43)           105.4094                                         !
 ! A80   A(42,41,44)           109.0788                                         !
 ! A81   A(43,41,44)           107.0705                                         !
 ! A82   A(33,45,46)           119.5823                                         !
 ! A83   A(33,45,47)           120.9827                                         !
 ! A84   A(46,45,47)           118.5447                                         !
 ! A85   A(45,47,48)           108.2358                                         !
 ! A86   A(45,47,49)           109.7099                                         !
 ! A87   A(45,47,50)           110.0821                                         !
 ! A88   A(48,47,49)           108.1444                                         !
 ! A89   A(48,47,50)           110.2857                                         !
 ! A90   A(49,47,50)           110.3334                                         !
 ! A91   A(47,49,53)           116.7366                                         !
 ! A92   A(47,49,67)           122.4748                                         !
 ! A93   A(53,49,67)           120.7727                                         !
 ! A94   A(47,50,51)           108.3039                                         !
 ! A95   A(47,50,52)           107.9315                                         !
 ! A96   A(47,50,54)           114.0507                                         !
 ! A97   A(51,50,52)           107.3071                                         !
 ! A98   A(51,50,54)           109.261                                          !
 ! A99   A(52,50,54)           109.7624                                         !
 ! A100  A(50,54,55)           109.4941                                         !
 ! A101  A(50,54,56)           107.1822                                         !
 ! A102  A(50,54,57)           114.9221                                         !
 ! A103  A(55,54,56)           105.4335                                         !
 ! A104  A(55,54,57)           110.1825                                         !
 ! A105  A(56,54,57)           109.1579                                         !
 ! A106  A(54,57,58)           110.6316                                         !
 ! A107  A(54,57,59)           109.3879                                         !
 ! A108  A(54,57,60)           115.1141                                         !
 ! A109  A(58,57,59)           105.2207                                         !
 ! A110  A(58,57,60)           108.9141                                         !
 ! A111  A(59,57,60)           107.0539                                         !
 ! A112  A(57,60,61)           109.7717                                         !
 ! A113  A(57,60,62)           109.9187                                         !
 ! A114  A(57,60,63)           111.972                                          !
 ! A115  A(61,60,62)           107.3139                                         !
 ! A116  A(61,60,63)           110.5144                                         !
 ! A117  A(62,60,63)           107.2119                                         !
 ! A118  A(60,63,64)           109.3426                                         !
 ! A119  A(60,63,65)           116.2064                                         !
 ! A120  A(60,63,66)           109.1964                                         !
 ! A121  A(64,63,65)           104.9113                                         !
 ! A122  A(64,63,66)           105.3891                                         !
 ! A123  A(65,63,66)           111.1663                                         !
 ! D1    D(2,1,5,6)             52.2465                                         !
 ! D2    D(2,1,5,7)            -66.3579                                         !
 ! D3    D(2,1,5,8)            172.183                                          !
 ! D4    D(3,1,5,6)            178.3268                                         !
 ! D5    D(3,1,5,7)             59.7224                                         !
 ! D6    D(3,1,5,8)            -61.7368                                         !
 ! D7    D(4,1,5,6)            -65.2568                                         !
 ! D8    D(4,1,5,7)            176.1388                                         !
 ! D9    D(4,1,5,8)             54.6797                                         !
 ! D10   D(1,5,8,9)             19.2278                                         !
 ! D11   D(1,5,8,10)          -156.7969                                         !
 ! D12   D(6,5,8,9)            135.1147                                         !
 ! D13   D(6,5,8,10)           -40.91                                           !
 ! D14   D(7,5,8,9)            -99.8539                                         !
 ! D15   D(7,5,8,10)            84.1214                                         !
 ! D16   D(5,8,10,11)            0.3991                                         !
 ! D17   D(5,8,10,12)          155.6783                                         !
 ! D18   D(9,8,10,11)         -175.332                                          !
 ! D19   D(9,8,10,12)          -20.0528                                         !
 ! D20   D(8,10,12,13)          26.1405                                         !
 ! D21   D(8,10,12,14)         -90.731                                          !
 ! D22   D(8,10,12,15)         146.7705                                         !
 ! D23   D(11,10,12,13)       -177.9144                                         !
 ! D24   D(11,10,12,14)         65.2141                                         !
 ! D25   D(11,10,12,15)        -57.2844                                         !
 ! D26   D(10,12,14,18)       -111.5479                                         !
 ! D27   D(10,12,14,29)         63.252                                          !
 ! D28   D(13,12,14,18)        134.8339                                         !
 ! D29   D(13,12,14,29)        -50.3661                                         !
 ! D30   D(15,12,14,18)         10.1415                                         !
 ! D31   D(15,12,14,29)       -175.0585                                         !
 ! D32   D(10,12,15,16)        -50.7741                                         !
 ! D33   D(10,12,15,17)         65.4707                                         !
 ! D34   D(10,12,15,19)       -172.6956                                         !
 ! D35   D(13,12,15,16)         66.6136                                         !
 ! D36   D(13,12,15,17)       -177.1416                                         !
 ! D37   D(13,12,15,19)        -55.3079                                         !
 ! D38   D(14,12,15,16)       -169.0782                                         !
 ! D39   D(14,12,15,17)        -52.8334                                         !
 ! D40   D(14,12,15,19)         69.0003                                         !
 ! D41   D(12,14,29,30)          9.1471                                         !
 ! D42   D(12,14,29,31)       -153.4105                                         !
 ! D43   D(18,14,29,30)       -176.2992                                         !
 ! D44   D(18,14,29,31)         21.1432                                         !
 ! D45   D(12,15,19,20)        -57.2663                                         !
 ! D46   D(12,15,19,21)         62.5038                                         !
 ! D47   D(12,15,19,25)       -174.3811                                         !
 ! D48   D(16,15,19,20)       -178.3408                                         !
 ! D49   D(16,15,19,21)        -58.5707                                         !
 ! D50   D(16,15,19,25)         64.5444                                         !
 ! D51   D(17,15,19,20)         64.2558                                         !
 ! D52   D(17,15,19,21)       -175.974                                          !
 ! D53   D(17,15,19,25)        -52.859                                          !
 ! D54   D(15,19,21,22)         58.3602                                         !
 ! D55   D(15,19,21,23)        177.6346                                         !
 ! D56   D(15,19,21,24)        -62.6792                                         !
 ! D57   D(20,19,21,22)        177.4807                                         !
 ! D58   D(20,19,21,23)        -63.245                                          !
 ! D59   D(20,19,21,24)         56.4412                                         !
 ! D60   D(25,19,21,22)        -64.0758                                         !
 ! D61   D(25,19,21,23)         55.1986                                         !
 ! D62   D(25,19,21,24)        174.8848                                         !
 ! D63   D(15,19,25,26)        -62.2552                                         !
 ! D64   D(15,19,25,27)         58.0561                                         !
 ! D65   D(15,19,25,28)        178.1573                                         !
 ! D66   D(20,19,25,26)       -179.1823                                         !
 ! D67   D(20,19,25,27)        -58.871                                          !
 ! D68   D(20,19,25,28)         61.2303                                         !
 ! D69   D(21,19,25,26)         61.8789                                         !
 ! D70   D(21,19,25,27)       -177.8097                                         !
 ! D71   D(21,19,25,28)        -57.7085                                         !
 ! D72   D(14,29,31,32)        -96.3991                                         !
 ! D73   D(14,29,31,33)        148.5755                                         !
 ! D74   D(14,29,31,34)         24.0507                                         !
 ! D75   D(30,29,31,32)        100.4294                                         !
 ! D76   D(30,29,31,33)        -14.596                                          !
 ! D77   D(30,29,31,34)       -139.1209                                         !
 ! D78   D(29,31,33,36)          5.0355                                         !
 ! D79   D(29,31,33,45)       -175.2588                                         !
 ! D80   D(32,31,33,36)       -111.8858                                         !
 ! D81   D(32,31,33,45)         67.8199                                         !
 ! D82   D(34,31,33,36)        129.1901                                         !
 ! D83   D(34,31,33,45)        -51.1042                                         !
 ! D84   D(29,31,34,35)        -50.8224                                         !
 ! D85   D(29,31,34,37)         65.7462                                         !
 ! D86   D(29,31,34,41)       -166.1658                                         !
 ! D87   D(32,31,34,35)         70.9624                                         !
 ! D88   D(32,31,34,37)       -172.469                                          !
 ! D89   D(32,31,34,41)        -44.381                                          !
 ! D90   D(33,31,34,35)       -170.3276                                         !
 ! D91   D(33,31,34,37)        -53.759                                          !
 ! D92   D(33,31,34,41)         74.329                                          !
 ! D93   D(31,33,45,46)          4.3593                                         !
 ! D94   D(31,33,45,47)        173.4023                                         !
 ! D95   D(36,33,45,46)       -175.9329                                         !
 ! D96   D(36,33,45,47)         -6.8899                                         !
 ! D97   D(31,34,37,38)         63.634                                          !
 ! D98   D(31,34,37,39)       -176.044                                          !
 ! D99   D(31,34,37,40)        -57.6007                                         !
 ! D100  D(35,34,37,38)        177.5259                                         !
 ! D101  D(35,34,37,39)        -62.1522                                         !
 ! D102  D(35,34,37,40)         56.2912                                         !
 ! D103  D(41,34,37,38)        -65.9868                                         !
 ! D104  D(41,34,37,39)         54.3351                                         !
 ! D105  D(41,34,37,40)        172.7785                                         !
 ! D106  D(31,34,41,42)        -85.3824                                         !
 ! D107  D(31,34,41,43)        157.495                                          !
 ! D108  D(31,34,41,44)         38.773                                          !
 ! D109  D(35,34,41,42)        160.8616                                         !
 ! D110  D(35,34,41,43)         43.739                                          !
 ! D111  D(35,34,41,44)        -74.983                                          !
 ! D112  D(37,34,41,42)         43.3221                                         !
 ! D113  D(37,34,41,43)        -73.8005                                         !
 ! D114  D(37,34,41,44)        167.4776                                         !
 ! D115  D(33,45,47,48)         69.1002                                         !
 ! D116  D(33,45,47,49)        -48.6955                                         !
 ! D117  D(33,45,47,50)       -170.2946                                         !
 ! D118  D(46,45,47,48)       -121.7458                                         !
 ! D119  D(46,45,47,49)        120.4586                                         !
 ! D120  D(46,45,47,50)         -1.1406                                         !
 ! D121  D(45,47,49,53)        143.7689                                         !
 ! D122  D(45,47,49,67)        -34.792                                          !
 ! D123  D(48,47,49,53)         25.9164                                         !
 ! D124  D(48,47,49,67)       -152.6445                                         !
 ! D125  D(50,47,49,53)        -94.7827                                         !
 ! D126  D(50,47,49,67)         86.6564                                         !
 ! D127  D(45,47,50,51)        -51.6193                                         !
 ! D128  D(45,47,50,52)         64.2545                                         !
 ! D129  D(45,47,50,54)       -173.4973                                         !
 ! D130  D(48,47,50,51)         67.7444                                         !
 ! D131  D(48,47,50,52)       -176.3818                                         !
 ! D132  D(48,47,50,54)        -54.1336                                         !
 ! D133  D(49,47,50,51)       -172.8465                                         !
 ! D134  D(49,47,50,52)        -56.9727                                         !
 ! D135  D(49,47,50,54)         65.2755                                         !
 ! D136  D(47,50,54,55)        -55.7146                                         !
 ! D137  D(47,50,54,56)       -169.6028                                         !
 ! D138  D(47,50,54,57)         68.9005                                         !
 ! D139  D(51,50,54,55)       -177.0638                                         !
 ! D140  D(51,50,54,56)         69.048                                          !
 ! D141  D(51,50,54,57)        -52.4487                                         !
 ! D142  D(52,50,54,55)         65.5233                                         !
 ! D143  D(52,50,54,56)        -48.3649                                         !
 ! D144  D(52,50,54,57)       -169.8615                                         !
 ! D145  D(50,54,57,58)          5.8732                                         !
 ! D146  D(50,54,57,59)        121.3341                                         !
 ! D147  D(50,54,57,60)       -118.114                                          !
 ! D148  D(55,54,57,58)        130.1261                                         !
 ! D149  D(55,54,57,59)       -114.413                                          !
 ! D150  D(55,54,57,60)          6.1389                                         !
 ! D151  D(56,54,57,58)       -114.5424                                         !
 ! D152  D(56,54,57,59)          0.9185                                         !
 ! D153  D(56,54,57,60)        121.4704                                         !
 ! D154  D(54,57,60,61)       -165.8804                                         !
 ! D155  D(54,57,60,62)        -48.0646                                         !
 ! D156  D(54,57,60,63)         70.9861                                         !
 ! D157  D(58,57,60,61)         69.2318                                         !
 ! D158  D(58,57,60,62)       -172.9524                                         !
 ! D159  D(58,57,60,63)        -53.9016                                         !
 ! D160  D(59,57,60,61)        -44.0591                                         !
 ! D161  D(59,57,60,62)         73.7567                                         !
 ! D162  D(59,57,60,63)       -167.1925                                         !
 ! D163  D(57,60,63,64)       -176.3799                                         !
 ! D164  D(57,60,63,65)        -57.9074                                         !
 ! D165  D(57,60,63,66)         68.7841                                         !
 ! D166  D(61,60,63,64)         60.9073                                         !
 ! D167  D(61,60,63,65)        179.3799                                         !
 ! D168  D(61,60,63,66)        -53.9287                                         !
 ! D169  D(62,60,63,64)        -55.7443                                         !
 ! D170  D(62,60,63,65)         62.7282                                         !
 ! D171  D(62,60,63,66)       -170.5803                                         !
 --------------------------------------------------------------------------------
 Symmetry turned off by external request.
 Stoichiometry    C19H38N5O5(1+)
 Framework group  C1[X(C19H38N5O5)]
 Deg. of freedom   195
 Full point group                 C1      NOp   1
                          Input orientation:                          
 ---------------------------------------------------------------------
 Center     Atomic      Atomic             Coordinates (Angstroms)
 Number     Number       Type             X           Y           Z
 ---------------------------------------------------------------------
      1          7           0        0.177388   -2.719503   -1.021450
      2          1           0        1.029194   -3.260951   -0.832567
      3          1           0       -0.556994   -3.292893   -1.446915
      4          1           0        0.434287   -1.986273   -1.721992
      5          6           0       -0.342587   -2.025056    0.197530
      6          1           0        0.492307   -1.459468    0.616306
      7          1           0       -0.682967   -2.771422    0.920105
      8          6           0       -1.480590   -1.118155   -0.307060
      9          8           0       -1.979413   -1.370859   -1.401843
     10          7           0       -1.799416   -0.051460    0.455278
     11          1           0       -1.279888    0.108051    1.311068
     12          6           0       -2.452384    1.139326   -0.135247
     13          1           0       -2.987335    0.775225   -1.014594
     14          6           0       -1.286832    2.085641   -0.562612
     15          6           0       -3.410220    1.797442    0.855537
     16          1           0       -4.072769    1.016277    1.250558
     17          1           0       -2.822909    2.191283    1.694113
     18          8           0       -1.087370    3.148452    0.007010
     19          6           0       -4.262877    2.938188    0.262484
     20          1           0       -3.576664    3.687450   -0.149952
     21          6           0       -5.193005    2.448497   -0.857860
     22          1           0       -5.867086    1.662656   -0.492759
     23          1           0       -5.813629    3.271276   -1.228791
     24          1           0       -4.644389    2.047289   -1.718449
     25          6           0       -5.073344    3.603644    1.383895
     26          1           0       -5.769230    2.889160    1.842714
     27          1           0       -4.419118    3.992577    2.172571
     28          1           0       -5.664282    4.439928    0.994999
     29          7           0       -0.486644    1.541871   -1.530400
     30          1           0       -0.803447    0.678584   -1.959971
     31          6           0        0.923315    1.826925   -1.804310
     32          1           0        1.007214    2.571528   -2.610453
     33          6           0        1.498079    0.495852   -2.346643
     34          6           0        1.691055    2.385039   -0.562039
     35          1           0        1.059289    3.203900   -0.214476
     36          8           0        0.760565   -0.485908   -2.551673
     37          6           0        1.803171    1.355493    0.569795
     38          1           0        2.392526    0.481324    0.269330
     39          1           0        2.283425    1.806382    1.443990
     40          1           0        0.812246    1.013667    0.886487
     41          6           0        3.061881    3.003869   -0.892255
     42          1           0        3.872609    2.263720   -0.930750
     43          1           0        3.343311    3.702383   -0.098249
     44          1           0        3.049580    3.571328   -1.830901
     45          7           0        2.815733    0.420068   -2.599701
     46          1           0        3.412838    1.201603   -2.371595
     47          6           0        3.436397   -0.844658   -2.974524
     48          1           0        3.084362   -1.115761   -3.974484
     49          6           0        2.995778   -1.951853   -1.993170
     50          6           0        4.968169   -0.703579   -2.968431
     51          1           0        5.236324    0.172069   -3.574723
     52          1           0        5.284233   -0.496559   -1.938375
     53          8           0        2.808265   -3.159809   -2.502908
     54          6           0        5.713217   -1.937799   -3.502712
     55          1           0        5.408209   -2.824484   -2.933254
     56          1           0        6.774842   -1.797509   -3.276743
     57          6           0        5.545899   -2.194940   -5.024602
     58          1           0        4.990318   -1.371876   -5.498015
     59          1           0        6.530429   -2.190703   -5.504454
     60          6           0        4.874149   -3.521734   -5.389554
     61          1           0        5.023406   -3.732384   -6.456439
     62          1           0        5.336047   -4.340754   -4.827852
     63          7           0        3.423505   -3.521876   -5.055764
     64          1           0        3.029768   -4.442192   -5.258695
     65          1           0        3.047875   -3.240886   -3.513536
     66          1           0        2.935591   -2.875065   -5.677999
     67          8           0        2.799098   -1.736762   -0.807786
 ---------------------------------------------------------------------
 Rotational constants (GHZ):           0.3354274           0.0808476           0.0730701
 Standard basis: 6-31G(d) (6D, 7F)
   511 basis functions,   964 primitive gaussians,   511 cartesian basis functions
   113 alpha electrons      113 beta electrons
       nuclear repulsion energy      3217.2281118232 Hartrees.
 NAtoms=   67 NActive=   67 NUniq=   67 SFac= 1.00D+00 NAtFMM=   60 NAOKFM=T Big=T
 Integral buffers will be    131072 words long.
 Raffenetti 2 integral format.
 Two-electron integral symmetry is turned off.
 Nuclear repulsion after empirical dispersion term =     3217.1342084132 Hartrees.
 One-electron integrals computed using PRISM.
 NBasis=   511 RedAO= T EigKep=  1.69D-03  NBF=   511
 NBsUse=   511 1.00D-06 EigRej= -1.00D+00 NBFU=   511
 Initial guess from the checkpoint file:  "conf-797.chk"
 B after Tr=     0.000000    0.000000    0.000000
         Rot=    1.000000    0.000000    0.000000    0.000000 Ang=   0.00 deg.
 Requested convergence on RMS density matrix=1.00D-08 within 128 cycles.
 Requested convergence on MAX density matrix=1.00D-06.
 Requested convergence on             energy=1.00D-06.
 No special actions if energy rises.
 SCF Done:  E(RB3LYP) =  -1396.75267942     A.U. after    2 cycles
            NFock=  2  Conv=0.75D-08     -V/T= 2.0095

 **********************************************************************

            Population analysis using the SCF Density.

 **********************************************************************

 Alpha  occ. eigenvalues --  -19.28825 -19.25759 -19.24811 -19.24669 -19.21307
 Alpha  occ. eigenvalues --  -14.57263 -14.49250 -14.48555 -14.47347 -14.45244
 Alpha  occ. eigenvalues --  -10.43256 -10.42294 -10.42235 -10.38566 -10.38422
 Alpha  occ. eigenvalues --  -10.36143 -10.34855 -10.33303 -10.33044 -10.31305
 Alpha  occ. eigenvalues --  -10.29927 -10.29856 -10.29422 -10.28080 -10.27177
 Alpha  occ. eigenvalues --  -10.26422 -10.25578 -10.23839 -10.23242  -1.20669
 Alpha  occ. eigenvalues --   -1.17569  -1.17047  -1.13114  -1.12085  -1.11658
 Alpha  occ. eigenvalues --   -1.05809  -1.04920  -1.02582  -1.02011  -0.92691
 Alpha  occ. eigenvalues --   -0.90670  -0.89423  -0.87089  -0.87047  -0.83479
 Alpha  occ. eigenvalues --   -0.81918  -0.80246  -0.78738  -0.75130  -0.74652
 Alpha  occ. eigenvalues --   -0.73717  -0.72655  -0.71976  -0.71654  -0.71245
 Alpha  occ. eigenvalues --   -0.70632  -0.70169  -0.69267  -0.66327  -0.64998
 Alpha  occ. eigenvalues --   -0.64032  -0.63358  -0.63144  -0.62355  -0.61939
 Alpha  occ. eigenvalues --   -0.59993  -0.59652  -0.58986  -0.58494  -0.57887
 Alpha  occ. eigenvalues --   -0.57519  -0.56767  -0.56555  -0.55681  -0.55452
 Alpha  occ. eigenvalues --   -0.54389  -0.53945  -0.53597  -0.52955  -0.52662
 Alpha  occ. eigenvalues --   -0.52620  -0.51674  -0.51083  -0.50329  -0.49958
 Alpha  occ. eigenvalues --   -0.49353  -0.48835  -0.48703  -0.48280  -0.47700
 Alpha  occ. eigenvalues --   -0.47567  -0.46764  -0.45643  -0.45389  -0.44789
 Alpha  occ. eigenvalues --   -0.44549  -0.44505  -0.44466  -0.43809  -0.43564
 Alpha  occ. eigenvalues --   -0.43154  -0.42128  -0.40908  -0.40524  -0.39652
 Alpha  occ. eigenvalues --   -0.39284  -0.39220  -0.39048  -0.38896  -0.38291
 Alpha  occ. eigenvalues --   -0.37858  -0.34929  -0.33667
 Alpha virt. eigenvalues --   -0.12155  -0.11943  -0.10409  -0.06847  -0.06233
 Alpha virt. eigenvalues --   -0.05252  -0.04639  -0.02899  -0.01351  -0.01239
 Alpha virt. eigenvalues --   -0.00492   0.00063   0.00692   0.00991   0.01695
 Alpha virt. eigenvalues --    0.01984   0.02179   0.02934   0.03104   0.03708
 Alpha virt. eigenvalues --    0.04097   0.04361   0.04645   0.04929   0.05198
 Alpha virt. eigenvalues --    0.05896   0.06275   0.06957   0.07344   0.07850
 Alpha virt. eigenvalues --    0.07944   0.08500   0.08622   0.08769   0.09174
 Alpha virt. eigenvalues --    0.09261   0.09460   0.09721   0.10291   0.10502
 Alpha virt. eigenvalues --    0.10953   0.11723   0.11882   0.12299   0.12353
 Alpha virt. eigenvalues --    0.12705   0.13093   0.13498   0.13766   0.14452
 Alpha virt. eigenvalues --    0.14973   0.15374   0.16194   0.16280   0.17399
 Alpha virt. eigenvalues --    0.17539   0.17687   0.18439   0.19202   0.19470
 Alpha virt. eigenvalues --    0.20569   0.21106   0.23198   0.24951   0.26274
 Alpha virt. eigenvalues --    0.27408   0.28144   0.28427   0.31075   0.32897
 Alpha virt. eigenvalues --    0.35800   0.37605   0.38594   0.39641   0.40255
 Alpha virt. eigenvalues --    0.40744   0.40841   0.41705   0.41972   0.42688
 Alpha virt. eigenvalues --    0.43169   0.43757   0.44196   0.44543   0.45408
 Alpha virt. eigenvalues --    0.45914   0.46408   0.47369   0.47907   0.48369
 Alpha virt. eigenvalues --    0.49076   0.49589   0.50732   0.51224   0.51753
 Alpha virt. eigenvalues --    0.51970   0.52717   0.53230   0.53481   0.54565
 Alpha virt. eigenvalues --    0.55240   0.55593   0.56195   0.56617   0.57096
 Alpha virt. eigenvalues --    0.57806   0.58453   0.58757   0.59567   0.59922
 Alpha virt. eigenvalues --    0.60553   0.61055   0.62183   0.62645   0.63032
 Alpha virt. eigenvalues --    0.63869   0.64449   0.64922   0.65384   0.65821
 Alpha virt. eigenvalues --    0.66135   0.67375   0.68138   0.68833   0.69368
 Alpha virt. eigenvalues --    0.70372   0.71129   0.71514   0.72010   0.72305
 Alpha virt. eigenvalues --    0.72825   0.72885   0.73063   0.74280   0.74808
 Alpha virt. eigenvalues --    0.75210   0.75534   0.76006   0.76073   0.76604
 Alpha virt. eigenvalues --    0.76859   0.77232   0.77488   0.77817   0.79103
 Alpha virt. eigenvalues --    0.79364   0.79839   0.80162   0.80571   0.81017
 Alpha virt. eigenvalues --    0.81408   0.81691   0.82463   0.82523   0.83308
 Alpha virt. eigenvalues --    0.84085   0.84481   0.84766   0.85160   0.85232
 Alpha virt. eigenvalues --    0.85447   0.85718   0.86927   0.87335   0.87887
 Alpha virt. eigenvalues --    0.88106   0.88918   0.89037   0.89643   0.90644
 Alpha virt. eigenvalues --    0.91460   0.91939   0.92300   0.93241   0.93911
 Alpha virt. eigenvalues --    0.94408   0.96073   0.96386   0.97996   0.98865
 Alpha virt. eigenvalues --    0.99350   0.99940   1.00909   1.01263   1.02656
 Alpha virt. eigenvalues --    1.04295   1.05711   1.06157   1.07348   1.08013
 Alpha virt. eigenvalues --    1.09387   1.10619   1.11726   1.13477   1.14311
 Alpha virt. eigenvalues --    1.15235   1.16879   1.17575   1.18129   1.19046
 Alpha virt. eigenvalues --    1.19990   1.21172   1.22513   1.22895   1.24795
 Alpha virt. eigenvalues --    1.26172   1.27818   1.28187   1.30214   1.30760
 Alpha virt. eigenvalues --    1.32322   1.33282   1.34335   1.35433   1.37804
 Alpha virt. eigenvalues --    1.38929   1.39356   1.40127   1.40961   1.41284
 Alpha virt. eigenvalues --    1.42437   1.42539   1.45991   1.47940   1.48265
 Alpha virt. eigenvalues --    1.49442   1.51606   1.52354   1.53302   1.53778
 Alpha virt. eigenvalues --    1.54989   1.56519   1.57441   1.57763   1.58834
 Alpha virt. eigenvalues --    1.59404   1.60895   1.61336   1.63338   1.64308
 Alpha virt. eigenvalues --    1.65318   1.65400   1.65851   1.66750   1.67317
 Alpha virt. eigenvalues --    1.67647   1.69679   1.70109   1.70944   1.71757
 Alpha virt. eigenvalues --    1.72311   1.73087   1.73371   1.73715   1.74088
 Alpha virt. eigenvalues --    1.74573   1.75741   1.75988   1.76835   1.77281
 Alpha virt. eigenvalues --    1.78678   1.79159   1.80010   1.80361   1.81223
 Alpha virt. eigenvalues --    1.81956   1.82795   1.83146   1.83770   1.85201
 Alpha virt. eigenvalues --    1.85294   1.86497   1.87040   1.88030   1.88539
 Alpha virt. eigenvalues --    1.89085   1.90084   1.90203   1.90813   1.91591
 Alpha virt. eigenvalues --    1.92229   1.92604   1.94136   1.94771   1.95433
 Alpha virt. eigenvalues --    1.96056   1.97664   1.97732   1.98336   1.98666
 Alpha virt. eigenvalues --    2.00804   2.01314   2.02558   2.03524   2.04980
 Alpha virt. eigenvalues --    2.05341   2.06500   2.06983   2.08534   2.10003
 Alpha virt. eigenvalues --    2.10177   2.11249   2.15083   2.15886   2.16416
 Alpha virt. eigenvalues --    2.17318   2.17804   2.18605   2.19072   2.19824
 Alpha virt. eigenvalues --    2.21201   2.22286   2.23137   2.24888   2.25599
 Alpha virt. eigenvalues --    2.25974   2.27327   2.27975   2.29306   2.30532
 Alpha virt. eigenvalues --    2.31389   2.31710   2.32235   2.33502   2.34254
 Alpha virt. eigenvalues --    2.34609   2.36049   2.36534   2.38769   2.40228
 Alpha virt. eigenvalues --    2.41365   2.41996   2.43555   2.44959   2.45414
 Alpha virt. eigenvalues --    2.48149   2.48673   2.49448   2.50007   2.52360
 Alpha virt. eigenvalues --    2.52722   2.53272   2.54210   2.54901   2.55833
 Alpha virt. eigenvalues --    2.58527   2.59353   2.60796   2.61577   2.62213
 Alpha virt. eigenvalues --    2.63758   2.65100   2.65459   2.68695   2.72767
 Alpha virt. eigenvalues --    2.74173   2.75665   2.80432   2.82205   2.83995
 Alpha virt. eigenvalues --    2.85312   2.90062   2.90397   2.92855   2.95305
 Alpha virt. eigenvalues --    2.99047   3.02550   3.05972   3.12926   3.74034
 Alpha virt. eigenvalues --    3.75463   3.86422   3.90471   3.95150   3.98192
 Alpha virt. eigenvalues --    4.01319   4.05337   4.05394   4.09757   4.10757
 Alpha virt. eigenvalues --    4.14259   4.15988   4.17244   4.21758   4.22723
 Alpha virt. eigenvalues --    4.26479   4.28276   4.30118   4.32262   4.37486
 Alpha virt. eigenvalues --    4.38494   4.40680   4.47166   4.49455   4.54524
 Alpha virt. eigenvalues --    4.55773   4.55919   4.62467
          Condensed to atoms (all electrons):
 Mulliken charges:
               1
     1  N   -0.751355
     2  H    0.419571
     3  H    0.407168
     4  H    0.469062
     5  C   -0.292916
     6  H    0.242479
     7  H    0.233809
     8  C    0.625472
     9  O   -0.513838
    10  N   -0.589570
    11  H    0.349097
    12  C   -0.101418
    13  H    0.206058
    14  C    0.625684
    15  C   -0.255386
    16  H    0.145992
    17  H    0.149353
    18  O   -0.497480
    19  C   -0.086164
    20  H    0.158595
    21  C   -0.454554
    22  H    0.146451
    23  H    0.160617
    24  H    0.136784
    25  C   -0.447757
    26  H    0.143217
    27  H    0.150797
    28  H    0.155393
    29  N   -0.651432
    30  H    0.376650
    31  C   -0.027400
    32  H    0.188442
    33  C    0.631984
    34  C   -0.109002
    35  H    0.219464
    36  O   -0.591437
    37  C   -0.488535
    38  H    0.177021
    39  H    0.173096
    40  H    0.116377
    41  C   -0.495619
    42  H    0.141230
    43  H    0.187408
    44  H    0.161733
    45  N   -0.614618
    46  H    0.363165
    47  C   -0.002708
    48  H    0.163281
    49  C    0.612985
    50  C   -0.330798
    51  H    0.167805
    52  H    0.179297
    53  O   -0.641818
    54  C   -0.289907
    55  H    0.161735
    56  H    0.176667
    57  C   -0.276396
    58  H    0.143763
    59  H    0.178442
    60  C   -0.156348
    61  H    0.169597
    62  H    0.178815
    63  N   -0.793130
    64  H    0.349980
    65  H    0.486046
    66  H    0.339449
    67  O   -0.510447
 Sum of Mulliken charges =   1.00000
 Mulliken charges with hydrogens summed into heavy atoms:
               1
     1  N    0.544446
     5  C    0.183372
     8  C    0.625472
     9  O   -0.513838
    10  N   -0.240474
    12  C    0.104640
    14  C    0.625684
    15  C    0.039959
    18  O   -0.497480
    19  C    0.072432
    21  C   -0.010703
    25  C    0.001651
    29  N   -0.274782
    31  C    0.161042
    33  C    0.631984
    34  C    0.110462
    36  O   -0.591437
    37  C   -0.022041
    41  C   -0.005248
    45  N   -0.251452
    47  C    0.160573
    49  C    0.612985
    50  C    0.016304
    53  O   -0.155772
    54  C    0.048495
    57  C    0.045809
    60  C    0.192064
    63  N   -0.103701
    67  O   -0.510447
 Electronic spatial extent (au):  <R**2>=          17434.8487
 Charge=              1.0000 electrons
 Dipole moment (field-independent basis, Debye):
    X=              9.7116    Y=             -8.5346    Z=            -11.3467  Tot=             17.2019
 Quadrupole moment (field-independent basis, Debye-Ang):
   XX=           -117.5916   YY=           -134.9507   ZZ=           -111.0909
   XY=            -16.3261   XZ=            -54.7092   YZ=             29.2221
 Traceless Quadrupole moment (field-independent basis, Debye-Ang):
   XX=              3.6194   YY=            -13.7396   ZZ=             10.1202
   XY=            -16.3261   XZ=            -54.7092   YZ=             29.2221
 Octapole moment (field-independent basis, Debye-Ang**2):
  XXX=           -144.3239  YYY=           -191.1871  ZZZ=            459.9293  XYY=            -42.3060
  XXY=            -52.6913  XXZ=             37.7376  XZZ=            125.2122  YZZ=           -187.2686
  YYZ=            113.0077  XYZ=            123.6194
 Hexadecapole moment (field-independent basis, Debye-Ang**3):
 XXXX=          -9811.5591 YYYY=          -4819.8997 ZZZZ=          -4328.1203 XXXY=           1570.0327
 XXXZ=           1721.4490 YYYX=           1930.6215 YYYZ=           -841.1169 ZZZX=           1612.3815
 ZZZY=           -343.3470 XXYY=          -2347.8092 XXZZ=          -1852.8578 YYZZ=          -1166.7207
 XXYZ=             61.8407 YYXZ=            495.4667 ZZXY=             40.7664
 N-N= 3.217134208413D+03 E-N=-9.661465638516D+03  KE= 1.383627743534D+03
 Unable to Open any file for archive entry.
 1\1\GINC-VIM-001\SP\RB3LYP\6-31G(d)\C19H38N5O5(1+)\KENGMITH\02-Jun-202
 2\0\\# B3LYP/6-31G* empiricaldispersion=gd3 guess=read geom=check nosy
 mm integral(ultrafinegrid)\\Candidate Structure: Conf:797 Charge calc 
 in gas phase\\1,1\N,0,0.1773879414,-2.7195032338,-1.0214501856\H,0,1.0
 291942475,-3.2609506138,-0.8325670985\H,0,-0.5569942392,-3.2928928388,
 -1.4469152878\H,0,0.4342870048,-1.9862732848,-1.7219915606\C,0,-0.3425
 869531,-2.0250559486,0.1975297872\H,0,0.4923067902,-1.4594678563,0.616
 3056194\H,0,-0.6829670236,-2.7714224253,0.9201049079\C,0,-1.4805899702
 ,-1.1181551622,-0.3070599961\O,0,-1.9794134684,-1.3708586228,-1.401842
 7073\N,0,-1.7994162343,-0.0514601689,0.4552783542\H,0,-1.2798879972,0.
 1080508165,1.3110675567\C,0,-2.4523836882,1.1393255843,-0.1352468178\H
 ,0,-2.9873353294,0.7752248462,-1.0145938873\C,0,-1.2868320199,2.085641
 0298,-0.5626121712\C,0,-3.4102200009,1.7974423688,0.855537067\H,0,-4.0
 727685415,1.016277422,1.2505580249\H,0,-2.8229086764,2.1912826654,1.69
 41131703\O,0,-1.087370294,3.1484522297,0.0070102706\C,0,-4.2628770148,
 2.9381876126,0.2624838417\H,0,-3.5766641353,3.6874501301,-0.1499515907
 \C,0,-5.1930045305,2.4484966311,-0.8578602229\H,0,-5.8670862603,1.6626
 558211,-0.4927593572\H,0,-5.8136288187,3.2712758402,-1.2287906596\H,0,
 -4.6443889866,2.0472894786,-1.7184485792\C,0,-5.0733439107,3.603644393
 9,1.3838953987\H,0,-5.7692304897,2.889159825,1.8427137306\H,0,-4.41911
 84032,3.9925771426,2.1725712648\H,0,-5.6642817306,4.4399283409,0.99499
 92773\N,0,-0.4866438505,1.5418712409,-1.5303999918\H,0,-0.8034471021,0
 .6785842102,-1.959971184\C,0,0.9233150165,1.8269249234,-1.8043104272\H
 ,0,1.0072139635,2.5715283103,-2.6104532796\C,0,1.4980791266,0.49585166
 88,-2.3466428138\C,0,1.6910549735,2.3850392593,-0.5620388415\H,0,1.059
 2891831,3.2038995345,-0.2144760757\O,0,0.7605648045,-0.4859084779,-2.5
 516728735\C,0,1.8031706455,1.3554930317,0.5697953543\H,0,2.3925256917,
 0.4813241367,0.2693301938\H,0,2.2834253359,1.8063815499,1.4439900681\H
 ,0,0.8122457976,1.0136674392,0.8864867808\C,0,3.061881032,3.003868571,
 -0.8922548653\H,0,3.8726093868,2.2637204412,-0.9307498824\H,0,3.343310
 6247,3.7023834838,-0.0982489408\H,0,3.0495804287,3.5713282868,-1.83090
 12641\N,0,2.8157331799,0.4200683755,-2.5997011067\H,0,3.4128377852,1.2
 016028888,-2.3715949598\C,0,3.4363972329,-0.8446575293,-2.9745235351\H
 ,0,3.0843622685,-1.1157605077,-3.9744838064\C,0,2.9957776472,-1.951853
 3636,-1.9931703678\C,0,4.9681694804,-0.7035792391,-2.9684307847\H,0,5.
 2363239104,0.1720690076,-3.5747225731\H,0,5.2842327111,-0.4965588598,-
 1.9383751846\O,0,2.808264999,-3.159809194,-2.5029084949\C,0,5.71321662
 73,-1.9377994285,-3.5027117818\H,0,5.408208668,-2.8244841327,-2.933253
 9906\H,0,6.7748423553,-1.7975088318,-3.276743356\C,0,5.545898803,-2.19
 49404494,-5.0246018683\H,0,4.9903183992,-1.3718756417,-5.4980149975\H,
 0,6.5304290114,-2.1907028569,-5.5044536536\C,0,4.8741493432,-3.5217343
 451,-5.3895537678\H,0,5.0234059193,-3.7323842971,-6.456438513\H,0,5.33
 60465434,-4.3407535269,-4.8278522752\N,0,3.4235054674,-3.5218761237,-5
 .05576356\H,0,3.0297678488,-4.4421923737,-5.2586950818\H,0,3.047874815
 6,-3.2408863856,-3.513535745\H,0,2.9355913216,-2.875065292,-5.67799943
 53\O,0,2.7990976669,-1.7367617866,-0.8077858678\\Version=ES64L-G16RevC
 .01\HF=-1396.7526794\RMSD=7.469e-09\Dipole=2.4531853,-3.3501776,-1.631
 329\Quadrupole=2.6909469,-10.2150516,7.5241048,-12.1380725,-40.6749729
 ,21.7258782\PG=C01 [X(C19H38N5O5)]\\@
 The archive entry for this job was punched.


 "MATHEMATICS IS THE ART OF GIVING THE SAME NAME
 TO DIFFERENT THINGS."
                    - H. POINCARE
 Job cpu time:       0 days  0 hours  3 minutes  0.9 seconds.
 Elapsed time:       0 days  0 hours  0 minutes 46.4 seconds.
 File lengths (MBytes):  RWF=    256 Int=      0 D2E=      0 Chk=     40 Scr=     16
 Normal termination of Gaussian 16 at Thu Jun  2 03:21:40 2022.
