 Entering Gaussian System, Link 0=/opt/software/Gaussian/g16-AVX2-C.01/g16/g16
 Input=charge-conf-472.com
 Output=charge-conf-472.log
 Initial command:
 /opt/software/Gaussian/g16-AVX2-C.01/g16/l1.exe "/mnt/gs18/scratch/users/kengmith/Gau-66884.inp" -scrdir="/mnt/gs18/scratch/users/kengmith/"
 Entering Link 1 = /opt/software/Gaussian/g16-AVX2-C.01/g16/l1.exe PID=     66917.
  
 Copyright (c) 1988-2019, Gaussian, Inc.  All Rights Reserved.
  
 This is part of the Gaussian(R) 16 program.  It is based on
 the Gaussian(R) 09 system (copyright 2009, Gaussian, Inc.),
 the Gaussian(R) 03 system (copyright 2003, Gaussian, Inc.),
 the Gaussian(R) 98 system (copyright 1998, Gaussian, Inc.),
 the Gaussian(R) 94 system (copyright 1995, Gaussian, Inc.),
 the Gaussian 92(TM) system (copyright 1992, Gaussian, Inc.),
 the Gaussian 90(TM) system (copyright 1990, Gaussian, Inc.),
 the Gaussian 88(TM) system (copyright 1988, Gaussian, Inc.),
 the Gaussian 86(TM) system (copyright 1986, Carnegie Mellon
 University), and the Gaussian 82(TM) system (copyright 1983,
 Carnegie Mellon University). Gaussian is a federally registered
 trademark of Gaussian, Inc.
  
 This software contains proprietary and confidential information,
 including trade secrets, belonging to Gaussian, Inc.
  
 This software is provided under written license and may be
 used, copied, transmitted, or stored only in accord with that
 written license.
  
 The following legend is applicable only to US Government
 contracts under FAR:
  
                    RESTRICTED RIGHTS LEGEND
  
 Use, reproduction and disclosure by the US Government is
 subject to restrictions as set forth in subparagraphs (a)
 and (c) of the Commercial Computer Software - Restricted
 Rights clause in FAR 52.227-19.
  
 Gaussian, Inc.
 340 Quinnipiac St., Bldg. 40, Wallingford CT 06492
  
  
 ---------------------------------------------------------------
 Warning -- This program may not be used in any manner that
 competes with the business of Gaussian, Inc. or will provide
 assistance to any competitor of Gaussian, Inc.  The licensee
 of this program is prohibited from giving any competitor of
 Gaussian, Inc. access to this program.  By using this program,
 the user acknowledges that Gaussian, Inc. is engaged in the
 business of creating and licensing software in the field of
 computational chemistry and represents and warrants to the
 licensee that it is not a competitor of Gaussian, Inc. and that
 it will not use this program in any manner prohibited above.
 ---------------------------------------------------------------
  

 Cite this work as:
 Gaussian 16, Revision C.01,
 M. J. Frisch, G. W. Trucks, H. B. Schlegel, G. E. Scuseria, 
 M. A. Robb, J. R. Cheeseman, G. Scalmani, V. Barone, 
 G. A. Petersson, H. Nakatsuji, X. Li, M. Caricato, A. V. Marenich, 
 J. Bloino, B. G. Janesko, R. Gomperts, B. Mennucci, H. P. Hratchian, 
 J. V. Ortiz, A. F. Izmaylov, J. L. Sonnenberg, D. Williams-Young, 
 F. Ding, F. Lipparini, F. Egidi, J. Goings, B. Peng, A. Petrone, 
 T. Henderson, D. Ranasinghe, V. G. Zakrzewski, J. Gao, N. Rega, 
 G. Zheng, W. Liang, M. Hada, M. Ehara, K. Toyota, R. Fukuda, 
 J. Hasegawa, M. Ishida, T. Nakajima, Y. Honda, O. Kitao, H. Nakai, 
 T. Vreven, K. Throssell, J. A. Montgomery, Jr., J. E. Peralta, 
 F. Ogliaro, M. J. Bearpark, J. J. Heyd, E. N. Brothers, K. N. Kudin, 
 V. N. Staroverov, T. A. Keith, R. Kobayashi, J. Normand, 
 K. Raghavachari, A. P. Rendell, J. C. Burant, S. S. Iyengar, 
 J. Tomasi, M. Cossi, J. M. Millam, M. Klene, C. Adamo, R. Cammi, 
 J. W. Ochterski, R. L. Martin, K. Morokuma, O. Farkas, 
 J. B. Foresman, and D. J. Fox, Gaussian, Inc., Wallingford CT, 2019.
 
 ******************************************
 Gaussian 16:  ES64L-G16RevC.01  3-Jul-2019
                 2-Jun-2022 
 ******************************************
 %mem=8gb
 %nproc=4
 Will use up to    4 processors via shared memory.
 %chk=conf-472.chk
 ----------------------------------------------------------------------
 # B3LYP/6-31G* empiricaldispersion=gd3 guess=read geom=check nosymm in
 tegral(ultrafinegrid)
 ----------------------------------------------------------------------
 1/29=2,38=1,172=1/1;
 2/12=2,15=1,40=1/2;
 3/5=1,6=6,7=1,11=2,14=-4,25=1,30=1,74=-5,75=-5,116=-2,124=31/1,2,3;
 4/5=1/1;
 5/5=2,38=6/2;
 6/7=2,8=2,9=2,10=2,28=1/1;
 99/5=1,9=1/99;
 ------------------------------------------------------
 Candidate Structure: Conf:472 Charge calc in gas phase
 ------------------------------------------------------
 Structure from the checkpoint file:  "conf-472.chk"
 Charge =  1 Multiplicity = 1
 Redundant internal coordinates found in file.  (old form).
 N,0,-1.4452771431,-2.6706966792,2.9004260888
 H,0,-1.6792073351,-3.4497052269,3.521780092
 H,0,-1.4589799211,-2.9534235656,1.8831353737
 H,0,-0.4860953172,-2.3556766092,3.0945316357
 C,0,-2.424783589,-1.5294972447,2.937105581
 H,0,-2.1051442796,-0.7919923639,3.6745913831
 H,0,-3.4071293645,-1.9242723941,3.2073400322
 C,0,-2.411145907,-1.0001133739,1.4814126034
 O,0,-1.9558310819,-1.762481462,0.6191351431
 N,0,-2.8731992312,0.231318617,1.2707334832
 H,0,-3.1045388015,0.8144569652,2.0686282112
 C,0,-2.5792764243,0.9696107735,0.0140404437
 H,0,-2.5317134721,0.2203106482,-0.7770852236
 C,0,-1.1876042329,1.587027098,0.2965940475
 C,0,-3.646446171,2.0208156124,-0.2704456488
 H,0,-3.5702902533,2.8022827475,0.4955005303
 H,0,-3.3738895782,2.5035362866,-1.2181680988
 O,0,-1.0850169289,2.6392069012,0.9169513127
 C,0,-5.0875152167,1.4849073818,-0.3601877749
 H,0,-5.3480051961,1.0426800682,0.6141764339
 C,0,-6.0535402826,2.6491980026,-0.6213212651
 H,0,-5.8468508492,3.1148573012,-1.5929038817
 H,0,-7.092103164,2.3016051092,-0.632809023
 H,0,-5.9646715128,3.4256870849,0.1471922182
 C,0,-5.241073383,0.3942334898,-1.4305082375
 H,0,-4.9349453315,0.7695799917,-2.4152837914
 H,0,-4.6419678304,-0.4972217625,-1.2090725579
 H,0,-6.2854657513,0.0739527922,-1.5091077865
 N,0,-0.1501115024,0.779089431,-0.0283326627
 H,0,-0.2701905872,-0.0104188201,-0.6561530685
 C,0,1.2278333078,1.0646605427,0.3319962247
 H,0,1.346417189,2.1502422081,0.4050944368
 C,0,2.1124702608,0.4860207219,-0.7856503307
 C,0,1.6244669756,0.4243684156,1.7000107824
 H,0,2.6686313446,0.7072870558,1.888160575
 O,0,1.6850594463,-0.4008594503,-1.5278541232
 C,0,0.76942955,0.975780739,2.8486159848
 H,0,-0.2762343881,0.6561999728,2.7407710894
 H,0,1.1443779217,0.6116049357,3.8124523239
 H,0,0.7617179042,2.0682493943,2.8673516512
 C,0,1.5481097242,-1.1100357434,1.6491667791
 H,0,0.5532140929,-1.4253193466,1.3080152417
 H,0,1.7561092474,-1.5327485607,2.64264158
 H,0,2.2687583953,-1.5451841272,0.95138054
 N,0,3.3679368363,0.9722895847,-0.8296182549
 H,0,3.7146556891,1.555481325,-0.0730530611
 C,0,4.4250986658,0.3371519036,-1.6109345995
 H,0,4.3362143591,-0.7522212267,-1.4857355932
 C,0,5.7546070111,0.7531977962,-0.9373657416
 C,0,4.3267580072,0.6456660355,-3.1109972875
 H,0,5.000532846,-0.0410438256,-3.6294978845
 H,0,3.3177950927,0.3699131112,-3.4319996707
 O,0,6.8802156035,0.5693971234,-1.6056825658
 C,0,4.6416645899,2.1102980065,-3.4908773598
 H,0,5.2357413778,2.5926779084,-2.7023392539
 H,0,3.7056464916,2.6767867604,-3.5409393409
 C,0,5.3999356182,2.2543220968,-4.823195977
 H,0,4.9698650612,1.5753622148,-5.5743682113
 H,0,5.2588147865,3.2680242944,-5.2175508134
 C,0,6.9133413674,2.0259905966,-4.7234961181
 H,0,7.3797581995,2.2531508565,-5.6930120024
 H,0,7.3358488902,2.7212237135,-3.9886356658
 N,0,7.2605572232,0.6586987142,-4.2621845857
 H,0,8.2757924397,0.5623613685,-4.2224752734
 H,0,6.8209152957,0.4568693567,-2.613895634
 H,0,6.9406628152,-0.0284732646,-4.9452755862
 O,0,5.7470947303,1.1913251821,0.1992764125
 Recover connectivity data from disk.
                           ----------------------------
                           !    Current Parameters    !
                           ! (Angstroms and Degrees)  !
 --------------------------                            --------------------------
 ! Name  Definition              Value                                          !
 --------------------------------------------------------------------------------
 ! R1    R(1,2)                  1.0236                                         !
 ! R2    R(1,3)                  1.0559                                         !
 ! R3    R(1,4)                  1.0281                                         !
 ! R4    R(1,5)                  1.5044                                         !
 ! R5    R(5,6)                  1.0909                                         !
 ! R6    R(5,7)                  1.0926                                         !
 ! R7    R(5,8)                  1.549                                          !
 ! R8    R(8,9)                  1.2378                                         !
 ! R9    R(8,10)                 1.332                                          !
 ! R10   R(10,11)                1.015                                          !
 ! R11   R(10,12)                1.4869                                         !
 ! R12   R(12,13)                1.0907                                         !
 ! R13   R(12,14)                1.5485                                         !
 ! R14   R(12,15)                1.5247                                         !
 ! R15   R(14,18)                1.2257                                         !
 ! R16   R(14,29)                1.3545                                         !
 ! R17   R(15,16)                1.0969                                         !
 ! R18   R(15,17)                1.0979                                         !
 ! R19   R(15,19)                1.5401                                         !
 ! R20   R(19,20)                1.1013                                         !
 ! R21   R(19,21)                1.5352                                         !
 ! R22   R(19,25)                1.5358                                         !
 ! R23   R(21,22)                1.0971                                         !
 ! R24   R(21,23)                1.0952                                         !
 ! R25   R(21,24)                1.0961                                         !
 ! R26   R(25,26)                1.0974                                         !
 ! R27   R(25,27)                1.0967                                         !
 ! R28   R(25,28)                1.0952                                         !
 ! R29   R(29,30)                1.0158                                         !
 ! R30   R(29,31)                1.4526                                         !
 ! R31   R(31,32)                1.0945                                         !
 ! R32   R(31,33)                1.5384                                         !
 ! R33   R(31,34)                1.5617                                         !
 ! R34   R(33,36)                1.2329                                         !
 ! R35   R(33,45)                1.3471                                         !
 ! R36   R(34,35)                1.0981                                         !
 ! R37   R(34,37)                1.5344                                         !
 ! R38   R(34,41)                1.5371                                         !
 ! R39   R(37,38)                1.0987                                         !
 ! R40   R(37,39)                1.0964                                         !
 ! R41   R(37,40)                1.0927                                         !
 ! R42   R(41,42)                1.098                                          !
 ! R43   R(41,43)                1.0995                                         !
 ! R44   R(41,44)                1.0934                                         !
 ! R45   R(45,46)                1.0162                                         !
 ! R46   R(45,47)                1.4599                                         !
 ! R47   R(47,48)                1.1001                                         !
 ! R48   R(47,49)                1.5474                                         !
 ! R49   R(47,50)                1.5346                                         !
 ! R50   R(49,53)                1.3219                                         !
 ! R51   R(49,67)                1.2182                                         !
 ! R52   R(50,51)                1.0929                                         !
 ! R53   R(50,52)                1.0941                                         !
 ! R54   R(50,54)                1.5455                                         !
 ! R55   R(54,55)                1.0988                                         !
 ! R56   R(54,56)                1.0952                                         !
 ! R57   R(54,57)                1.5397                                         !
 ! R58   R(57,58)                1.1001                                         !
 ! R59   R(57,59)                1.0968                                         !
 ! R60   R(57,60)                1.5338                                         !
 ! R61   R(60,61)                1.0996                                         !
 ! R62   R(60,62)                1.0963                                         !
 ! R63   R(60,63)                1.4842                                         !
 ! R64   R(63,64)                1.0206                                         !
 ! R65   R(63,65)                1.7178                                         !
 ! R66   R(63,66)                1.0204                                         !
 ! A1    A(2,1,3)              112.2156                                         !
 ! A2    A(2,1,4)              109.3796                                         !
 ! A3    A(2,1,5)              114.4401                                         !
 ! A4    A(3,1,4)              106.0243                                         !
 ! A5    A(3,1,5)              102.6006                                         !
 ! A6    A(4,1,5)              111.742                                          !
 ! A7    A(1,5,6)              109.7895                                         !
 ! A8    A(1,5,7)              108.5016                                         !
 ! A9    A(1,5,8)              103.3327                                         !
 ! A10   A(6,5,7)              109.9074                                         !
 ! A11   A(6,5,8)              113.6842                                         !
 ! A12   A(7,5,8)              111.3344                                         !
 ! A13   A(5,8,9)              116.578                                          !
 ! A14   A(5,8,10)             117.4855                                         !
 ! A15   A(9,8,10)             125.9323                                         !
 ! A16   A(8,10,11)            119.0691                                         !
 ! A17   A(8,10,12)            121.6113                                         !
 ! A18   A(11,10,12)           115.1                                            !
 ! A19   A(10,12,13)           106.2935                                         !
 ! A20   A(10,12,14)           102.7926                                         !
 ! A21   A(10,12,15)           111.2032                                         !
 ! A22   A(13,12,14)           111.536                                          !
 ! A23   A(13,12,15)           111.6433                                         !
 ! A24   A(14,12,15)           112.8413                                         !
 ! A25   A(12,14,18)           120.6527                                         !
 ! A26   A(12,14,29)           114.0029                                         !
 ! A27   A(18,14,29)           124.7025                                         !
 ! A28   A(12,15,16)           108.1979                                         !
 ! A29   A(12,15,17)           106.8832                                         !
 ! A30   A(12,15,19)           115.2056                                         !
 ! A31   A(16,15,17)           105.8002                                         !
 ! A32   A(16,15,19)           110.7052                                         !
 ! A33   A(17,15,19)           109.5706                                         !
 ! A34   A(15,19,20)           108.0291                                         !
 ! A35   A(15,19,21)           109.5598                                         !
 ! A36   A(15,19,25)           112.4128                                         !
 ! A37   A(20,19,21)           107.8297                                         !
 ! A38   A(20,19,25)           107.9251                                         !
 ! A39   A(21,19,25)           110.9231                                         !
 ! A40   A(19,21,22)           110.7316                                         !
 ! A41   A(19,21,23)           110.9633                                         !
 ! A42   A(19,21,24)           111.5286                                         !
 ! A43   A(22,21,23)           107.7024                                         !
 ! A44   A(22,21,24)           107.7566                                         !
 ! A45   A(23,21,24)           108.0025                                         !
 ! A46   A(19,25,26)           110.7678                                         !
 ! A47   A(19,25,27)           112.4537                                         !
 ! A48   A(19,25,28)           110.6729                                         !
 ! A49   A(26,25,27)           107.8678                                         !
 ! A50   A(26,25,28)           107.555                                          !
 ! A51   A(27,25,28)           107.3209                                         !
 ! A52   A(14,29,30)           121.4195                                         !
 ! A53   A(14,29,31)           123.3536                                         !
 ! A54   A(30,29,31)           114.7229                                         !
 ! A55   A(29,31,32)           108.3206                                         !
 ! A56   A(29,31,33)           106.9375                                         !
 ! A57   A(29,31,34)           112.1862                                         !
 ! A58   A(32,31,33)           111.0572                                         !
 ! A59   A(32,31,34)           108.7022                                         !
 ! A60   A(33,31,34)           109.6431                                         !
 ! A61   A(31,33,36)           120.5689                                         !
 ! A62   A(31,33,45)           115.08                                           !
 ! A63   A(36,33,45)           124.2711                                         !
 ! A64   A(31,34,35)           106.6174                                         !
 ! A65   A(31,34,37)           111.5228                                         !
 ! A66   A(31,34,41)           111.573                                          !
 ! A67   A(35,34,37)           108.0011                                         !
 ! A68   A(35,34,41)           108.0652                                         !
 ! A69   A(37,34,41)           110.8426                                         !
 ! A70   A(34,37,38)           110.6299                                         !
 ! A71   A(34,37,39)           110.3717                                         !
 ! A72   A(34,37,40)           112.0904                                         !
 ! A73   A(38,37,39)           108.3687                                         !
 ! A74   A(38,37,40)           106.6057                                         !
 ! A75   A(39,37,40)           108.6282                                         !
 ! A76   A(34,41,42)           109.9938                                         !
 ! A77   A(34,41,43)           110.1503                                         !
 ! A78   A(34,41,44)           112.6826                                         !
 ! A79   A(42,41,43)           109.9837                                         !
 ! A80   A(42,41,44)           106.5368                                         !
 ! A81   A(43,41,44)           107.3937                                         !
 ! A82   A(33,45,46)           120.0558                                         !
 ! A83   A(33,45,47)           122.364                                          !
 ! A84   A(46,45,47)           113.6427                                         !
 ! A85   A(45,47,48)           108.1422                                         !
 ! A86   A(45,47,49)           105.7969                                         !
 ! A87   A(45,47,50)           112.9083                                         !
 ! A88   A(48,47,49)           106.6258                                         !
 ! A89   A(48,47,50)           107.7661                                         !
 ! A90   A(49,47,50)           115.2458                                         !
 ! A91   A(47,49,53)           118.3044                                         !
 ! A92   A(47,49,67)           119.8389                                         !
 ! A93   A(53,49,67)           121.8023                                         !
 ! A94   A(47,50,51)           107.333                                          !
 ! A95   A(47,50,52)           107.1702                                         !
 ! A96   A(47,50,54)           114.6907                                         !
 ! A97   A(51,50,52)           105.7221                                         !
 ! A98   A(51,50,54)           110.6852                                         !
 ! A99   A(52,50,54)           110.7705                                         !
 ! A100  A(50,54,55)           110.4747                                         !
 ! A101  A(50,54,56)           109.1026                                         !
 ! A102  A(50,54,57)           113.6826                                         !
 ! A103  A(55,54,56)           105.5329                                         !
 ! A104  A(55,54,57)           108.2784                                         !
 ! A105  A(56,54,57)           109.4475                                         !
 ! A106  A(54,57,58)           109.9126                                         !
 ! A107  A(54,57,59)           109.5236                                         !
 ! A108  A(54,57,60)           114.5669                                         !
 ! A109  A(58,57,59)           105.9386                                         !
 ! A110  A(58,57,60)           109.7705                                         !
 ! A111  A(59,57,60)           106.733                                          !
 ! A112  A(57,60,61)           109.2973                                         !
 ! A113  A(57,60,62)           109.2347                                         !
 ! A114  A(57,60,63)           112.8413                                         !
 ! A115  A(61,60,62)           107.2494                                         !
 ! A116  A(61,60,63)           111.4155                                         !
 ! A117  A(62,60,63)           106.6012                                         !
 ! A118  A(60,63,64)           109.3764                                         !
 ! A119  A(60,63,65)           110.2795                                         !
 ! A120  A(60,63,66)           109.8152                                         !
 ! A121  A(64,63,65)           101.8979                                         !
 ! A122  A(64,63,66)           105.9231                                         !
 ! A123  A(65,63,66)           118.8815                                         !
 ! D1    D(2,1,5,6)             92.0762                                         !
 ! D2    D(2,1,5,7)            -28.0561                                         !
 ! D3    D(2,1,5,8)           -146.3224                                         !
 ! D4    D(3,1,5,6)           -146.1109                                         !
 ! D5    D(3,1,5,7)             93.7567                                         !
 ! D6    D(3,1,5,8)            -24.5096                                         !
 ! D7    D(4,1,5,6)            -32.9281                                         !
 ! D8    D(4,1,5,7)           -153.0605                                         !
 ! D9    D(4,1,5,8)             88.6733                                         !
 ! D10   D(1,5,8,9)             18.1519                                         !
 ! D11   D(1,5,8,10)          -161.1398                                         !
 ! D12   D(6,5,8,9)            137.0924                                         !
 ! D13   D(6,5,8,10)           -42.1993                                         !
 ! D14   D(7,5,8,9)            -98.1229                                         !
 ! D15   D(7,5,8,10)            82.5854                                         !
 ! D16   D(5,8,10,11)            7.5575                                         !
 ! D17   D(5,8,10,12)          163.3448                                         !
 ! D18   D(9,8,10,11)         -171.6602                                         !
 ! D19   D(9,8,10,12)          -15.8729                                         !
 ! D20   D(8,10,12,13)          33.3804                                         !
 ! D21   D(8,10,12,14)         -83.9132                                         !
 ! D22   D(8,10,12,15)         155.086                                          !
 ! D23   D(11,10,12,13)       -169.9382                                         !
 ! D24   D(11,10,12,14)         72.7682                                         !
 ! D25   D(11,10,12,15)        -48.2325                                         !
 ! D26   D(10,12,14,18)        -83.3005                                         !
 ! D27   D(10,12,14,29)         87.936                                          !
 ! D28   D(13,12,14,18)        163.1902                                         !
 ! D29   D(13,12,14,29)        -25.5733                                         !
 ! D30   D(15,12,14,18)         36.5725                                         !
 ! D31   D(15,12,14,29)       -152.191                                          !
 ! D32   D(10,12,15,16)         67.7287                                         !
 ! D33   D(10,12,15,17)       -178.7366                                         !
 ! D34   D(10,12,15,19)        -56.7482                                         !
 ! D35   D(13,12,15,16)       -173.7366                                         !
 ! D36   D(13,12,15,17)        -60.2019                                         !
 ! D37   D(13,12,15,19)         61.7865                                         !
 ! D38   D(14,12,15,16)        -47.1761                                         !
 ! D39   D(14,12,15,17)         66.3586                                         !
 ! D40   D(14,12,15,19)       -171.653                                          !
 ! D41   D(12,14,29,30)         18.1095                                         !
 ! D42   D(12,14,29,31)       -170.4683                                         !
 ! D43   D(18,14,29,30)       -171.0641                                         !
 ! D44   D(18,14,29,31)          0.358                                          !
 ! D45   D(12,15,19,20)         61.6777                                         !
 ! D46   D(12,15,19,21)        178.8945                                         !
 ! D47   D(12,15,19,25)        -57.2923                                         !
 ! D48   D(16,15,19,20)        -61.4771                                         !
 ! D49   D(16,15,19,21)         55.7397                                         !
 ! D50   D(16,15,19,25)        179.5529                                         !
 ! D51   D(17,15,19,20)       -177.7919                                         !
 ! D52   D(17,15,19,21)        -60.5751                                         !
 ! D53   D(17,15,19,25)         63.2381                                         !
 ! D54   D(15,19,21,22)         63.6691                                         !
 ! D55   D(15,19,21,23)       -176.7807                                         !
 ! D56   D(15,19,21,24)        -56.3214                                         !
 ! D57   D(20,19,21,22)       -178.9889                                         !
 ! D58   D(20,19,21,23)        -59.4388                                         !
 ! D59   D(20,19,21,24)         61.0205                                         !
 ! D60   D(25,19,21,22)        -61.0134                                         !
 ! D61   D(25,19,21,23)         58.5368                                         !
 ! D62   D(25,19,21,24)        178.9961                                         !
 ! D63   D(15,19,25,26)        -57.6189                                         !
 ! D64   D(15,19,25,27)         63.1636                                         !
 ! D65   D(15,19,25,28)       -176.8196                                         !
 ! D66   D(20,19,25,26)       -176.6497                                         !
 ! D67   D(20,19,25,27)        -55.8672                                         !
 ! D68   D(20,19,25,28)         64.1496                                         !
 ! D69   D(21,19,25,26)         65.4328                                         !
 ! D70   D(21,19,25,27)       -173.7847                                         !
 ! D71   D(21,19,25,28)        -53.768                                          !
 ! D72   D(14,29,31,32)        -28.4064                                         !
 ! D73   D(14,29,31,33)       -148.1741                                         !
 ! D74   D(14,29,31,34)         91.5812                                         !
 ! D75   D(30,29,31,32)        143.5384                                         !
 ! D76   D(30,29,31,33)         23.7707                                         !
 ! D77   D(30,29,31,34)        -96.474                                          !
 ! D78   D(29,31,33,36)        -21.2355                                         !
 ! D79   D(29,31,33,45)        161.8811                                         !
 ! D80   D(32,31,33,36)       -139.2277                                         !
 ! D81   D(32,31,33,45)         43.8889                                         !
 ! D82   D(34,31,33,36)        100.6235                                         !
 ! D83   D(34,31,33,45)        -76.2599                                         !
 ! D84   D(29,31,34,35)       -179.1867                                         !
 ! D85   D(29,31,34,37)        -61.517                                          !
 ! D86   D(29,31,34,41)         63.0388                                         !
 ! D87   D(32,31,34,35)        -59.4215                                         !
 ! D88   D(32,31,34,37)         58.2482                                         !
 ! D89   D(32,31,34,41)       -177.196                                          !
 ! D90   D(33,31,34,35)         62.1524                                         !
 ! D91   D(33,31,34,37)        179.8222                                         !
 ! D92   D(33,31,34,41)        -55.622                                          !
 ! D93   D(31,33,45,46)          9.6485                                         !
 ! D94   D(31,33,45,47)        165.89                                           !
 ! D95   D(36,33,45,46)       -167.1042                                         !
 ! D96   D(36,33,45,47)        -10.8626                                         !
 ! D97   D(31,34,37,38)         67.1766                                         !
 ! D98   D(31,34,37,39)       -172.8905                                         !
 ! D99   D(31,34,37,40)        -51.6626                                         !
 ! D100  D(35,34,37,38)       -175.9908                                         !
 ! D101  D(35,34,37,39)        -56.0579                                         !
 ! D102  D(35,34,37,40)         65.17                                           !
 ! D103  D(41,34,37,38)        -57.7876                                         !
 ! D104  D(41,34,37,39)         62.1453                                         !
 ! D105  D(41,34,37,40)       -176.6268                                         !
 ! D106  D(31,34,41,42)        -54.2725                                         !
 ! D107  D(31,34,41,43)       -175.6647                                         !
 ! D108  D(31,34,41,44)         64.4356                                         !
 ! D109  D(35,34,41,42)       -171.1724                                         !
 ! D110  D(35,34,41,43)         67.4354                                         !
 ! D111  D(35,34,41,44)        -52.4643                                         !
 ! D112  D(37,34,41,42)         70.6633                                         !
 ! D113  D(37,34,41,43)        -50.7289                                         !
 ! D114  D(37,34,41,44)       -170.6286                                         !
 ! D115  D(33,45,47,48)        -41.2866                                         !
 ! D116  D(33,45,47,49)       -155.2158                                         !
 ! D117  D(33,45,47,50)         77.8606                                         !
 ! D118  D(46,45,47,48)        116.3388                                         !
 ! D119  D(46,45,47,49)          2.4096                                         !
 ! D120  D(46,45,47,50)       -124.514                                          !
 ! D121  D(45,47,49,53)       -165.0626                                         !
 ! D122  D(45,47,49,67)         17.5705                                         !
 ! D123  D(48,47,49,53)         79.9641                                         !
 ! D124  D(48,47,49,67)        -97.4028                                         !
 ! D125  D(50,47,49,53)        -39.5657                                         !
 ! D126  D(50,47,49,67)        143.0674                                         !
 ! D127  D(45,47,50,51)       -167.2782                                         !
 ! D128  D(45,47,50,52)        -54.1035                                         !
 ! D129  D(45,47,50,54)         69.3027                                         !
 ! D130  D(48,47,50,51)        -47.9134                                         !
 ! D131  D(48,47,50,52)         65.2613                                         !
 ! D132  D(48,47,50,54)       -171.3325                                         !
 ! D133  D(49,47,50,51)         70.9853                                         !
 ! D134  D(49,47,50,52)       -175.8399                                         !
 ! D135  D(49,47,50,54)        -52.4337                                         !
 ! D136  D(47,50,54,55)         21.1258                                         !
 ! D137  D(47,50,54,56)        -94.4574                                         !
 ! D138  D(47,50,54,57)        143.0866                                         !
 ! D139  D(51,50,54,55)       -100.481                                          !
 ! D140  D(51,50,54,56)        143.9357                                         !
 ! D141  D(51,50,54,57)         21.4798                                         !
 ! D142  D(52,50,54,55)        142.5838                                         !
 ! D143  D(52,50,54,56)         27.0006                                         !
 ! D144  D(52,50,54,57)        -95.4554                                         !
 ! D145  D(50,54,57,58)         42.6292                                         !
 ! D146  D(50,54,57,59)        158.6266                                         !
 ! D147  D(50,54,57,60)        -81.5073                                         !
 ! D148  D(55,54,57,58)        165.7995                                         !
 ! D149  D(55,54,57,59)        -78.2031                                         !
 ! D150  D(55,54,57,60)         41.663                                          !
 ! D151  D(56,54,57,58)        -79.6364                                         !
 ! D152  D(56,54,57,59)         36.361                                          !
 ! D153  D(56,54,57,60)        156.2271                                         !
 ! D154  D(54,57,60,61)       -174.0461                                         !
 ! D155  D(54,57,60,62)        -56.9857                                         !
 ! D156  D(54,57,60,63)         61.3942                                         !
 ! D157  D(58,57,60,61)         61.7419                                         !
 ! D158  D(58,57,60,62)        178.8023                                         !
 ! D159  D(58,57,60,63)        -62.8179                                         !
 ! D160  D(59,57,60,61)        -52.6373                                         !
 ! D161  D(59,57,60,62)         64.4231                                         !
 ! D162  D(59,57,60,63)       -177.197                                          !
 ! D163  D(57,60,63,64)        179.5359                                         !
 ! D164  D(57,60,63,65)        -69.1832                                         !
 ! D165  D(57,60,63,66)         63.6968                                         !
 ! D166  D(61,60,63,64)         56.1424                                         !
 ! D167  D(61,60,63,65)        167.4234                                         !
 ! D168  D(61,60,63,66)        -59.6967                                         !
 ! D169  D(62,60,63,64)        -60.5569                                         !
 ! D170  D(62,60,63,65)         50.7241                                         !
 ! D171  D(62,60,63,66)       -176.396                                          !
 --------------------------------------------------------------------------------
 Symmetry turned off by external request.
 Stoichiometry    C19H38N5O5(1+)
 Framework group  C1[X(C19H38N5O5)]
 Deg. of freedom   195
 Full point group                 C1      NOp   1
                          Input orientation:                          
 ---------------------------------------------------------------------
 Center     Atomic      Atomic             Coordinates (Angstroms)
 Number     Number       Type             X           Y           Z
 ---------------------------------------------------------------------
      1          7           0       -1.445277   -2.670697    2.900426
      2          1           0       -1.679207   -3.449705    3.521780
      3          1           0       -1.458980   -2.953424    1.883135
      4          1           0       -0.486095   -2.355677    3.094532
      5          6           0       -2.424784   -1.529497    2.937106
      6          1           0       -2.105144   -0.791992    3.674591
      7          1           0       -3.407129   -1.924272    3.207340
      8          6           0       -2.411146   -1.000113    1.481413
      9          8           0       -1.955831   -1.762481    0.619135
     10          7           0       -2.873199    0.231319    1.270733
     11          1           0       -3.104539    0.814457    2.068628
     12          6           0       -2.579276    0.969611    0.014040
     13          1           0       -2.531713    0.220311   -0.777085
     14          6           0       -1.187604    1.587027    0.296594
     15          6           0       -3.646446    2.020816   -0.270446
     16          1           0       -3.570290    2.802283    0.495501
     17          1           0       -3.373890    2.503536   -1.218168
     18          8           0       -1.085017    2.639207    0.916951
     19          6           0       -5.087515    1.484907   -0.360188
     20          1           0       -5.348005    1.042680    0.614176
     21          6           0       -6.053540    2.649198   -0.621321
     22          1           0       -5.846851    3.114857   -1.592904
     23          1           0       -7.092103    2.301605   -0.632809
     24          1           0       -5.964672    3.425687    0.147192
     25          6           0       -5.241073    0.394233   -1.430508
     26          1           0       -4.934945    0.769580   -2.415284
     27          1           0       -4.641968   -0.497222   -1.209073
     28          1           0       -6.285466    0.073953   -1.509108
     29          7           0       -0.150112    0.779089   -0.028333
     30          1           0       -0.270191   -0.010419   -0.656153
     31          6           0        1.227833    1.064661    0.331996
     32          1           0        1.346417    2.150242    0.405094
     33          6           0        2.112470    0.486021   -0.785650
     34          6           0        1.624467    0.424368    1.700011
     35          1           0        2.668631    0.707287    1.888161
     36          8           0        1.685059   -0.400859   -1.527854
     37          6           0        0.769430    0.975781    2.848616
     38          1           0       -0.276234    0.656200    2.740771
     39          1           0        1.144378    0.611605    3.812452
     40          1           0        0.761718    2.068249    2.867352
     41          6           0        1.548110   -1.110036    1.649167
     42          1           0        0.553214   -1.425319    1.308015
     43          1           0        1.756109   -1.532749    2.642642
     44          1           0        2.268758   -1.545184    0.951381
     45          7           0        3.367937    0.972290   -0.829618
     46          1           0        3.714656    1.555481   -0.073053
     47          6           0        4.425099    0.337152   -1.610935
     48          1           0        4.336214   -0.752221   -1.485736
     49          6           0        5.754607    0.753198   -0.937366
     50          6           0        4.326758    0.645666   -3.110997
     51          1           0        5.000533   -0.041044   -3.629498
     52          1           0        3.317795    0.369913   -3.432000
     53          8           0        6.880216    0.569397   -1.605683
     54          6           0        4.641665    2.110298   -3.490877
     55          1           0        5.235741    2.592678   -2.702339
     56          1           0        3.705646    2.676787   -3.540939
     57          6           0        5.399936    2.254322   -4.823196
     58          1           0        4.969865    1.575362   -5.574368
     59          1           0        5.258815    3.268024   -5.217551
     60          6           0        6.913341    2.025991   -4.723496
     61          1           0        7.379758    2.253151   -5.693012
     62          1           0        7.335849    2.721224   -3.988636
     63          7           0        7.260557    0.658699   -4.262185
     64          1           0        8.275792    0.562361   -4.222475
     65          1           0        6.820915    0.456869   -2.613896
     66          1           0        6.940663   -0.028473   -4.945276
     67          8           0        5.747095    1.191325    0.199276
 ---------------------------------------------------------------------
 Rotational constants (GHZ):           0.2657870           0.0656617           0.0581528
 Standard basis: 6-31G(d) (6D, 7F)
   511 basis functions,   964 primitive gaussians,   511 cartesian basis functions
   113 alpha electrons      113 beta electrons
       nuclear repulsion energy      3044.1014430811 Hartrees.
 NAtoms=   67 NActive=   67 NUniq=   67 SFac= 1.00D+00 NAtFMM=   60 NAOKFM=T Big=T
 Integral buffers will be    131072 words long.
 Raffenetti 2 integral format.
 Two-electron integral symmetry is turned off.
 Nuclear repulsion after empirical dispersion term =     3044.0162143274 Hartrees.
 One-electron integrals computed using PRISM.
 NBasis=   511 RedAO= T EigKep=  1.96D-03  NBF=   511
 NBsUse=   511 1.00D-06 EigRej= -1.00D+00 NBFU=   511
 Initial guess from the checkpoint file:  "conf-472.chk"
 B after Tr=     0.000000    0.000000    0.000000
         Rot=    1.000000    0.000000    0.000000    0.000000 Ang=   0.00 deg.
 Requested convergence on RMS density matrix=1.00D-08 within 128 cycles.
 Requested convergence on MAX density matrix=1.00D-06.
 Requested convergence on             energy=1.00D-06.
 No special actions if energy rises.
 SCF Done:  E(RB3LYP) =  -1396.71695786     A.U. after    1 cycles
            NFock=  1  Conv=0.75D-08     -V/T= 2.0095

 **********************************************************************

            Population analysis using the SCF Density.

 **********************************************************************

 Alpha  occ. eigenvalues --  -19.28772 -19.23442 -19.21439 -19.20569 -19.19501
 Alpha  occ. eigenvalues --  -14.62802 -14.51853 -14.45649 -14.44173 -14.42274
 Alpha  occ. eigenvalues --  -10.45843 -10.42950 -10.38804 -10.38136 -10.37487
 Alpha  occ. eigenvalues --  -10.34853 -10.32618 -10.31255 -10.30061 -10.29148
 Alpha  occ. eigenvalues --  -10.28805 -10.28109 -10.28000 -10.27959 -10.25987
 Alpha  occ. eigenvalues --  -10.25960 -10.25719 -10.25685 -10.25060  -1.21391
 Alpha  occ. eigenvalues --   -1.16379  -1.15193  -1.13684  -1.12283  -1.08031
 Alpha  occ. eigenvalues --   -1.07118  -1.02255  -1.00868  -0.97816  -0.92938
 Alpha  occ. eigenvalues --   -0.90783  -0.89954  -0.87524  -0.85329  -0.83489
 Alpha  occ. eigenvalues --   -0.80619  -0.79334  -0.77228  -0.76678  -0.76396
 Alpha  occ. eigenvalues --   -0.75733  -0.75133  -0.74016  -0.70807  -0.69913
 Alpha  occ. eigenvalues --   -0.68452  -0.67722  -0.66750  -0.66417  -0.65632
 Alpha  occ. eigenvalues --   -0.64460  -0.64323  -0.63819  -0.62474  -0.60388
 Alpha  occ. eigenvalues --   -0.59893  -0.58316  -0.57847  -0.56820  -0.56212
 Alpha  occ. eigenvalues --   -0.55965  -0.55591  -0.55165  -0.54609  -0.53701
 Alpha  occ. eigenvalues --   -0.53492  -0.53229  -0.51864  -0.51472  -0.51313
 Alpha  occ. eigenvalues --   -0.50962  -0.50137  -0.49769  -0.49096  -0.49018
 Alpha  occ. eigenvalues --   -0.48522  -0.48307  -0.47630  -0.47208  -0.46519
 Alpha  occ. eigenvalues --   -0.46277  -0.45231  -0.45114  -0.44534  -0.44239
 Alpha  occ. eigenvalues --   -0.44112  -0.43765  -0.43258  -0.42964  -0.42080
 Alpha  occ. eigenvalues --   -0.41386  -0.41239  -0.41164  -0.40727  -0.40717
 Alpha  occ. eigenvalues --   -0.40193  -0.36738  -0.35791  -0.35014  -0.34665
 Alpha  occ. eigenvalues --   -0.34050  -0.33884  -0.33084
 Alpha virt. eigenvalues --   -0.15337  -0.12617  -0.08342  -0.07855  -0.07268
 Alpha virt. eigenvalues --   -0.06522  -0.05230  -0.03740  -0.03251  -0.02000
 Alpha virt. eigenvalues --   -0.01062  -0.00544   0.00452   0.01019   0.01726
 Alpha virt. eigenvalues --    0.02654   0.03088   0.03720   0.03858   0.04386
 Alpha virt. eigenvalues --    0.04510   0.04770   0.04988   0.05231   0.06115
 Alpha virt. eigenvalues --    0.06496   0.06893   0.07129   0.07217   0.07677
 Alpha virt. eigenvalues --    0.08340   0.08683   0.09001   0.09164   0.09383
 Alpha virt. eigenvalues --    0.09427   0.10119   0.10282   0.10505   0.11084
 Alpha virt. eigenvalues --    0.11323   0.11625   0.12108   0.12586   0.12748
 Alpha virt. eigenvalues --    0.13421   0.13673   0.14177   0.14606   0.14680
 Alpha virt. eigenvalues --    0.15540   0.15675   0.15992   0.16660   0.17012
 Alpha virt. eigenvalues --    0.17657   0.18204   0.18673   0.19011   0.19663
 Alpha virt. eigenvalues --    0.20927   0.22113   0.22754   0.25747   0.27232
 Alpha virt. eigenvalues --    0.27861   0.29799   0.31233   0.33944   0.34514
 Alpha virt. eigenvalues --    0.34991   0.36313   0.37465   0.39123   0.40063
 Alpha virt. eigenvalues --    0.41413   0.42163   0.42866   0.42942   0.43289
 Alpha virt. eigenvalues --    0.43503   0.43842   0.44902   0.46287   0.46420
 Alpha virt. eigenvalues --    0.46476   0.46728   0.47377   0.47553   0.49008
 Alpha virt. eigenvalues --    0.49286   0.49984   0.50491   0.51172   0.51435
 Alpha virt. eigenvalues --    0.51942   0.52647   0.52923   0.54137   0.54806
 Alpha virt. eigenvalues --    0.55695   0.55898   0.56690   0.57122   0.57698
 Alpha virt. eigenvalues --    0.58159   0.58479   0.59212   0.59939   0.60368
 Alpha virt. eigenvalues --    0.60837   0.61319   0.62336   0.62942   0.63697
 Alpha virt. eigenvalues --    0.63994   0.64199   0.64913   0.65091   0.65507
 Alpha virt. eigenvalues --    0.66984   0.67247   0.67513   0.68183   0.68862
 Alpha virt. eigenvalues --    0.69552   0.70341   0.70928   0.71625   0.72317
 Alpha virt. eigenvalues --    0.72541   0.72875   0.74318   0.74569   0.74862
 Alpha virt. eigenvalues --    0.75154   0.75904   0.76148   0.76552   0.76952
 Alpha virt. eigenvalues --    0.77443   0.78070   0.78218   0.79297   0.79634
 Alpha virt. eigenvalues --    0.80025   0.80157   0.80504   0.80722   0.81351
 Alpha virt. eigenvalues --    0.81650   0.82190   0.82289   0.82664   0.82991
 Alpha virt. eigenvalues --    0.83511   0.84128   0.84489   0.84664   0.85416
 Alpha virt. eigenvalues --    0.86122   0.86322   0.86628   0.87734   0.88207
 Alpha virt. eigenvalues --    0.88411   0.88591   0.89293   0.89657   0.90187
 Alpha virt. eigenvalues --    0.90835   0.91201   0.91628   0.92360   0.92918
 Alpha virt. eigenvalues --    0.93700   0.93940   0.95354   0.96468   0.98446
 Alpha virt. eigenvalues --    0.98703   0.99702   1.00658   1.01087   1.02546
 Alpha virt. eigenvalues --    1.02731   1.03832   1.04700   1.05756   1.06726
 Alpha virt. eigenvalues --    1.08164   1.08464   1.09435   1.10683   1.12148
 Alpha virt. eigenvalues --    1.12974   1.13248   1.14297   1.15183   1.16211
 Alpha virt. eigenvalues --    1.17932   1.18804   1.21244   1.22423   1.24303
 Alpha virt. eigenvalues --    1.25736   1.27194   1.27992   1.30358   1.31408
 Alpha virt. eigenvalues --    1.31885   1.35576   1.36106   1.36336   1.37597
 Alpha virt. eigenvalues --    1.37966   1.39502   1.40169   1.41695   1.42002
 Alpha virt. eigenvalues --    1.43290   1.44527   1.45448   1.48028   1.48669
 Alpha virt. eigenvalues --    1.48797   1.50184   1.52722   1.53524   1.54657
 Alpha virt. eigenvalues --    1.55276   1.55906   1.57137   1.58209   1.58813
 Alpha virt. eigenvalues --    1.60649   1.60941   1.61435   1.62995   1.63412
 Alpha virt. eigenvalues --    1.65245   1.65558   1.65817   1.66547   1.67382
 Alpha virt. eigenvalues --    1.67960   1.69453   1.70299   1.70558   1.71027
 Alpha virt. eigenvalues --    1.71526   1.72169   1.73962   1.74877   1.75858
 Alpha virt. eigenvalues --    1.76226   1.76883   1.77146   1.77980   1.78470
 Alpha virt. eigenvalues --    1.79541   1.79717   1.80517   1.81504   1.81946
 Alpha virt. eigenvalues --    1.82914   1.83426   1.84153   1.84635   1.85384
 Alpha virt. eigenvalues --    1.85868   1.87176   1.87382   1.88713   1.89408
 Alpha virt. eigenvalues --    1.90295   1.91338   1.91965   1.92162   1.92751
 Alpha virt. eigenvalues --    1.93677   1.93955   1.94480   1.95519   1.96516
 Alpha virt. eigenvalues --    1.97197   1.98285   1.98902   1.99291   2.00391
 Alpha virt. eigenvalues --    2.01034   2.01222   2.02330   2.02812   2.03701
 Alpha virt. eigenvalues --    2.04045   2.05520   2.07036   2.07241   2.08708
 Alpha virt. eigenvalues --    2.11073   2.12650   2.13340   2.15373   2.15717
 Alpha virt. eigenvalues --    2.16208   2.16430   2.17076   2.18298   2.18997
 Alpha virt. eigenvalues --    2.19101   2.20823   2.22487   2.24489   2.25031
 Alpha virt. eigenvalues --    2.25636   2.27237   2.27822   2.28922   2.29297
 Alpha virt. eigenvalues --    2.31095   2.31585   2.32788   2.35048   2.35331
 Alpha virt. eigenvalues --    2.35545   2.36863   2.37907   2.38747   2.39790
 Alpha virt. eigenvalues --    2.41051   2.41813   2.43194   2.44531   2.45875
 Alpha virt. eigenvalues --    2.47409   2.49383   2.49512   2.50322   2.51706
 Alpha virt. eigenvalues --    2.53308   2.55741   2.56029   2.57978   2.58244
 Alpha virt. eigenvalues --    2.59401   2.60236   2.62440   2.64099   2.64630
 Alpha virt. eigenvalues --    2.64833   2.66817   2.67427   2.70770   2.72735
 Alpha virt. eigenvalues --    2.74897   2.77074   2.80258   2.80957   2.84750
 Alpha virt. eigenvalues --    2.85534   2.88155   2.90836   2.92568   2.94769
 Alpha virt. eigenvalues --    2.99732   3.03148   3.09116   3.12578   3.62559
 Alpha virt. eigenvalues --    3.77726   3.89072   3.91695   3.94185   3.96051
 Alpha virt. eigenvalues --    4.00098   4.06131   4.07523   4.09304   4.10988
 Alpha virt. eigenvalues --    4.13723   4.16219   4.19858   4.21191   4.22308
 Alpha virt. eigenvalues --    4.25814   4.26616   4.31653   4.33072   4.34232
 Alpha virt. eigenvalues --    4.35348   4.43369   4.45669   4.47397   4.48743
 Alpha virt. eigenvalues --    4.54819   4.55973   4.60687
          Condensed to atoms (all electrons):
 Mulliken charges:
               1
     1  N   -0.745103
     2  H    0.424390
     3  H    0.439097
     4  H    0.426386
     5  C   -0.287019
     6  H    0.241448
     7  H    0.255394
     8  C    0.656158
     9  O   -0.520998
    10  N   -0.578518
    11  H    0.359950
    12  C   -0.088134
    13  H    0.197883
    14  C    0.624791
    15  C   -0.284847
    16  H    0.170686
    17  H    0.168249
    18  O   -0.519042
    19  C   -0.075841
    20  H    0.111516
    21  C   -0.444930
    22  H    0.155536
    23  H    0.157510
    24  H    0.150765
    25  C   -0.455959
    26  H    0.155559
    27  H    0.138257
    28  H    0.162291
    29  N   -0.612390
    30  H    0.364259
    31  C   -0.062158
    32  H    0.191953
    33  C    0.624277
    34  C   -0.072253
    35  H    0.168651
    36  O   -0.549324
    37  C   -0.456703
    38  H    0.094638
    39  H    0.148036
    40  H    0.198225
    41  C   -0.497561
    42  H    0.124190
    43  H    0.133727
    44  H    0.196795
    45  N   -0.609112
    46  H    0.360388
    47  C   -0.063634
    48  H    0.183512
    49  C    0.593004
    50  C   -0.292361
    51  H    0.144546
    52  H    0.182396
    53  O   -0.612427
    54  C   -0.271852
    55  H    0.148800
    56  H    0.154162
    57  C   -0.275355
    58  H    0.142130
    59  H    0.158153
    60  C   -0.143938
    61  H    0.153073
    62  H    0.169087
    63  N   -0.776042
    64  H    0.341249
    65  H    0.479582
    66  H    0.326155
    67  O   -0.481355
 Sum of Mulliken charges =   1.00000
 Mulliken charges with hydrogens summed into heavy atoms:
               1
     1  N    0.544771
     5  C    0.209823
     8  C    0.656158
     9  O   -0.520998
    10  N   -0.218568
    12  C    0.109749
    14  C    0.624791
    15  C    0.054089
    18  O   -0.519042
    19  C    0.035675
    21  C    0.018881
    25  C    0.000148
    29  N   -0.248130
    31  C    0.129795
    33  C    0.624277
    34  C    0.096399
    36  O   -0.549324
    37  C   -0.015805
    41  C   -0.042849
    45  N   -0.248724
    47  C    0.119877
    49  C    0.593004
    50  C    0.034582
    53  O   -0.132845
    54  C    0.031110
    57  C    0.024928
    60  C    0.178221
    63  N   -0.108638
    67  O   -0.481355
 Electronic spatial extent (au):  <R**2>=          19869.1743
 Charge=              1.0000 electrons
 Dipole moment (field-independent basis, Debye):
    X=             -3.5814    Y=             -6.7757    Z=              5.2426  Tot=              9.2855
 Quadrupole moment (field-independent basis, Debye-Ang):
   XX=           -105.8609   YY=           -150.8653   ZZ=            -99.3410
   XY=             12.6943   XZ=            -71.3201   YZ=            -41.2279
 Traceless Quadrupole moment (field-independent basis, Debye-Ang):
   XX=             12.8282   YY=            -32.1762   ZZ=             19.3480
   XY=             12.6943   XZ=            -71.3201   YZ=            -41.2279
 Octapole moment (field-independent basis, Debye-Ang**2):
  XXX=           -317.7206  YYY=           -433.8694  ZZZ=            225.5466  XYY=           -174.3131
  XXY=            -94.0416  XXZ=           -252.0025  XZZ=              6.6777  YZZ=           -173.7071
  YYZ=            143.7270  XYZ=              3.5920
 Hexadecapole moment (field-independent basis, Debye-Ang**3):
 XXXX=         -14863.3436 YYYY=          -2304.5163 ZZZZ=          -4302.0163 XXXY=           -588.8435
 XXXZ=           -147.6553 YYYX=           -423.4620 YYYZ=            581.8372 ZZZX=           1384.6044
 ZZZY=            475.4659 XXYY=          -3119.8444 XXZZ=          -1909.5597 YYZZ=           -974.8291
 XXYZ=           -115.1016 YYXZ=            678.7418 ZZXY=            136.4284
 N-N= 3.044016214327D+03 E-N=-9.317170724288D+03  KE= 1.383620277441D+03
 Unable to Open any file for archive entry.
 1\1\GINC-AMR-242\SP\RB3LYP\6-31G(d)\C19H38N5O5(1+)\KENGMITH\02-Jun-202
 2\0\\# B3LYP/6-31G* empiricaldispersion=gd3 guess=read geom=check nosy
 mm integral(ultrafinegrid)\\Candidate Structure: Conf:472 Charge calc 
 in gas phase\\1,1\N,0,-1.4452771431,-2.6706966792,2.9004260888\H,0,-1.
 6792073351,-3.4497052269,3.521780092\H,0,-1.4589799211,-2.9534235656,1
 .8831353737\H,0,-0.4860953172,-2.3556766092,3.0945316357\C,0,-2.424783
 589,-1.5294972447,2.937105581\H,0,-2.1051442796,-0.7919923639,3.674591
 3831\H,0,-3.4071293645,-1.9242723941,3.2073400322\C,0,-2.411145907,-1.
 0001133739,1.4814126034\O,0,-1.9558310819,-1.762481462,0.6191351431\N,
 0,-2.8731992312,0.231318617,1.2707334832\H,0,-3.1045388015,0.814456965
 2,2.0686282112\C,0,-2.5792764243,0.9696107735,0.0140404437\H,0,-2.5317
 134721,0.2203106482,-0.7770852236\C,0,-1.1876042329,1.587027098,0.2965
 940475\C,0,-3.646446171,2.0208156124,-0.2704456488\H,0,-3.5702902533,2
 .8022827475,0.4955005303\H,0,-3.3738895782,2.5035362866,-1.2181680988\
 O,0,-1.0850169289,2.6392069012,0.9169513127\C,0,-5.0875152167,1.484907
 3818,-0.3601877749\H,0,-5.3480051961,1.0426800682,0.6141764339\C,0,-6.
 0535402826,2.6491980026,-0.6213212651\H,0,-5.8468508492,3.1148573012,-
 1.5929038817\H,0,-7.092103164,2.3016051092,-0.632809023\H,0,-5.9646715
 128,3.4256870849,0.1471922182\C,0,-5.241073383,0.3942334898,-1.4305082
 375\H,0,-4.9349453315,0.7695799917,-2.4152837914\H,0,-4.6419678304,-0.
 4972217625,-1.2090725579\H,0,-6.2854657513,0.0739527922,-1.5091077865\
 N,0,-0.1501115024,0.779089431,-0.0283326627\H,0,-0.2701905872,-0.01041
 88201,-0.6561530685\C,0,1.2278333078,1.0646605427,0.3319962247\H,0,1.3
 46417189,2.1502422081,0.4050944368\C,0,2.1124702608,0.4860207219,-0.78
 56503307\C,0,1.6244669756,0.4243684156,1.7000107824\H,0,2.6686313446,0
 .7072870558,1.888160575\O,0,1.6850594463,-0.4008594503,-1.5278541232\C
 ,0,0.76942955,0.975780739,2.8486159848\H,0,-0.2762343881,0.6561999728,
 2.7407710894\H,0,1.1443779217,0.6116049357,3.8124523239\H,0,0.76171790
 42,2.0682493943,2.8673516512\C,0,1.5481097242,-1.1100357434,1.64916677
 91\H,0,0.5532140929,-1.4253193466,1.3080152417\H,0,1.7561092474,-1.532
 7485607,2.64264158\H,0,2.2687583953,-1.5451841272,0.95138054\N,0,3.367
 9368363,0.9722895847,-0.8296182549\H,0,3.7146556891,1.555481325,-0.073
 0530611\C,0,4.4250986658,0.3371519036,-1.6109345995\H,0,4.3362143591,-
 0.7522212267,-1.4857355932\C,0,5.7546070111,0.7531977962,-0.9373657416
 \C,0,4.3267580072,0.6456660355,-3.1109972875\H,0,5.000532846,-0.041043
 8256,-3.6294978845\H,0,3.3177950927,0.3699131112,-3.4319996707\O,0,6.8
 802156035,0.5693971234,-1.6056825658\C,0,4.6416645899,2.1102980065,-3.
 4908773598\H,0,5.2357413778,2.5926779084,-2.7023392539\H,0,3.705646491
 6,2.6767867604,-3.5409393409\C,0,5.3999356182,2.2543220968,-4.82319597
 7\H,0,4.9698650612,1.5753622148,-5.5743682113\H,0,5.2588147865,3.26802
 42944,-5.2175508134\C,0,6.9133413674,2.0259905966,-4.7234961181\H,0,7.
 3797581995,2.2531508565,-5.6930120024\H,0,7.3358488902,2.7212237135,-3
 .9886356658\N,0,7.2605572232,0.6586987142,-4.2621845857\H,0,8.27579243
 97,0.5623613685,-4.2224752734\H,0,6.8209152957,0.4568693567,-2.6138956
 34\H,0,6.9406628152,-0.0284732646,-4.9452755862\O,0,5.7470947303,1.191
 3251821,0.1992764125\\Version=ES64L-G16RevC.01\HF=-1396.7169579\RMSD=7
 .499e-09\Dipole=-3.1936882,-3.8390151,2.9372865\Quadrupole=9.537433,-2
 3.9222206,14.3847876,9.4379014,-53.0247602,-30.6519616\PG=C01 [X(C19H3
 8N5O5)]\\@
 The archive entry for this job was punched.


 The number of Unix installations has grown to 10,
  with more expected.
                  -- The Unix Programmer's Manual,
                     2nd Edition, June, 1972.
 Job cpu time:       0 days  0 hours  1 minutes  4.1 seconds.
 Elapsed time:       0 days  0 hours  0 minutes 16.4 seconds.
 File lengths (MBytes):  RWF=    256 Int=      0 D2E=      0 Chk=     40 Scr=     16
 Normal termination of Gaussian 16 at Thu Jun  2 03:14:55 2022.
