 Entering Gaussian System, Link 0=/opt/software/Gaussian/g16-AVX2-C.01/g16/g16
 Input=charge-conf-747.com
 Output=charge-conf-747.log
 Initial command:
 /opt/software/Gaussian/g16-AVX2-C.01/g16/l1.exe "/mnt/gs18/scratch/users/kengmith/Gau-83348.inp" -scrdir="/mnt/gs18/scratch/users/kengmith/"
 Entering Link 1 = /opt/software/Gaussian/g16-AVX2-C.01/g16/l1.exe PID=     83358.
  
 Copyright (c) 1988-2019, Gaussian, Inc.  All Rights Reserved.
  
 This is part of the Gaussian(R) 16 program.  It is based on
 the Gaussian(R) 09 system (copyright 2009, Gaussian, Inc.),
 the Gaussian(R) 03 system (copyright 2003, Gaussian, Inc.),
 the Gaussian(R) 98 system (copyright 1998, Gaussian, Inc.),
 the Gaussian(R) 94 system (copyright 1995, Gaussian, Inc.),
 the Gaussian 92(TM) system (copyright 1992, Gaussian, Inc.),
 the Gaussian 90(TM) system (copyright 1990, Gaussian, Inc.),
 the Gaussian 88(TM) system (copyright 1988, Gaussian, Inc.),
 the Gaussian 86(TM) system (copyright 1986, Carnegie Mellon
 University), and the Gaussian 82(TM) system (copyright 1983,
 Carnegie Mellon University). Gaussian is a federally registered
 trademark of Gaussian, Inc.
  
 This software contains proprietary and confidential information,
 including trade secrets, belonging to Gaussian, Inc.
  
 This software is provided under written license and may be
 used, copied, transmitted, or stored only in accord with that
 written license.
  
 The following legend is applicable only to US Government
 contracts under FAR:
  
                    RESTRICTED RIGHTS LEGEND
  
 Use, reproduction and disclosure by the US Government is
 subject to restrictions as set forth in subparagraphs (a)
 and (c) of the Commercial Computer Software - Restricted
 Rights clause in FAR 52.227-19.
  
 Gaussian, Inc.
 340 Quinnipiac St., Bldg. 40, Wallingford CT 06492
  
  
 ---------------------------------------------------------------
 Warning -- This program may not be used in any manner that
 competes with the business of Gaussian, Inc. or will provide
 assistance to any competitor of Gaussian, Inc.  The licensee
 of this program is prohibited from giving any competitor of
 Gaussian, Inc. access to this program.  By using this program,
 the user acknowledges that Gaussian, Inc. is engaged in the
 business of creating and licensing software in the field of
 computational chemistry and represents and warrants to the
 licensee that it is not a competitor of Gaussian, Inc. and that
 it will not use this program in any manner prohibited above.
 ---------------------------------------------------------------
  

 Cite this work as:
 Gaussian 16, Revision C.01,
 M. J. Frisch, G. W. Trucks, H. B. Schlegel, G. E. Scuseria, 
 M. A. Robb, J. R. Cheeseman, G. Scalmani, V. Barone, 
 G. A. Petersson, H. Nakatsuji, X. Li, M. Caricato, A. V. Marenich, 
 J. Bloino, B. G. Janesko, R. Gomperts, B. Mennucci, H. P. Hratchian, 
 J. V. Ortiz, A. F. Izmaylov, J. L. Sonnenberg, D. Williams-Young, 
 F. Ding, F. Lipparini, F. Egidi, J. Goings, B. Peng, A. Petrone, 
 T. Henderson, D. Ranasinghe, V. G. Zakrzewski, J. Gao, N. Rega, 
 G. Zheng, W. Liang, M. Hada, M. Ehara, K. Toyota, R. Fukuda, 
 J. Hasegawa, M. Ishida, T. Nakajima, Y. Honda, O. Kitao, H. Nakai, 
 T. Vreven, K. Throssell, J. A. Montgomery, Jr., J. E. Peralta, 
 F. Ogliaro, M. J. Bearpark, J. J. Heyd, E. N. Brothers, K. N. Kudin, 
 V. N. Staroverov, T. A. Keith, R. Kobayashi, J. Normand, 
 K. Raghavachari, A. P. Rendell, J. C. Burant, S. S. Iyengar, 
 J. Tomasi, M. Cossi, J. M. Millam, M. Klene, C. Adamo, R. Cammi, 
 J. W. Ochterski, R. L. Martin, K. Morokuma, O. Farkas, 
 J. B. Foresman, and D. J. Fox, Gaussian, Inc., Wallingford CT, 2019.
 
 ******************************************
 Gaussian 16:  ES64L-G16RevC.01  3-Jul-2019
                27-Jun-2022 
 ******************************************
 %mem=8gb
 %nproc=4
 Will use up to    4 processors via shared memory.
 %chk=conf-747.chk
 ----------------------------------------------------------------------
 # B3LYP/6-31G* empiricaldispersion=gd3 guess=read geom=check nosymm in
 tegral(ultrafinegrid)
 ----------------------------------------------------------------------
 1/29=2,38=1,172=1/1;
 2/12=2,15=1,40=1/2;
 3/5=1,6=6,7=1,11=2,14=-4,25=1,30=1,74=-5,75=-5,116=-2,124=31/1,2,3;
 4/5=1/1;
 5/5=2,38=6/2;
 6/7=2,8=2,9=2,10=2,28=1/1;
 99/5=1,9=1/99;
 ------------------------------------------------------
 Candidate Structure: Conf:747 Charge calc in gas phase
 ------------------------------------------------------
 Structure from the checkpoint file:  "conf-747.chk"
 Charge =  1 Multiplicity = 1
 Redundant internal coordinates found in file.  (old form).
 N,0,-3.5767891768,-2.3877340806,-8.6801166202
 H,0,-4.5803701799,-2.2815697682,-8.8477496825
 H,0,-3.1473011681,-2.941710694,-9.4393516255
 H,0,-3.1563011244,-1.4278042657,-8.562362489
 C,0,-3.2568525542,-3.0545342346,-7.3710187748
 H,0,-4.0960542335,-3.6912190409,-7.0797868096
 C,0,-3.0140376345,-1.8702056093,-6.4028195511
 C,0,-1.9641504016,-3.8968552553,-7.5908362965
 H,0,-1.1236197877,-3.1960392057,-7.6577266777
 O,0,-2.7681835215,-0.7674030112,-6.9143018922
 C,0,-1.7234630729,-4.9062082546,-6.4756835158
 H,0,-1.5919035907,-4.4231656168,-5.5029456654
 H,0,-2.5656890697,-5.6060183734,-6.3942597684
 H,0,-0.8181233498,-5.4778127779,-6.6980972524
 O,0,-2.0394444364,-4.5058320981,-8.8826946707
 H,0,-2.4253028306,-5.3936139593,-8.7968401316
 N,0,-3.0370975224,-2.1689236156,-5.1157971421
 H,0,-3.1953418074,-3.1198807202,-4.7783480641
 C,0,-2.6803286815,-1.2663308079,-4.0169209409
 H,0,-1.9313562241,-0.5527977376,-4.3679303497
 C,0,-2.0761766833,-2.224566573,-2.9650389695
 C,0,-3.9552202823,-0.5113845389,-3.5227457748
 H,0,-4.4870791006,-0.2386059726,-4.4459203553
 O,0,-2.3789295281,-3.4308307698,-3.0129206169
 C,0,-3.6314314361,0.7944210364,-2.7789082845
 H,0,-2.9613381244,0.578286276,-1.9425372468
 H,0,-4.5661053912,1.1540970418,-2.3291755149
 C,0,-4.8639139564,-1.4238947894,-2.6865182765
 H,0,-4.4086681989,-1.6443243122,-1.7143209604
 H,0,-5.0644298473,-2.3801119744,-3.182306446
 H,0,-5.8234216079,-0.9305645481,-2.5011319021
 C,0,-3.0411921854,1.8996579925,-3.6597229524
 H,0,-2.8755925882,2.806199902,-3.0689376692
 H,0,-3.7199476525,2.1493521519,-4.4847556661
 H,0,-2.0720302199,1.6131631262,-4.0768752554
 N,0,-1.2701555076,-1.6801667071,-2.0459211605
 H,0,-0.8740034837,-0.7227618902,-2.2316546116
 C,0,-0.6846555658,-2.5348661266,-1.0101736606
 H,0,-1.4555313294,-3.2595059242,-0.7338389058
 C,0,-0.4637688,-1.7141413235,0.2802772508
 C,0,0.5294699461,-3.309476159,-1.5394354841
 H,0,0.9603223209,-3.9484925173,-0.7617066675
 H,0,1.3077084831,-2.6322470464,-1.9104108736
 H,0,0.2052963785,-3.9426809879,-2.3694647116
 O,0,-1.416057733,-1.3799268273,0.9738040123
 N,0,0.8312611562,-1.4332780758,0.6017222019
 H,0,1.5666753743,-1.591065068,-0.0723782878
 C,0,1.2345243234,-0.7638281731,1.8290625428
 H,0,0.3189353921,-0.5408923587,2.3829660314
 C,0,1.9941681641,0.5109018717,1.461490507
 C,0,2.1639471491,-1.6825902954,2.6523936253
 H,0,2.9253560261,-2.0880329179,1.97414884
 H,0,1.5835506612,-2.5266117775,3.0342128887
 O,0,2.9051623383,0.4610000526,0.633927478
 C,0,2.8670568142,-0.981483001,3.818267372
 H,0,3.6041327354,-0.2597081795,3.4499234388
 H,0,2.1336031844,-0.4329707369,4.4278043886
 C,0,3.5422068888,-1.9963388782,4.749674779
 N,0,4.7290574079,-1.5836213247,5.2728581951
 H,0,5.2454996255,-0.7988513347,4.8818790055
 H,0,5.2206698056,-2.2415852729,5.8631805615
 O,0,3.0118761791,-3.0654997007,5.020672901
 N,0,1.6789624561,1.6445019471,2.1482645996
 H,0,0.8097394712,1.636944492,2.6658631268
 C,0,2.2158672637,2.9483704661,1.7596183664
 H,0,2.7211603524,2.7843242113,0.8056476794
 C,0,3.3605815912,3.4251483484,2.6624968842
 C,0,1.0800070312,3.9754428037,1.4804473189
 H,0,1.5546106902,4.9452422,1.3006558645
 H,0,0.4447010126,4.0755934835,2.3709991755
 O,0,4.0487855502,4.3853278008,2.3265982593
 C,0,0.3244311279,3.4603715304,0.2759031155
 C,0,0.7635653448,3.7482084208,-1.02248814
 H,0,1.3983690958,4.6177596858,-1.1919857563
 C,0,-0.5735204202,2.3888648883,0.4209938632
 H,0,-1.0215943292,2.1893319113,1.3938443127
 C,0,0.4722374973,2.8934356658,-2.0918005055
 H,0,0.8031170665,3.1264647952,-3.1026683352
 C,0,-0.835804125,1.5067361881,-0.6156564893
 H,0,-1.4624704094,0.643828047,-0.4263030333
 O,0,-0.1594291035,0.6885678761,-2.7707221086
 C,0,-0.195125402,1.6552910845,-1.8735258754
 N,0,3.603498278,2.6661298237,3.7664451327
 H,0,3.072353309,1.8087945855,3.852968775
 C,0,4.8966867313,2.7099775552,4.4495006348
 H,0,5.2226248973,3.7532020388,4.4357719202
 C,0,5.8755149298,1.8495174138,3.6197696711
 C,0,4.7755064817,2.2074744824,5.8835293656
 H,0,5.746555182,2.2558443138,6.3849901141
 H,0,4.0646927487,2.8290930655,6.4350747536
 H,0,4.4391460053,1.166711201,5.9133341713
 O,0,6.0411000068,0.6453165015,3.8350039367
 N,0,6.4759298962,2.499578929,2.5912726774
 H,0,6.3225560181,3.4983099429,2.496527103
 C,0,7.5427279868,1.9047247669,1.8070893686
 H,0,7.7605363514,0.9278736126,2.2472591077
 C,0,8.7816218532,2.7921554024,1.928038674
 C,0,7.196271542,1.7219164232,0.3118923186
 H,0,8.0904503392,1.3257340029,-0.1845461474
 H,0,7.0027382854,2.7107275858,-0.1276437039
 O,0,8.7751140896,3.9334224572,2.3270091445
 C,0,5.9955079023,0.8026374008,0.0580951413
 H,0,5.0847742953,1.2377292703,0.4774230486
 H,0,6.1307907251,-0.1555442954,0.5753155844
 C,0,5.8367552818,0.5575097074,-1.4547294058
 H,0,6.6794756693,-0.0343381018,-1.8268610625
 H,0,5.8626877925,1.5052418791,-2.0034021878
 N,0,4.6143950372,-0.1433827061,-1.8673404776
 H,0,4.5860491414,-1.1441817947,-1.7308694725
 N,0,3.3307324897,1.7877107625,-1.9150232438
 H,0,2.3978917841,2.1984107701,-2.0181252969
 H,0,3.8369224407,2.1616898519,-1.1238190976
 N,0,2.4063365847,-0.2273291313,-2.6098703963
 H,0,1.4311036942,0.1786549128,-2.7321203213
 H,0,2.6003931665,-1.1017157735,-3.0774758741
 C,0,3.4349136711,0.4640814949,-2.109310899
 O,0,9.8837525105,2.1502787603,1.48704866
 H,0,10.6297550054,2.7762030103,1.5603155254
 Recover connectivity data from disk.
                           ----------------------------
                           !    Current Parameters    !
                           ! (Angstroms and Degrees)  !
 --------------------------                            --------------------------
 ! Name  Definition              Value                                          !
 --------------------------------------------------------------------------------
 ! R1    R(1,2)                  1.023                                          !
 ! R2    R(1,3)                  1.0333                                         !
 ! R3    R(1,4)                  1.0546                                         !
 ! R4    R(1,5)                  1.5036                                         !
 ! R5    R(5,6)                  1.0929                                         !
 ! R6    R(5,7)                  1.5489                                         !
 ! R7    R(5,8)                  1.5585                                         !
 ! R8    R(7,10)                 1.2403                                         !
 ! R9    R(7,17)                 1.3214                                         !
 ! R10   R(8,9)                  1.0964                                         !
 ! R11   R(8,11)                 1.5232                                         !
 ! R12   R(8,15)                 1.4302                                         !
 ! R13   R(11,12)                1.094                                          !
 ! R14   R(11,13)                1.098                                          !
 ! R15   R(11,14)                1.0935                                         !
 ! R16   R(15,16)                0.9718                                         !
 ! R17   R(17,18)                1.0214                                         !
 ! R18   R(17,19)                1.4661                                         !
 ! R19   R(19,20)                1.0924                                         !
 ! R20   R(19,21)                1.5459                                         !
 ! R21   R(19,22)                1.5619                                         !
 ! R22   R(21,24)                1.2446                                         !
 ! R23   R(21,36)                1.3382                                         !
 ! R24   R(22,23)                1.0998                                         !
 ! R25   R(22,25)                1.5373                                         !
 ! R26   R(22,28)                1.5355                                         !
 ! R27   R(25,26)                1.0933                                         !
 ! R28   R(25,27)                1.0978                                         !
 ! R29   R(25,32)                1.5316                                         !
 ! R30   R(28,29)                1.0959                                         !
 ! R31   R(28,30)                1.0956                                         !
 ! R32   R(28,31)                1.0947                                         !
 ! R33   R(32,33)                1.0947                                         !
 ! R34   R(32,34)                1.0971                                         !
 ! R35   R(32,35)                1.0933                                         !
 ! R36   R(36,37)                1.0526                                         !
 ! R37   R(36,38)                1.465                                          !
 ! R38   R(38,39)                1.0935                                         !
 ! R39   R(38,40)                1.5452                                         !
 ! R40   R(38,41)                1.5344                                         !
 ! R41   R(40,45)                1.2246                                         !
 ! R42   R(40,46)                1.3636                                         !
 ! R43   R(41,42)                1.0949                                         !
 ! R44   R(41,43)                1.0963                                         !
 ! R45   R(41,44)                1.0932                                         !
 ! R46   R(46,47)                1.01                                           !
 ! R47   R(46,48)                1.455                                          !
 ! R48   R(48,49)                1.0931                                         !
 ! R49   R(48,50)                1.5288                                         !
 ! R50   R(48,51)                1.5446                                         !
 ! R51   R(50,54)                1.2318                                         !
 ! R52   R(50,63)                1.3624                                         !
 ! R53   R(51,52)                1.0973                                         !
 ! R54   R(51,53)                1.0932                                         !
 ! R55   R(51,55)                1.5314                                         !
 ! R56   R(55,56)                1.0954                                         !
 ! R57   R(55,57)                1.1002                                         !
 ! R58   R(55,58)                1.534                                          !
 ! R59   R(58,59)                1.3611                                         !
 ! R60   R(58,62)                1.2238                                         !
 ! R61   R(59,60)                1.0176                                         !
 ! R62   R(59,61)                1.0115                                         !
 ! R63   R(63,64)                1.0117                                         !
 ! R64   R(63,65)                1.4627                                         !
 ! R65   R(65,66)                1.0919                                         !
 ! R66   R(65,67)                1.5339                                         !
 ! R67   R(65,68)                1.5566                                         !
 ! R68   R(67,71)                1.2282                                         !
 ! R69   R(67,83)                1.3616                                         !
 ! R70   R(68,69)                1.0946                                         !
 ! R71   R(68,70)                1.0985                                         !
 ! R72   R(68,72)                1.5123                                         !
 ! R73   R(72,73)                1.4005                                         !
 ! R74   R(72,75)                1.4055                                         !
 ! R75   R(73,74)                1.0899                                         !
 ! R76   R(73,77)                1.3996                                         !
 ! R77   R(75,76)                1.0895                                         !
 ! R78   R(75,79)                1.3862                                         !
 ! R79   R(77,78)                1.0889                                         !
 ! R80   R(77,82)                1.4234                                         !
 ! R81   R(79,80)                1.0831                                         !
 ! R82   R(79,82)                1.4194                                         !
 ! R83   R(81,82)                1.3194                                         !
 ! R84   R(83,84)                1.0122                                         !
 ! R85   R(83,85)                1.4632                                         !
 ! R86   R(85,86)                1.093                                          !
 ! R87   R(85,87)                1.545                                          !
 ! R88   R(85,88)                1.5243                                         !
 ! R89   R(87,92)                1.2344                                         !
 ! R90   R(87,93)                1.3568                                         !
 ! R91   R(88,89)                1.094                                          !
 ! R92   R(88,90)                1.0936                                         !
 ! R93   R(88,91)                1.0942                                         !
 ! R94   R(93,94)                1.0149                                         !
 ! R95   R(93,95)                1.4515                                         !
 ! R96   R(95,96)                1.0934                                         !
 ! R97   R(95,97)                1.5287                                         !
 ! R98   R(95,98)                1.5457                                         !
 ! R99   R(97,101)               1.209                                          !
 ! R100  R(97,117)               1.3495                                         !
 ! R101  R(98,99)                1.0968                                         !
 ! R102  R(98,100)               1.0993                                         !
 ! R103  R(98,102)               1.5334                                         !
 ! R104  R(102,103)              1.093                                          !
 ! R105  R(102,104)              1.0972                                         !
 ! R106  R(102,105)              1.5408                                         !
 ! R107  R(105,106)              1.095                                          !
 ! R108  R(105,107)              1.0954                                         !
 ! R109  R(105,108)              1.4682                                         !
 ! R110  R(108,109)              1.0105                                         !
 ! R111  R(108,116)              1.3486                                         !
 ! R112  R(110,111)              1.0244                                         !
 ! R113  R(110,112)              1.011                                          !
 ! R114  R(110,116)              1.3419                                         !
 ! R115  R(113,114)              1.0634                                         !
 ! R116  R(113,115)              1.0104                                         !
 ! R117  R(113,116)              1.3366                                         !
 ! R118  R(117,118)              0.9766                                         !
 ! A1    A(2,1,3)              110.0583                                         !
 ! A2    A(2,1,4)              108.3601                                         !
 ! A3    A(2,1,5)              113.418                                          !
 ! A4    A(3,1,4)              113.8476                                         !
 ! A5    A(3,1,5)              108.2714                                         !
 ! A6    A(4,1,5)              102.8039                                         !
 ! A7    A(1,5,6)              109.0852                                         !
 ! A8    A(1,5,7)              103.7984                                         !
 ! A9    A(1,5,8)              107.0605                                         !
 ! A10   A(6,5,7)              113.5315                                         !
 ! A11   A(6,5,8)              111.0778                                         !
 ! A12   A(7,5,8)              111.802                                          !
 ! A13   A(5,7,10)             116.948                                          !
 ! A14   A(5,7,17)             115.673                                          !
 ! A15   A(10,7,17)            127.3097                                         !
 ! A16   A(5,8,9)              107.3987                                         !
 ! A17   A(5,8,11)             112.702                                          !
 ! A18   A(5,8,15)             108.2926                                         !
 ! A19   A(9,8,11)             110.3088                                         !
 ! A20   A(9,8,15)             104.9172                                         !
 ! A21   A(11,8,15)            112.7959                                         !
 ! A22   A(8,11,12)            112.1704                                         !
 ! A23   A(8,11,13)            110.818                                          !
 ! A24   A(8,11,14)            109.1644                                         !
 ! A25   A(12,11,13)           107.9209                                         !
 ! A26   A(12,11,14)           108.1845                                         !
 ! A27   A(13,11,14)           108.4793                                         !
 ! A28   A(8,15,16)            109.2742                                         !
 ! A29   A(7,17,18)            122.3406                                         !
 ! A30   A(7,17,19)            125.9149                                         !
 ! A31   A(18,17,19)           111.3005                                         !
 ! A32   A(17,19,20)           109.1555                                         !
 ! A33   A(17,19,21)           102.9145                                         !
 ! A34   A(17,19,22)           109.6386                                         !
 ! A35   A(20,19,21)           110.8292                                         !
 ! A36   A(20,19,22)           110.2179                                         !
 ! A37   A(21,19,22)           113.7867                                         !
 ! A38   A(19,21,24)           118.655                                          !
 ! A39   A(19,21,36)           116.7806                                         !
 ! A40   A(24,21,36)           124.5564                                         !
 ! A41   A(19,22,23)           104.4206                                         !
 ! A42   A(19,22,25)           113.0629                                         !
 ! A43   A(19,22,28)           111.5995                                         !
 ! A44   A(23,22,25)           107.2977                                         !
 ! A45   A(23,22,28)           108.5633                                         !
 ! A46   A(25,22,28)           111.4649                                         !
 ! A47   A(22,25,26)           109.3496                                         !
 ! A48   A(22,25,27)           107.2887                                         !
 ! A49   A(22,25,32)           114.5738                                         !
 ! A50   A(26,25,27)           105.8552                                         !
 ! A51   A(26,25,32)           110.2681                                         !
 ! A52   A(27,25,32)           109.1033                                         !
 ! A53   A(22,28,29)           110.9055                                         !
 ! A54   A(22,28,30)           112.3671                                         !
 ! A55   A(22,28,31)           110.0672                                         !
 ! A56   A(29,28,30)           107.5729                                         !
 ! A57   A(29,28,31)           107.7289                                         !
 ! A58   A(30,28,31)           108.031                                          !
 ! A59   A(25,32,33)           110.2146                                         !
 ! A60   A(25,32,34)           110.9945                                         !
 ! A61   A(25,32,35)           111.8354                                         !
 ! A62   A(33,32,34)           108.117                                          !
 ! A63   A(33,32,35)           106.7878                                         !
 ! A64   A(34,32,35)           108.7306                                         !
 ! A65   A(21,36,37)           118.3914                                         !
 ! A66   A(21,36,38)           119.2733                                         !
 ! A67   A(37,36,38)           120.3301                                         !
 ! A68   A(36,38,39)           106.4719                                         !
 ! A69   A(36,38,40)           109.7369                                         !
 ! A70   A(36,38,41)           111.5258                                         !
 ! A71   A(39,38,40)           103.9876                                         !
 ! A72   A(39,38,41)           108.0867                                         !
 ! A73   A(40,38,41)           116.302                                          !
 ! A74   A(38,40,45)           120.4493                                         !
 ! A75   A(38,40,46)           116.2342                                         !
 ! A76   A(45,40,46)           123.288                                          !
 ! A77   A(38,41,42)           111.1616                                         !
 ! A78   A(38,41,43)           111.5046                                         !
 ! A79   A(38,41,44)           108.6439                                         !
 ! A80   A(42,41,43)           108.7563                                         !
 ! A81   A(42,41,44)           108.5401                                         !
 ! A82   A(43,41,44)           108.1432                                         !
 ! A83   A(40,46,47)           120.1329                                         !
 ! A84   A(40,46,48)           123.8371                                         !
 ! A85   A(47,46,48)           115.6611                                         !
 ! A86   A(46,48,49)           106.8057                                         !
 ! A87   A(46,48,50)           108.5748                                         !
 ! A88   A(46,48,51)           110.0424                                         !
 ! A89   A(49,48,50)           111.592                                          !
 ! A90   A(49,48,51)           110.8071                                         !
 ! A91   A(50,48,51)           108.9743                                         !
 ! A92   A(48,50,54)           119.6867                                         !
 ! A93   A(48,50,63)           117.2351                                         !
 ! A94   A(54,50,63)           122.9223                                         !
 ! A95   A(48,51,52)           107.9284                                         !
 ! A96   A(48,51,53)           109.0235                                         !
 ! A97   A(48,51,55)           114.1893                                         !
 ! A98   A(52,51,53)           107.3981                                         !
 ! A99   A(52,51,55)           108.7316                                         !
 ! A100  A(53,51,55)           109.3498                                         !
 ! A101  A(51,55,56)           110.769                                          !
 ! A102  A(51,55,57)           110.1188                                         !
 ! A103  A(51,55,58)           111.1882                                         !
 ! A104  A(56,55,57)           107.8413                                         !
 ! A105  A(56,55,58)           110.1165                                         !
 ! A106  A(57,55,58)           106.6698                                         !
 ! A107  A(55,58,59)           114.6165                                         !
 ! A108  A(55,58,62)           121.4445                                         !
 ! A109  A(59,58,62)           123.892                                          !
 ! A110  A(58,59,60)           121.9179                                         !
 ! A111  A(58,59,61)           116.8009                                         !
 ! A112  A(60,59,61)           118.6365                                         !
 ! A113  A(50,63,64)           116.7742                                         !
 ! A114  A(50,63,65)           121.5249                                         !
 ! A115  A(64,63,65)           117.2571                                         !
 ! A116  A(63,65,66)           105.5501                                         !
 ! A117  A(63,65,67)           113.242                                          !
 ! A118  A(63,65,68)           111.5913                                         !
 ! A119  A(66,65,67)           102.451                                          !
 ! A120  A(66,65,68)           106.2672                                         !
 ! A121  A(67,65,68)           116.4258                                         !
 ! A122  A(65,67,71)           120.0128                                         !
 ! A123  A(65,67,83)           115.9201                                         !
 ! A124  A(71,67,83)           123.8903                                         !
 ! A125  A(65,68,69)           107.3174                                         !
 ! A126  A(65,68,70)           109.6805                                         !
 ! A127  A(65,68,72)           106.4212                                         !
 ! A128  A(69,68,70)           107.6469                                         !
 ! A129  A(69,68,72)           112.8029                                         !
 ! A130  A(70,68,72)           112.8184                                         !
 ! A131  A(68,72,73)           120.7803                                         !
 ! A132  A(68,72,75)           119.7762                                         !
 ! A133  A(73,72,75)           116.9167                                         !
 ! A134  A(72,73,74)           119.3917                                         !
 ! A135  A(72,73,77)           121.1648                                         !
 ! A136  A(74,73,77)           119.3194                                         !
 ! A137  A(72,75,76)           119.6394                                         !
 ! A138  A(72,75,79)           121.9253                                         !
 ! A139  A(76,75,79)           118.2552                                         !
 ! A140  A(73,77,78)           121.0189                                         !
 ! A141  A(73,77,82)           120.7752                                         !
 ! A142  A(78,77,82)           118.099                                          !
 ! A143  A(75,79,80)           119.0588                                         !
 ! A144  A(75,79,82)           120.7111                                         !
 ! A145  A(80,79,82)           119.9634                                         !
 ! A146  A(77,82,79)           116.0119                                         !
 ! A147  A(77,82,81)           121.3582                                         !
 ! A148  A(79,82,81)           122.557                                          !
 ! A149  A(67,83,84)           116.6056                                         !
 ! A150  A(67,83,85)           121.2983                                         !
 ! A151  A(84,83,85)           116.6954                                         !
 ! A152  A(83,85,86)           106.6361                                         !
 ! A153  A(83,85,87)           107.0109                                         !
 ! A154  A(83,85,88)           111.041                                          !
 ! A155  A(86,85,87)           109.6266                                         !
 ! A156  A(86,85,88)           110.4964                                         !
 ! A157  A(87,85,88)           111.839                                          !
 ! A158  A(85,87,92)           122.3197                                         !
 ! A159  A(85,87,93)           114.8743                                         !
 ! A160  A(92,87,93)           122.6966                                         !
 ! A161  A(85,88,89)           110.2485                                         !
 ! A162  A(85,88,90)           109.8015                                         !
 ! A163  A(85,88,91)           111.3229                                         !
 ! A164  A(89,88,90)           108.7019                                         !
 ! A165  A(89,88,91)           107.6044                                         !
 ! A166  A(90,88,91)           109.0949                                         !
 ! A167  A(87,93,94)           118.3846                                         !
 ! A168  A(87,93,95)           122.5763                                         !
 ! A169  A(94,93,95)           117.6415                                         !
 ! A170  A(93,95,96)           107.1613                                         !
 ! A171  A(93,95,97)           108.3592                                         !
 ! A172  A(93,95,98)           113.9757                                         !
 ! A173  A(96,95,97)           108.9869                                         !
 ! A174  A(96,95,98)           109.1732                                         !
 ! A175  A(97,95,98)           109.0772                                         !
 ! A176  A(95,97,101)          124.7307                                         !
 ! A177  A(95,97,117)          111.0934                                         !
 ! A178  A(101,97,117)         124.1401                                         !
 ! A179  A(95,98,99)           107.3273                                         !
 ! A180  A(95,98,100)          108.6547                                         !
 ! A181  A(95,98,102)          113.9875                                         !
 ! A182  A(99,98,100)          106.7068                                         !
 ! A183  A(99,98,102)          110.3005                                         !
 ! A184  A(100,98,102)         109.5859                                         !
 ! A185  A(98,102,103)         110.5091                                         !
 ! A186  A(98,102,104)         110.4236                                         !
 ! A187  A(98,102,105)         109.7901                                         !
 ! A188  A(103,102,104)        105.6356                                         !
 ! A189  A(103,102,105)        110.7433                                         !
 ! A190  A(104,102,105)        109.6704                                         !
 ! A191  A(102,105,106)        109.9007                                         !
 ! A192  A(102,105,107)        110.5925                                         !
 ! A193  A(102,105,108)        115.955                                          !
 ! A194  A(106,105,107)        106.2125                                         !
 ! A195  A(106,105,108)        106.6913                                         !
 ! A196  A(107,105,108)        106.9758                                         !
 ! A197  A(105,108,109)        117.2718                                         !
 ! A198  A(105,108,116)        124.3005                                         !
 ! A199  A(109,108,116)        116.4765                                         !
 ! A200  A(111,110,112)        112.7295                                         !
 ! A201  A(111,110,116)        116.8448                                         !
 ! A202  A(112,110,116)        116.0611                                         !
 ! A203  A(114,113,115)        116.9571                                         !
 ! A204  A(114,113,116)        123.4554                                         !
 ! A205  A(115,113,116)        118.2405                                         !
 ! A206  A(108,116,110)        119.0939                                         !
 ! A207  A(108,116,113)        120.4786                                         !
 ! A208  A(110,116,113)        120.3132                                         !
 ! A209  A(97,117,118)         107.1277                                         !
 ! D1    D(2,1,5,6)             26.0477                                         !
 ! D2    D(2,1,5,7)            -95.2848                                         !
 ! D3    D(2,1,5,8)            146.3292                                         !
 ! D4    D(3,1,5,6)            -96.4052                                         !
 ! D5    D(3,1,5,7)            142.2623                                         !
 ! D6    D(3,1,5,8)             23.8763                                         !
 ! D7    D(4,1,5,6)            142.82                                           !
 ! D8    D(4,1,5,7)             21.4876                                         !
 ! D9    D(4,1,5,8)            -96.8984                                         !
 ! D10   D(1,5,7,10)           -18.843                                          !
 ! D11   D(1,5,7,17)           163.9598                                         !
 ! D12   D(6,5,7,10)          -137.1487                                         !
 ! D13   D(6,5,7,17)            45.6541                                         !
 ! D14   D(8,5,7,10)            96.2199                                         !
 ! D15   D(8,5,7,17)           -80.9774                                         !
 ! D16   D(1,5,8,9)             73.3629                                         !
 ! D17   D(1,5,8,11)          -164.9447                                         !
 ! D18   D(1,5,8,15)           -39.4492                                         !
 ! D19   D(6,5,8,9)           -167.6358                                         !
 ! D20   D(6,5,8,11)           -45.9434                                         !
 ! D21   D(6,5,8,15)            79.552                                          !
 ! D22   D(7,5,8,9)            -39.6826                                         !
 ! D23   D(7,5,8,11)            82.0098                                         !
 ! D24   D(7,5,8,15)          -152.4948                                         !
 ! D25   D(5,7,17,18)            0.5824                                         !
 ! D26   D(5,7,17,19)          172.2577                                         !
 ! D27   D(10,7,17,18)        -176.2761                                         !
 ! D28   D(10,7,17,19)          -4.6007                                         !
 ! D29   D(5,8,11,12)          -61.3248                                         !
 ! D30   D(5,8,11,13)           59.3666                                         !
 ! D31   D(5,8,11,14)          178.782                                          !
 ! D32   D(9,8,11,12)           58.7044                                         !
 ! D33   D(9,8,11,13)          179.3958                                         !
 ! D34   D(9,8,11,14)          -61.1888                                         !
 ! D35   D(15,8,11,12)         175.6588                                         !
 ! D36   D(15,8,11,13)         -63.6498                                         !
 ! D37   D(15,8,11,14)          55.7656                                         !
 ! D38   D(5,8,15,16)          -93.0916                                         !
 ! D39   D(9,8,15,16)          152.4531                                         !
 ! D40   D(11,8,15,16)          32.3485                                         !
 ! D41   D(7,17,19,20)         -29.6223                                         !
 ! D42   D(7,17,19,21)        -147.3872                                         !
 ! D43   D(7,17,19,22)          91.2014                                         !
 ! D44   D(18,17,19,20)        142.8334                                         !
 ! D45   D(18,17,19,21)         25.0685                                         !
 ! D46   D(18,17,19,22)        -96.3429                                         !
 ! D47   D(17,19,21,24)        -22.2074                                         !
 ! D48   D(17,19,21,36)        158.7695                                         !
 ! D49   D(20,19,21,24)       -138.7861                                         !
 ! D50   D(20,19,21,36)         42.1908                                         !
 ! D51   D(22,19,21,24)         96.34                                           !
 ! D52   D(22,19,21,36)        -82.6831                                         !
 ! D53   D(17,19,22,23)        -42.0026                                         !
 ! D54   D(17,19,22,25)       -158.3085                                         !
 ! D55   D(17,19,22,28)         75.0843                                         !
 ! D56   D(20,19,22,23)         78.1758                                         !
 ! D57   D(20,19,22,25)        -38.13                                           !
 ! D58   D(20,19,22,28)       -164.7373                                         !
 ! D59   D(21,19,22,23)       -156.6239                                         !
 ! D60   D(21,19,22,25)         87.0703                                         !
 ! D61   D(21,19,22,28)        -39.537                                          !
 ! D62   D(19,21,36,37)        -17.0069                                         !
 ! D63   D(19,21,36,38)        179.0378                                         !
 ! D64   D(24,21,36,37)        164.034                                          !
 ! D65   D(24,21,36,38)          0.0787                                         !
 ! D66   D(19,22,25,26)        -56.146                                          !
 ! D67   D(19,22,25,27)       -170.512                                          !
 ! D68   D(19,22,25,32)         68.2078                                         !
 ! D69   D(23,22,25,26)       -170.7339                                         !
 ! D70   D(23,22,25,27)         74.9001                                         !
 ! D71   D(23,22,25,32)        -46.3801                                         !
 ! D72   D(28,22,25,26)         70.5327                                         !
 ! D73   D(28,22,25,27)        -43.8333                                         !
 ! D74   D(28,22,25,32)       -165.1135                                         !
 ! D75   D(19,22,28,29)         70.7074                                         !
 ! D76   D(19,22,28,30)        -49.7349                                         !
 ! D77   D(19,22,28,31)       -170.177                                          !
 ! D78   D(23,22,28,29)       -174.7414                                         !
 ! D79   D(23,22,28,30)         64.8164                                         !
 ! D80   D(23,22,28,31)        -55.6258                                         !
 ! D81   D(25,22,28,29)        -56.7669                                         !
 ! D82   D(25,22,28,30)       -177.2091                                         !
 ! D83   D(25,22,28,31)         62.3488                                         !
 ! D84   D(22,25,32,33)        177.7586                                         !
 ! D85   D(22,25,32,34)         58.0073                                         !
 ! D86   D(22,25,32,35)        -63.6138                                         !
 ! D87   D(26,25,32,33)        -58.3761                                         !
 ! D88   D(26,25,32,34)       -178.1274                                         !
 ! D89   D(26,25,32,35)         60.2515                                         !
 ! D90   D(27,25,32,33)         57.4799                                         !
 ! D91   D(27,25,32,34)        -62.2714                                         !
 ! D92   D(27,25,32,35)        176.1075                                         !
 ! D93   D(21,36,38,39)        -37.9877                                         !
 ! D94   D(21,36,38,40)       -149.9423                                         !
 ! D95   D(21,36,38,41)         79.6993                                         !
 ! D96   D(37,36,38,39)        158.374                                          !
 ! D97   D(37,36,38,40)         46.4194                                         !
 ! D98   D(37,36,38,41)        -83.9391                                         !
 ! D99   D(36,38,40,45)         72.7397                                         !
 ! D100  D(36,38,40,46)       -109.1382                                         !
 ! D101  D(39,38,40,45)        -40.8272                                         !
 ! D102  D(39,38,40,46)        137.2949                                         !
 ! D103  D(41,38,40,45)       -159.5134                                         !
 ! D104  D(41,38,40,46)         18.6086                                         !
 ! D105  D(36,38,41,42)       -179.8203                                         !
 ! D106  D(36,38,41,43)         58.6384                                         !
 ! D107  D(36,38,41,44)        -60.4502                                         !
 ! D108  D(39,38,41,42)        -63.1108                                         !
 ! D109  D(39,38,41,43)        175.3479                                         !
 ! D110  D(39,38,41,44)         56.2593                                         !
 ! D111  D(40,38,41,42)         53.3168                                         !
 ! D112  D(40,38,41,43)        -68.2244                                         !
 ! D113  D(40,38,41,44)        172.687                                          !
 ! D114  D(38,40,46,47)         12.227                                          !
 ! D115  D(38,40,46,48)       -175.0552                                         !
 ! D116  D(45,40,46,47)       -169.7097                                         !
 ! D117  D(45,40,46,48)          3.0081                                         !
 ! D118  D(40,46,48,49)         -0.8825                                         !
 ! D119  D(40,46,48,50)       -121.349                                          !
 ! D120  D(40,46,48,51)        119.4603                                         !
 ! D121  D(47,46,48,49)        172.1318                                         !
 ! D122  D(47,46,48,50)         51.6653                                         !
 ! D123  D(47,46,48,51)        -67.5253                                         !
 ! D124  D(46,48,50,54)        -49.1956                                         !
 ! D125  D(46,48,50,63)        135.2098                                         !
 ! D126  D(49,48,50,54)       -166.6493                                         !
 ! D127  D(49,48,50,63)         17.7561                                         !
 ! D128  D(51,48,50,54)         70.6632                                         !
 ! D129  D(51,48,50,63)       -104.9313                                         !
 ! D130  D(46,48,51,52)         47.4402                                         !
 ! D131  D(46,48,51,53)        -68.9178                                         !
 ! D132  D(46,48,51,55)        168.4607                                         !
 ! D133  D(49,48,51,52)        165.3362                                         !
 ! D134  D(49,48,51,53)         48.9782                                         !
 ! D135  D(49,48,51,55)        -73.6433                                         !
 ! D136  D(50,48,51,52)        -71.5061                                         !
 ! D137  D(50,48,51,53)        172.1359                                         !
 ! D138  D(50,48,51,55)         49.5144                                         !
 ! D139  D(48,50,63,64)        -16.1908                                         !
 ! D140  D(48,50,63,65)       -171.8768                                         !
 ! D141  D(54,50,63,64)        168.369                                          !
 ! D142  D(54,50,63,65)         12.683                                          !
 ! D143  D(48,51,55,56)        -68.573                                          !
 ! D144  D(48,51,55,57)         50.6292                                         !
 ! D145  D(48,51,55,58)        168.6405                                         !
 ! D146  D(52,51,55,56)         52.0011                                         !
 ! D147  D(52,51,55,57)        171.2033                                         !
 ! D148  D(52,51,55,58)        -70.7854                                         !
 ! D149  D(53,51,55,56)        168.9835                                         !
 ! D150  D(53,51,55,57)        -71.8143                                         !
 ! D151  D(53,51,55,58)         46.197                                          !
 ! D152  D(51,55,58,59)        143.4823                                         !
 ! D153  D(51,55,58,62)        -38.9216                                         !
 ! D154  D(56,55,58,59)         20.3209                                         !
 ! D155  D(56,55,58,62)       -162.083                                          !
 ! D156  D(57,55,58,59)        -96.4406                                         !
 ! D157  D(57,55,58,62)         81.1555                                         !
 ! D158  D(55,58,59,60)        -16.3772                                         !
 ! D159  D(55,58,59,61)       -177.6788                                         !
 ! D160  D(62,58,59,60)        166.0935                                         !
 ! D161  D(62,58,59,61)          4.7919                                         !
 ! D162  D(50,63,65,66)          8.2762                                         !
 ! D163  D(50,63,65,67)       -103.0126                                         !
 ! D164  D(50,63,65,68)        123.2894                                         !
 ! D165  D(64,63,65,66)       -147.2982                                         !
 ! D166  D(64,63,65,67)        101.413                                          !
 ! D167  D(64,63,65,68)        -32.2851                                         !
 ! D168  D(63,65,67,71)        167.8768                                         !
 ! D169  D(63,65,67,83)         -7.477                                          !
 ! D170  D(66,65,67,71)         54.6974                                         !
 ! D171  D(66,65,67,83)       -120.6564                                         !
 ! D172  D(68,65,67,71)        -60.7741                                         !
 ! D173  D(68,65,67,83)        123.872                                          !
 ! D174  D(63,65,68,69)        174.1689                                         !
 ! D175  D(63,65,68,70)         57.5045                                         !
 ! D176  D(63,65,68,72)        -64.8256                                         !
 ! D177  D(66,65,68,69)        -71.2604                                         !
 ! D178  D(66,65,68,70)        172.0752                                         !
 ! D179  D(66,65,68,72)         49.7451                                         !
 ! D180  D(67,65,68,69)         42.0564                                         !
 ! D181  D(67,65,68,70)        -74.608                                          !
 ! D182  D(67,65,68,72)        163.0619                                         !
 ! D183  D(65,67,83,84)          5.6249                                         !
 ! D184  D(65,67,83,85)        158.8197                                         !
 ! D185  D(71,67,83,84)       -169.5281                                         !
 ! D186  D(71,67,83,85)        -16.3332                                         !
 ! D187  D(65,68,72,73)        -85.0161                                         !
 ! D188  D(65,68,72,75)         76.403                                          !
 ! D189  D(69,68,72,73)         32.4058                                         !
 ! D190  D(69,68,72,75)       -166.1752                                         !
 ! D191  D(70,68,72,73)        154.6589                                         !
 ! D192  D(70,68,72,75)        -43.9221                                         !
 ! D193  D(68,72,73,74)        -22.8087                                         !
 ! D194  D(68,72,73,77)        153.1133                                         !
 ! D195  D(75,72,73,74)        175.2612                                         !
 ! D196  D(75,72,73,77)         -8.8168                                         !
 ! D197  D(68,72,75,76)         24.0423                                         !
 ! D198  D(68,72,75,79)       -150.9948                                         !
 ! D199  D(73,72,75,76)       -173.8374                                         !
 ! D200  D(73,72,75,79)         11.1254                                         !
 ! D201  D(72,73,77,78)        179.1514                                         !
 ! D202  D(72,73,77,82)         -4.6781                                         !
 ! D203  D(74,73,77,78)         -4.9237                                         !
 ! D204  D(74,73,77,82)        171.2468                                         !
 ! D205  D(72,75,79,80)        174.2608                                         !
 ! D206  D(72,75,79,82)          0.1946                                         !
 ! D207  D(76,75,79,80)         -0.8424                                         !
 ! D208  D(76,75,79,82)       -174.9086                                         !
 ! D209  D(73,77,82,79)         15.6358                                         !
 ! D210  D(73,77,82,81)       -161.3377                                         !
 ! D211  D(78,77,82,79)       -168.0845                                         !
 ! D212  D(78,77,82,81)         14.9421                                         !
 ! D213  D(75,79,82,77)        -13.4242                                         !
 ! D214  D(75,79,82,81)        163.5095                                         !
 ! D215  D(80,79,82,77)        172.5631                                         !
 ! D216  D(80,79,82,81)        -10.5033                                         !
 ! D217  D(67,83,85,86)         38.8315                                         !
 ! D218  D(67,83,85,87)        -78.4277                                         !
 ! D219  D(67,83,85,88)        159.2622                                         !
 ! D220  D(84,83,85,86)       -167.9964                                         !
 ! D221  D(84,83,85,87)         74.7444                                         !
 ! D222  D(84,83,85,88)        -47.5657                                         !
 ! D223  D(83,85,87,92)        -91.0145                                         !
 ! D224  D(83,85,87,93)         85.2753                                         !
 ! D225  D(86,85,87,92)        153.7109                                         !
 ! D226  D(86,85,87,93)        -29.9994                                         !
 ! D227  D(88,85,87,92)         30.7953                                         !
 ! D228  D(88,85,87,93)       -152.915                                          !
 ! D229  D(83,85,88,89)       -179.3954                                         !
 ! D230  D(83,85,88,90)        -59.6555                                         !
 ! D231  D(83,85,88,91)         61.2609                                         !
 ! D232  D(86,85,88,89)        -61.2782                                         !
 ! D233  D(86,85,88,90)         58.4617                                         !
 ! D234  D(86,85,88,91)        179.3781                                         !
 ! D235  D(87,85,88,89)         61.142                                          !
 ! D236  D(87,85,88,90)       -179.1181                                         !
 ! D237  D(87,85,88,91)        -58.2017                                         !
 ! D238  D(85,87,93,94)          6.092                                          !
 ! D239  D(85,87,93,95)        172.2697                                         !
 ! D240  D(92,87,93,94)       -177.6339                                         !
 ! D241  D(92,87,93,95)        -11.4561                                         !
 ! D242  D(87,93,95,96)         -3.1374                                         !
 ! D243  D(87,93,95,97)       -120.6057                                         !
 ! D244  D(87,93,95,98)        117.7613                                         !
 ! D245  D(94,93,95,96)        163.1373                                         !
 ! D246  D(94,93,95,97)         45.669                                          !
 ! D247  D(94,93,95,98)        -75.964                                          !
 ! D248  D(93,95,97,101)       -16.3295                                         !
 ! D249  D(93,95,97,117)       165.7743                                         !
 ! D250  D(96,95,97,101)      -132.6224                                         !
 ! D251  D(96,95,97,117)        49.4814                                         !
 ! D252  D(98,95,97,101)       108.2669                                         !
 ! D253  D(98,95,97,117)       -69.6293                                         !
 ! D254  D(93,95,98,99)        176.6167                                         !
 ! D255  D(93,95,98,100)        61.5821                                         !
 ! D256  D(93,95,98,102)       -60.9297                                         !
 ! D257  D(96,95,98,99)        -63.6129                                         !
 ! D258  D(96,95,98,100)      -178.6475                                         !
 ! D259  D(96,95,98,102)        58.8407                                         !
 ! D260  D(97,95,98,99)         55.3817                                         !
 ! D261  D(97,95,98,100)       -59.6529                                         !
 ! D262  D(97,95,98,102)       177.8353                                         !
 ! D263  D(95,97,117,118)      178.0396                                         !
 ! D264  D(101,97,117,118)       0.1285                                         !
 ! D265  D(95,98,102,103)       64.0932                                         !
 ! D266  D(95,98,102,104)      -52.4165                                         !
 ! D267  D(95,98,102,105)     -173.4622                                         !
 ! D268  D(99,98,102,103)     -175.098                                          !
 ! D269  D(99,98,102,104)       68.3923                                         !
 ! D270  D(99,98,102,105)      -52.6533                                         !
 ! D271  D(100,98,102,103)     -57.9071                                         !
 ! D272  D(100,98,102,104)    -174.4168                                         !
 ! D273  D(100,98,102,105)      64.5375                                         !
 ! D274  D(98,102,105,106)      67.5663                                         !
 ! D275  D(98,102,105,107)     -49.3839                                         !
 ! D276  D(98,102,105,108)    -171.3739                                         !
 ! D277  D(103,102,105,106)   -170.1281                                         !
 ! D278  D(103,102,105,107)     72.9217                                         !
 ! D279  D(103,102,105,108)    -49.0683                                         !
 ! D280  D(104,102,105,106)    -53.9319                                         !
 ! D281  D(104,102,105,107)   -170.8821                                         !
 ! D282  D(104,102,105,108)     67.1279                                         !
 ! D283  D(102,105,108,109)    -77.5212                                         !
 ! D284  D(102,105,108,116)     85.9842                                         !
 ! D285  D(106,105,108,109)     45.243                                          !
 ! D286  D(106,105,108,116)   -151.2516                                         !
 ! D287  D(107,105,108,109)    158.5898                                         !
 ! D288  D(107,105,108,116)    -37.9048                                         !
 ! D289  D(105,108,116,110)     -2.8688                                         !
 ! D290  D(105,108,116,113)    173.2564                                         !
 ! D291  D(109,108,116,110)    160.7554                                         !
 ! D292  D(109,108,116,113)    -23.1193                                         !
 ! D293  D(111,110,116,108)   -174.0448                                         !
 ! D294  D(111,110,116,113)      9.8233                                         !
 ! D295  D(112,110,116,108)    -37.1936                                         !
 ! D296  D(112,110,116,113)    146.6746                                         !
 ! D297  D(114,113,116,108)    173.9625                                         !
 ! D298  D(114,113,116,110)     -9.9596                                         !
 ! D299  D(115,113,116,108)    -19.7101                                         !
 ! D300  D(115,113,116,110)    156.3677                                         !
 --------------------------------------------------------------------------------
 Symmetry turned off by external request.
 Stoichiometry    C36H60N11O11(1+)
 Framework group  C1[X(C36H60N11O11)]
 Deg. of freedom   348
 Full point group                 C1      NOp   1
                          Input orientation:                          
 ---------------------------------------------------------------------
 Center     Atomic      Atomic             Coordinates (Angstroms)
 Number     Number       Type             X           Y           Z
 ---------------------------------------------------------------------
      1          7           0       -3.576789   -2.387734   -8.680117
      2          1           0       -4.580370   -2.281570   -8.847750
      3          1           0       -3.147301   -2.941711   -9.439352
      4          1           0       -3.156301   -1.427804   -8.562362
      5          6           0       -3.256853   -3.054534   -7.371019
      6          1           0       -4.096054   -3.691219   -7.079787
      7          6           0       -3.014038   -1.870206   -6.402820
      8          6           0       -1.964150   -3.896855   -7.590836
      9          1           0       -1.123620   -3.196039   -7.657727
     10          8           0       -2.768184   -0.767403   -6.914302
     11          6           0       -1.723463   -4.906208   -6.475684
     12          1           0       -1.591904   -4.423166   -5.502946
     13          1           0       -2.565689   -5.606018   -6.394260
     14          1           0       -0.818123   -5.477813   -6.698097
     15          8           0       -2.039444   -4.505832   -8.882695
     16          1           0       -2.425303   -5.393614   -8.796840
     17          7           0       -3.037098   -2.168924   -5.115797
     18          1           0       -3.195342   -3.119881   -4.778348
     19          6           0       -2.680329   -1.266331   -4.016921
     20          1           0       -1.931356   -0.552798   -4.367930
     21          6           0       -2.076177   -2.224567   -2.965039
     22          6           0       -3.955220   -0.511385   -3.522746
     23          1           0       -4.487079   -0.238606   -4.445920
     24          8           0       -2.378930   -3.430831   -3.012921
     25          6           0       -3.631431    0.794421   -2.778908
     26          1           0       -2.961338    0.578286   -1.942537
     27          1           0       -4.566105    1.154097   -2.329176
     28          6           0       -4.863914   -1.423895   -2.686518
     29          1           0       -4.408668   -1.644324   -1.714321
     30          1           0       -5.064430   -2.380112   -3.182306
     31          1           0       -5.823422   -0.930565   -2.501132
     32          6           0       -3.041192    1.899658   -3.659723
     33          1           0       -2.875593    2.806200   -3.068938
     34          1           0       -3.719948    2.149352   -4.484756
     35          1           0       -2.072030    1.613163   -4.076875
     36          7           0       -1.270156   -1.680167   -2.045921
     37          1           0       -0.874003   -0.722762   -2.231655
     38          6           0       -0.684656   -2.534866   -1.010174
     39          1           0       -1.455531   -3.259506   -0.733839
     40          6           0       -0.463769   -1.714141    0.280277
     41          6           0        0.529470   -3.309476   -1.539435
     42          1           0        0.960322   -3.948493   -0.761707
     43          1           0        1.307708   -2.632247   -1.910411
     44          1           0        0.205296   -3.942681   -2.369465
     45          8           0       -1.416058   -1.379927    0.973804
     46          7           0        0.831261   -1.433278    0.601722
     47          1           0        1.566675   -1.591065   -0.072378
     48          6           0        1.234524   -0.763828    1.829063
     49          1           0        0.318935   -0.540892    2.382966
     50          6           0        1.994168    0.510902    1.461491
     51          6           0        2.163947   -1.682590    2.652394
     52          1           0        2.925356   -2.088033    1.974149
     53          1           0        1.583551   -2.526612    3.034213
     54          8           0        2.905162    0.461000    0.633927
     55          6           0        2.867057   -0.981483    3.818267
     56          1           0        3.604133   -0.259708    3.449923
     57          1           0        2.133603   -0.432971    4.427804
     58          6           0        3.542207   -1.996339    4.749675
     59          7           0        4.729057   -1.583621    5.272858
     60          1           0        5.245500   -0.798851    4.881879
     61          1           0        5.220670   -2.241585    5.863181
     62          8           0        3.011876   -3.065500    5.020673
     63          7           0        1.678962    1.644502    2.148265
     64          1           0        0.809739    1.636944    2.665863
     65          6           0        2.215867    2.948370    1.759618
     66          1           0        2.721160    2.784324    0.805648
     67          6           0        3.360582    3.425148    2.662497
     68          6           0        1.080007    3.975443    1.480447
     69          1           0        1.554611    4.945242    1.300656
     70          1           0        0.444701    4.075593    2.370999
     71          8           0        4.048786    4.385328    2.326598
     72          6           0        0.324431    3.460372    0.275903
     73          6           0        0.763565    3.748208   -1.022488
     74          1           0        1.398369    4.617760   -1.191986
     75          6           0       -0.573520    2.388865    0.420994
     76          1           0       -1.021594    2.189332    1.393844
     77          6           0        0.472237    2.893436   -2.091801
     78          1           0        0.803117    3.126465   -3.102668
     79          6           0       -0.835804    1.506736   -0.615656
     80          1           0       -1.462470    0.643828   -0.426303
     81          8           0       -0.159429    0.688568   -2.770722
     82          6           0       -0.195125    1.655291   -1.873526
     83          7           0        3.603498    2.666130    3.766445
     84          1           0        3.072353    1.808795    3.852969
     85          6           0        4.896687    2.709978    4.449501
     86          1           0        5.222625    3.753202    4.435772
     87          6           0        5.875515    1.849517    3.619770
     88          6           0        4.775506    2.207474    5.883529
     89          1           0        5.746555    2.255844    6.384990
     90          1           0        4.064693    2.829093    6.435075
     91          1           0        4.439146    1.166711    5.913334
     92          8           0        6.041100    0.645317    3.835004
     93          7           0        6.475930    2.499579    2.591273
     94          1           0        6.322556    3.498310    2.496527
     95          6           0        7.542728    1.904725    1.807089
     96          1           0        7.760536    0.927874    2.247259
     97          6           0        8.781622    2.792155    1.928039
     98          6           0        7.196272    1.721916    0.311892
     99          1           0        8.090450    1.325734   -0.184546
    100          1           0        7.002738    2.710728   -0.127644
    101          8           0        8.775114    3.933422    2.327009
    102          6           0        5.995508    0.802637    0.058095
    103          1           0        5.084774    1.237729    0.477423
    104          1           0        6.130791   -0.155544    0.575316
    105          6           0        5.836755    0.557510   -1.454729
    106          1           0        6.679476   -0.034338   -1.826861
    107          1           0        5.862688    1.505242   -2.003402
    108          7           0        4.614395   -0.143383   -1.867340
    109          1           0        4.586049   -1.144182   -1.730869
    110          7           0        3.330732    1.787711   -1.915023
    111          1           0        2.397892    2.198411   -2.018125
    112          1           0        3.836922    2.161690   -1.123819
    113          7           0        2.406337   -0.227329   -2.609870
    114          1           0        1.431104    0.178655   -2.732120
    115          1           0        2.600393   -1.101716   -3.077476
    116          6           0        3.434914    0.464081   -2.109311
    117          8           0        9.883753    2.150279    1.487049
    118          1           0       10.629755    2.776203    1.560316
 ---------------------------------------------------------------------
 Rotational constants (GHZ):           0.0785874           0.0211540           0.0206786
 Standard basis: 6-31G(d) (6D, 7F)
   990 basis functions,  1864 primitive gaussians,   990 cartesian basis functions
   220 alpha electrons      220 beta electrons
       nuclear repulsion energy      9310.6068345205 Hartrees.
 NAtoms=  118 NActive=  118 NUniq=  118 SFac= 1.00D+00 NAtFMM=   60 NAOKFM=T Big=T
 Integral buffers will be    131072 words long.
 Raffenetti 2 integral format.
 Two-electron integral symmetry is turned off.
 Nuclear repulsion after empirical dispersion term =     9310.4194603040 Hartrees.
 One-electron integrals computed using PRISM.
 NBasis=   990 RedAO= T EigKep=  4.61D-04  NBF=   990
 NBsUse=   990 1.00D-06 EigRej= -1.00D+00 NBFU=   990
 Initial guess from the checkpoint file:  "conf-747.chk"
 B after Tr=     0.000000    0.000000    0.000000
         Rot=    1.000000    0.000000    0.000000    0.000000 Ang=   0.00 deg.
 Requested convergence on RMS density matrix=1.00D-08 within 128 cycles.
 Requested convergence on MAX density matrix=1.00D-06.
 Requested convergence on             energy=1.00D-06.
 No special actions if energy rises.
 SCF Done:  E(RB3LYP) =  -2837.81783839     A.U. after    2 cycles
            NFock=  2  Conv=0.75D-08     -V/T= 2.0093
 Hyperfine terms turned off by default for NAtoms > 100.

 **********************************************************************

            Population analysis using the SCF Density.

 **********************************************************************

 Alpha  occ. eigenvalues --  -19.29895 -19.27285 -19.24872 -19.21640 -19.21057
 Alpha  occ. eigenvalues --  -19.20104 -19.19706 -19.19021 -19.17993 -19.15571
 Alpha  occ. eigenvalues --  -19.15512 -14.58563 -14.47670 -14.47547 -14.45417
 Alpha  occ. eigenvalues --  -14.45364 -14.45273 -14.43948 -14.43657 -14.43455
 Alpha  occ. eigenvalues --  -14.42138 -14.39432 -10.42823 -10.41892 -10.39623
 Alpha  occ. eigenvalues --  -10.39442 -10.39111 -10.37690 -10.36857 -10.36350
 Alpha  occ. eigenvalues --  -10.36229 -10.35696 -10.33505 -10.32621 -10.31818
 Alpha  occ. eigenvalues --  -10.31508 -10.31137 -10.30993 -10.30835 -10.30691
 Alpha  occ. eigenvalues --  -10.30297 -10.28745 -10.27916 -10.27382 -10.26526
 Alpha  occ. eigenvalues --  -10.26521 -10.26179 -10.25855 -10.25789 -10.24840
 Alpha  occ. eigenvalues --  -10.24548 -10.24277 -10.23984 -10.23795 -10.23415
 Alpha  occ. eigenvalues --  -10.23095 -10.22477 -10.21792  -1.18211  -1.18172
 Alpha  occ. eigenvalues --   -1.16612  -1.13026  -1.12327  -1.11868  -1.11365
 Alpha  occ. eigenvalues --   -1.11360  -1.10758  -1.10051  -1.09337  -1.07399
 Alpha  occ. eigenvalues --   -1.04305  -1.03361  -1.02054  -1.00950  -1.00704
 Alpha  occ. eigenvalues --   -0.99870  -0.99679  -0.99074  -0.98945  -0.94414
 Alpha  occ. eigenvalues --   -0.92408  -0.90184  -0.89043  -0.88378  -0.87281
 Alpha  occ. eigenvalues --   -0.85498  -0.84619  -0.84320  -0.83979  -0.82928
 Alpha  occ. eigenvalues --   -0.80446  -0.79642  -0.79250  -0.77835  -0.77515
 Alpha  occ. eigenvalues --   -0.77339  -0.76636  -0.73412  -0.73240  -0.73095
 Alpha  occ. eigenvalues --   -0.72970  -0.71573  -0.71482  -0.70874  -0.70243
 Alpha  occ. eigenvalues --   -0.69645  -0.68801  -0.68409  -0.67922  -0.67724
 Alpha  occ. eigenvalues --   -0.66516  -0.66304  -0.65885  -0.65814  -0.65482
 Alpha  occ. eigenvalues --   -0.64731  -0.64428  -0.64034  -0.63326  -0.62975
 Alpha  occ. eigenvalues --   -0.62374  -0.61895  -0.61429  -0.60284  -0.59761
 Alpha  occ. eigenvalues --   -0.58862  -0.58577  -0.58276  -0.57937  -0.57615
 Alpha  occ. eigenvalues --   -0.57480  -0.57123  -0.56968  -0.56902  -0.56002
 Alpha  occ. eigenvalues --   -0.55955  -0.55170  -0.55084  -0.54996  -0.54650
 Alpha  occ. eigenvalues --   -0.54355  -0.54045  -0.53501  -0.53070  -0.52900
 Alpha  occ. eigenvalues --   -0.52755  -0.52426  -0.52296  -0.51718  -0.51550
 Alpha  occ. eigenvalues --   -0.51163  -0.50775  -0.50419  -0.50190  -0.50062
 Alpha  occ. eigenvalues --   -0.49822  -0.49627  -0.49558  -0.49275  -0.48840
 Alpha  occ. eigenvalues --   -0.48668  -0.48431  -0.48278  -0.48086  -0.47963
 Alpha  occ. eigenvalues --   -0.47269  -0.47156  -0.47127  -0.46724  -0.46158
 Alpha  occ. eigenvalues --   -0.46039  -0.45839  -0.45745  -0.45598  -0.45518
 Alpha  occ. eigenvalues --   -0.45265  -0.45083  -0.44724  -0.44586  -0.44435
 Alpha  occ. eigenvalues --   -0.44158  -0.43868  -0.43532  -0.43353  -0.43282
 Alpha  occ. eigenvalues --   -0.43182  -0.42716  -0.42468  -0.42275  -0.42095
 Alpha  occ. eigenvalues --   -0.41944  -0.41571  -0.40570  -0.40085  -0.39850
 Alpha  occ. eigenvalues --   -0.39795  -0.39368  -0.39140  -0.38823  -0.38149
 Alpha  occ. eigenvalues --   -0.37942  -0.36829  -0.36251  -0.36229  -0.35736
 Alpha  occ. eigenvalues --   -0.35639  -0.35133  -0.35083  -0.33962  -0.33656
 Alpha  occ. eigenvalues --   -0.33110  -0.32649  -0.32164  -0.31787  -0.31192
 Alpha  occ. eigenvalues --   -0.31052  -0.30195  -0.29847  -0.29437  -0.24772
 Alpha virt. eigenvalues --   -0.10874  -0.09444  -0.08619  -0.07256  -0.07092
 Alpha virt. eigenvalues --   -0.06609  -0.06117  -0.05569  -0.05194  -0.04999
 Alpha virt. eigenvalues --   -0.04601  -0.04100  -0.03734  -0.03570  -0.02211
 Alpha virt. eigenvalues --   -0.01978  -0.01456  -0.00597  -0.00503   0.00225
 Alpha virt. eigenvalues --    0.00642   0.01072   0.01649   0.01725   0.02124
 Alpha virt. eigenvalues --    0.02741   0.03154   0.03568   0.03623   0.03811
 Alpha virt. eigenvalues --    0.04051   0.04916   0.05213   0.05537   0.05873
 Alpha virt. eigenvalues --    0.05930   0.06031   0.06251   0.06372   0.06752
 Alpha virt. eigenvalues --    0.06786   0.06953   0.07197   0.07453   0.07674
 Alpha virt. eigenvalues --    0.07947   0.07976   0.08198   0.08413   0.08666
 Alpha virt. eigenvalues --    0.09089   0.09278   0.09412   0.09661   0.09771
 Alpha virt. eigenvalues --    0.09914   0.10183   0.10274   0.10634   0.11088
 Alpha virt. eigenvalues --    0.11149   0.11385   0.11724   0.11855   0.12143
 Alpha virt. eigenvalues --    0.12518   0.12640   0.12748   0.12946   0.13363
 Alpha virt. eigenvalues --    0.13531   0.13581   0.13718   0.13891   0.14222
 Alpha virt. eigenvalues --    0.14357   0.14624   0.14732   0.15201   0.15262
 Alpha virt. eigenvalues --    0.15459   0.15736   0.16316   0.16630   0.16976
 Alpha virt. eigenvalues --    0.17235   0.17371   0.17430   0.17722   0.17996
 Alpha virt. eigenvalues --    0.18330   0.18584   0.18812   0.19034   0.19267
 Alpha virt. eigenvalues --    0.19765   0.20052   0.20420   0.20558   0.20908
 Alpha virt. eigenvalues --    0.21576   0.21855   0.22644   0.22797   0.23347
 Alpha virt. eigenvalues --    0.23977   0.25184   0.25458   0.26239   0.27200
 Alpha virt. eigenvalues --    0.27565   0.28249   0.29030   0.29244   0.29423
 Alpha virt. eigenvalues --    0.30061   0.30262   0.30966   0.31214   0.32023
 Alpha virt. eigenvalues --    0.32369   0.33432   0.34029   0.34225   0.34845
 Alpha virt. eigenvalues --    0.35419   0.35579   0.35981   0.36364   0.38110
 Alpha virt. eigenvalues --    0.39089   0.40562   0.40739   0.41078   0.41756
 Alpha virt. eigenvalues --    0.42356   0.42629   0.42968   0.43186   0.43990
 Alpha virt. eigenvalues --    0.44284   0.44383   0.44523   0.44865   0.45059
 Alpha virt. eigenvalues --    0.45251   0.45504   0.45596   0.46073   0.46330
 Alpha virt. eigenvalues --    0.46598   0.46900   0.46978   0.47403   0.48004
 Alpha virt. eigenvalues --    0.48156   0.48422   0.48564   0.48989   0.49388
 Alpha virt. eigenvalues --    0.49740   0.49836   0.50117   0.50202   0.50629
 Alpha virt. eigenvalues --    0.50833   0.51052   0.51395   0.52195   0.52830
 Alpha virt. eigenvalues --    0.53153   0.53433   0.53724   0.53982   0.54252
 Alpha virt. eigenvalues --    0.54257   0.54499   0.54714   0.55153   0.55161
 Alpha virt. eigenvalues --    0.55671   0.56075   0.56323   0.56765   0.56873
 Alpha virt. eigenvalues --    0.56876   0.57581   0.57762   0.58136   0.58541
 Alpha virt. eigenvalues --    0.58912   0.59100   0.59327   0.59393   0.60012
 Alpha virt. eigenvalues --    0.60031   0.60477   0.60773   0.61302   0.61549
 Alpha virt. eigenvalues --    0.61807   0.61881   0.62283   0.62514   0.63078
 Alpha virt. eigenvalues --    0.63260   0.63567   0.63711   0.63861   0.64219
 Alpha virt. eigenvalues --    0.64230   0.64660   0.65333   0.65580   0.65801
 Alpha virt. eigenvalues --    0.66714   0.67028   0.67226   0.67786   0.68148
 Alpha virt. eigenvalues --    0.68284   0.68517   0.68642   0.69464   0.69665
 Alpha virt. eigenvalues --    0.70006   0.70097   0.70485   0.70971   0.71273
 Alpha virt. eigenvalues --    0.71530   0.71859   0.72078   0.72458   0.72777
 Alpha virt. eigenvalues --    0.73118   0.73268   0.73605   0.74195   0.74775
 Alpha virt. eigenvalues --    0.75021   0.75216   0.75357   0.76005   0.76100
 Alpha virt. eigenvalues --    0.76432   0.76608   0.76742   0.77065   0.77143
 Alpha virt. eigenvalues --    0.77249   0.77580   0.77906   0.78260   0.78378
 Alpha virt. eigenvalues --    0.78646   0.78816   0.79080   0.79224   0.79710
 Alpha virt. eigenvalues --    0.79857   0.80181   0.80198   0.80654   0.80969
 Alpha virt. eigenvalues --    0.81215   0.81393   0.81810   0.82011   0.82137
 Alpha virt. eigenvalues --    0.82238   0.82703   0.82998   0.83039   0.83263
 Alpha virt. eigenvalues --    0.83435   0.83792   0.84148   0.84211   0.84453
 Alpha virt. eigenvalues --    0.84722   0.84882   0.85274   0.85356   0.85867
 Alpha virt. eigenvalues --    0.85911   0.86215   0.86339   0.86787   0.86948
 Alpha virt. eigenvalues --    0.87232   0.87486   0.87627   0.88135   0.88308
 Alpha virt. eigenvalues --    0.88392   0.88844   0.89288   0.89396   0.89610
 Alpha virt. eigenvalues --    0.89833   0.90115   0.90518   0.90675   0.91419
 Alpha virt. eigenvalues --    0.92156   0.92429   0.92724   0.92833   0.93182
 Alpha virt. eigenvalues --    0.93564   0.94005   0.94932   0.95023   0.95475
 Alpha virt. eigenvalues --    0.95613   0.95876   0.96356   0.96637   0.97032
 Alpha virt. eigenvalues --    0.97252   0.97445   0.98040   0.98350   0.98671
 Alpha virt. eigenvalues --    0.99289   0.99349   0.99796   1.00465   1.01032
 Alpha virt. eigenvalues --    1.01294   1.01886   1.02174   1.02334   1.02553
 Alpha virt. eigenvalues --    1.03251   1.03571   1.04171   1.04716   1.05087
 Alpha virt. eigenvalues --    1.06019   1.06871   1.07052   1.07904   1.07972
 Alpha virt. eigenvalues --    1.08561   1.08875   1.09347   1.09535   1.09969
 Alpha virt. eigenvalues --    1.10215   1.10987   1.11555   1.11765   1.12663
 Alpha virt. eigenvalues --    1.12805   1.13393   1.14294   1.14743   1.15068
 Alpha virt. eigenvalues --    1.15936   1.16335   1.17015   1.17740   1.18053
 Alpha virt. eigenvalues --    1.18374   1.18986   1.19613   1.20115   1.20691
 Alpha virt. eigenvalues --    1.21125   1.21646   1.22749   1.23964   1.24321
 Alpha virt. eigenvalues --    1.24414   1.25470   1.26000   1.26229   1.26740
 Alpha virt. eigenvalues --    1.27491   1.27773   1.28389   1.29551   1.29682
 Alpha virt. eigenvalues --    1.30416   1.30790   1.31397   1.31885   1.32525
 Alpha virt. eigenvalues --    1.33156   1.33274   1.34078   1.34102   1.34716
 Alpha virt. eigenvalues --    1.35216   1.36258   1.37168   1.37607   1.37853
 Alpha virt. eigenvalues --    1.38175   1.38325   1.39194   1.39478   1.40314
 Alpha virt. eigenvalues --    1.40641   1.41105   1.41582   1.42249   1.42793
 Alpha virt. eigenvalues --    1.43358   1.44419   1.44748   1.45826   1.46297
 Alpha virt. eigenvalues --    1.46780   1.46862   1.47468   1.47612   1.47880
 Alpha virt. eigenvalues --    1.48385   1.49129   1.49322   1.49949   1.50803
 Alpha virt. eigenvalues --    1.51400   1.51649   1.52040   1.52327   1.52901
 Alpha virt. eigenvalues --    1.53239   1.53905   1.54427   1.55034   1.55960
 Alpha virt. eigenvalues --    1.56034   1.56318   1.57023   1.57510   1.58468
 Alpha virt. eigenvalues --    1.59021   1.59547   1.60283   1.60529   1.61008
 Alpha virt. eigenvalues --    1.61272   1.61845   1.62241   1.62962   1.63066
 Alpha virt. eigenvalues --    1.64239   1.64590   1.64808   1.65228   1.65825
 Alpha virt. eigenvalues --    1.66304   1.66670   1.67272   1.68806   1.69293
 Alpha virt. eigenvalues --    1.69662   1.69787   1.69985   1.70240   1.71117
 Alpha virt. eigenvalues --    1.71342   1.71453   1.71765   1.72128   1.72372
 Alpha virt. eigenvalues --    1.72985   1.73291   1.73659   1.74112   1.74296
 Alpha virt. eigenvalues --    1.74630   1.74908   1.75280   1.75503   1.76211
 Alpha virt. eigenvalues --    1.76417   1.77042   1.77418   1.77577   1.77827
 Alpha virt. eigenvalues --    1.78071   1.78813   1.79151   1.79188   1.79622
 Alpha virt. eigenvalues --    1.79847   1.80246   1.80510   1.80539   1.81067
 Alpha virt. eigenvalues --    1.81875   1.82500   1.82830   1.82965   1.83145
 Alpha virt. eigenvalues --    1.83962   1.84253   1.84680   1.85098   1.85859
 Alpha virt. eigenvalues --    1.86040   1.86468   1.86596   1.86983   1.87134
 Alpha virt. eigenvalues --    1.87341   1.87762   1.87939   1.88320   1.88879
 Alpha virt. eigenvalues --    1.89251   1.89536   1.90073   1.90261   1.90715
 Alpha virt. eigenvalues --    1.91161   1.91311   1.91498   1.92339   1.92622
 Alpha virt. eigenvalues --    1.93076   1.93720   1.94158   1.94390   1.94815
 Alpha virt. eigenvalues --    1.95457   1.95657   1.96074   1.96307   1.96535
 Alpha virt. eigenvalues --    1.96863   1.97437   1.97996   1.98181   1.98389
 Alpha virt. eigenvalues --    1.99109   1.99418   1.99635   1.99795   1.99929
 Alpha virt. eigenvalues --    2.00350   2.00872   2.01308   2.01771   2.02353
 Alpha virt. eigenvalues --    2.02488   2.03121   2.03825   2.05418   2.05564
 Alpha virt. eigenvalues --    2.06177   2.06933   2.07123   2.07523   2.07785
 Alpha virt. eigenvalues --    2.08690   2.08949   2.09469   2.09993   2.10235
 Alpha virt. eigenvalues --    2.10772   2.10995   2.11373   2.11798   2.12426
 Alpha virt. eigenvalues --    2.12657   2.12899   2.13845   2.13969   2.14689
 Alpha virt. eigenvalues --    2.15650   2.16436   2.16714   2.18154   2.18822
 Alpha virt. eigenvalues --    2.19067   2.19576   2.20090   2.21160   2.21852
 Alpha virt. eigenvalues --    2.21962   2.22698   2.22830   2.23357   2.23840
 Alpha virt. eigenvalues --    2.23976   2.24689   2.24834   2.25076   2.25435
 Alpha virt. eigenvalues --    2.25682   2.26161   2.26509   2.27483   2.28180
 Alpha virt. eigenvalues --    2.28674   2.29380   2.29962   2.30414   2.30553
 Alpha virt. eigenvalues --    2.31136   2.31980   2.32323   2.33373   2.33693
 Alpha virt. eigenvalues --    2.34454   2.35331   2.35485   2.36469   2.36722
 Alpha virt. eigenvalues --    2.37013   2.37188   2.37784   2.38264   2.38691
 Alpha virt. eigenvalues --    2.38716   2.39079   2.39632   2.40085   2.40698
 Alpha virt. eigenvalues --    2.41383   2.42845   2.43149   2.43867   2.44401
 Alpha virt. eigenvalues --    2.44912   2.45852   2.45973   2.46924   2.47661
 Alpha virt. eigenvalues --    2.48474   2.48976   2.49665   2.50430   2.50622
 Alpha virt. eigenvalues --    2.51537   2.52263   2.52452   2.53232   2.54948
 Alpha virt. eigenvalues --    2.55362   2.55700   2.56277   2.56653   2.56979
 Alpha virt. eigenvalues --    2.57524   2.58514   2.58796   2.59070   2.60007
 Alpha virt. eigenvalues --    2.60234   2.61326   2.62123   2.62571   2.62849
 Alpha virt. eigenvalues --    2.63063   2.63945   2.65305   2.65923   2.66183
 Alpha virt. eigenvalues --    2.66843   2.68022   2.68532   2.69072   2.70191
 Alpha virt. eigenvalues --    2.70553   2.71623   2.72534   2.73242   2.73525
 Alpha virt. eigenvalues --    2.73993   2.74691   2.75458   2.75766   2.77659
 Alpha virt. eigenvalues --    2.77952   2.78813   2.79399   2.82172   2.83966
 Alpha virt. eigenvalues --    2.85026   2.85760   2.86119   2.86614   2.89482
 Alpha virt. eigenvalues --    2.90369   2.91768   2.92221   2.93491   2.94053
 Alpha virt. eigenvalues --    2.95007   2.95053   2.96891   2.98546   3.00735
 Alpha virt. eigenvalues --    3.01096   3.02120   3.03114   3.03914   3.06380
 Alpha virt. eigenvalues --    3.08019   3.08482   3.09418   3.10000   3.11420
 Alpha virt. eigenvalues --    3.11887   3.33826   3.65426   3.71616   3.76933
 Alpha virt. eigenvalues --    3.82123   3.83015   3.89589   3.91460   3.93014
 Alpha virt. eigenvalues --    3.95673   3.97168   3.99015   4.02390   4.03978
 Alpha virt. eigenvalues --    4.04282   4.04674   4.05888   4.08384   4.09558
 Alpha virt. eigenvalues --    4.10026   4.10208   4.11668   4.13839   4.14681
 Alpha virt. eigenvalues --    4.15467   4.16585   4.18049   4.20581   4.20814
 Alpha virt. eigenvalues --    4.21781   4.23491   4.25785   4.26054   4.26740
 Alpha virt. eigenvalues --    4.27266   4.28750   4.30378   4.31120   4.32645
 Alpha virt. eigenvalues --    4.33580   4.36192   4.37791   4.38537   4.40109
 Alpha virt. eigenvalues --    4.41393   4.43204   4.43889   4.44632   4.48113
 Alpha virt. eigenvalues --    4.50706   4.53683   4.55129   4.55610   4.60772
 Alpha virt. eigenvalues --    4.62281   4.66638   4.68729   4.69937   4.81235
          Condensed to atoms (all electrons):
 Mulliken charges:
               1
     1  N   -0.747276
     2  H    0.413150
     3  H    0.422003
     4  H    0.425320
     5  C   -0.141294
     6  H    0.200283
     7  C    0.649101
     8  C    0.127661
     9  H    0.188667
    10  O   -0.540116
    11  C   -0.509840
    12  H    0.206200
    13  H    0.164236
    14  H    0.199140
    15  O   -0.628074
    16  H    0.420364
    17  N   -0.599254
    18  H    0.370746
    19  C   -0.093745
    20  H    0.210562
    21  C    0.627844
    22  C   -0.065324
    23  H    0.132457
    24  O   -0.582853
    25  C   -0.267559
    26  H    0.160156
    27  H    0.141318
    28  C   -0.468210
    29  H    0.176074
    30  H    0.133144
    31  H    0.157737
    32  C   -0.464509
    33  H    0.158767
    34  H    0.131725
    35  H    0.173455
    36  N   -0.648396
    37  H    0.421189
    38  C   -0.036706
    39  H    0.203908
    40  C    0.603208
    41  C   -0.479797
    42  H    0.170560
    43  H    0.114434
    44  H    0.177698
    45  O   -0.514394
    46  N   -0.598763
    47  H    0.336360
    48  C   -0.062131
    49  H    0.182571
    50  C    0.641573
    51  C   -0.252638
    52  H    0.139553
    53  H    0.199697
    54  O   -0.558914
    55  C   -0.408535
    56  H    0.160262
    57  H    0.161431
    58  C    0.593480
    59  N   -0.787236
    60  H    0.397173
    61  H    0.338020
    62  O   -0.506119
    63  N   -0.631547
    64  H    0.344575
    65  C   -0.034128
    66  H    0.177823
    67  C    0.613484
    68  C   -0.378243
    69  H    0.185711
    70  H    0.152003
    71  O   -0.535948
    72  C    0.156229
    73  C   -0.189976
    74  H    0.131831
    75  C   -0.208389
    76  H    0.118114
    77  C   -0.280947
    78  H    0.136307
    79  C   -0.217574
    80  H    0.166318
    81  O   -0.735832
    82  C    0.426643
    83  N   -0.603409
    84  H    0.355181
    85  C   -0.062373
    86  H    0.190611
    87  C    0.628420
    88  C   -0.468180
    89  H    0.173769
    90  H    0.171149
    91  H    0.167877
    92  O   -0.543493
    93  N   -0.586122
    94  H    0.370313
    95  C   -0.059697
    96  H    0.208171
    97  C    0.585597
    98  C   -0.281756
    99  H    0.171239
   100  H    0.153373
   101  O   -0.448825
   102  C   -0.281066
   103  H    0.184276
   104  H    0.159185
   105  C   -0.169763
   106  H    0.177127
   107  H    0.183397
   108  N   -0.595184
   109  H    0.345412
   110  N   -0.761561
   111  H    0.384527
   112  H    0.371872
   113  N   -0.820123
   114  H    0.436099
   115  H    0.343225
   116  C    0.792998
   117  O   -0.563309
   118  H    0.425043
 Sum of Mulliken charges =   1.00000
 Mulliken charges with hydrogens summed into heavy atoms:
               1
     1  N    0.513197
     5  C    0.058990
     7  C    0.649101
     8  C    0.316328
    10  O   -0.540116
    11  C    0.059736
    15  O   -0.207710
    17  N   -0.228508
    19  C    0.116817
    21  C    0.627844
    22  C    0.067133
    24  O   -0.582853
    25  C    0.033916
    28  C   -0.001256
    32  C   -0.000562
    36  N   -0.227207
    38  C    0.167202
    40  C    0.603208
    41  C   -0.017104
    45  O   -0.514394
    46  N   -0.262403
    48  C    0.120441
    50  C    0.641573
    51  C    0.086612
    54  O   -0.558914
    55  C   -0.086842
    58  C    0.593480
    59  N   -0.052042
    62  O   -0.506119
    63  N   -0.286972
    65  C    0.143695
    67  C    0.613484
    68  C   -0.040530
    71  O   -0.535948
    72  C    0.156229
    73  C   -0.058145
    75  C   -0.090275
    77  C   -0.144640
    79  C   -0.051256
    81  O   -0.735832
    82  C    0.426643
    83  N   -0.248228
    85  C    0.128238
    87  C    0.628420
    88  C    0.044615
    92  O   -0.543493
    93  N   -0.215809
    95  C    0.148475
    97  C    0.585597
    98  C    0.042856
   101  O   -0.448825
   102  C    0.062395
   105  C    0.190762
   108  N   -0.249773
   110  N   -0.005162
   113  N   -0.040799
   116  C    0.792998
   117  O   -0.138266
 Electronic spatial extent (au):  <R**2>=          57648.5581
 Charge=              1.0000 electrons
 Dipole moment (field-independent basis, Debye):
    X=              2.8879    Y=             -9.0043    Z=            -26.9773  Tot=             28.5866
 Quadrupole moment (field-independent basis, Debye-Ang):
   XX=           -202.7759   YY=           -312.9067   ZZ=           -106.4848
   XY=             43.3083   XZ=             97.4276   YZ=            119.3468
 Traceless Quadrupole moment (field-independent basis, Debye-Ang):
   XX=              4.6133   YY=           -105.5176   ZZ=            100.9044
   XY=             43.3083   XZ=             97.4276   YZ=            119.3468
 Octapole moment (field-independent basis, Debye-Ang**2):
  XXX=           -903.5592  YYY=           -396.3841  ZZZ=          -1247.4405  XYY=           -666.8376
  XXY=           -107.1495  XXZ=           -191.2848  XZZ=          -1287.2096  YZZ=           -728.8611
  YYZ=           -231.6139  XYZ=           -301.9948
 Hexadecapole moment (field-independent basis, Debye-Ang**3):
 XXXX=         -23367.1098 YYYY=         -11774.1391 ZZZZ=         -11709.2810 XXXY=          -3067.0190
 XXXZ=          -6254.7762 YYYX=          -4663.4641 YYYZ=          -2730.3698 ZZZX=           -425.4572
 ZZZY=           2476.9695 XXYY=          -7128.8303 XXZZ=          -5940.3278 YYZZ=          -4104.3576
 XXYZ=           -212.9193 YYXZ=          -2041.4328 ZZXY=           1353.5710
 N-N= 9.310419460304D+03 E-N=-2.520082211102D+04  KE= 2.811663149556D+03
 Unable to Open any file for archive entry.
 1\1\GINC-AMR-061\SP\RB3LYP\6-31G(d)\C36H60N11O11(1+)\KENGMITH\27-Jun-2
 022\0\\# B3LYP/6-31G* empiricaldispersion=gd3 guess=read geom=check no
 symm integral(ultrafinegrid)\\Candidate Structure: Conf:747 Charge cal
 c in gas phase\\1,1\N,0,-3.5767891768,-2.3877340806,-8.6801166202\H,0,
 -4.5803701799,-2.2815697682,-8.8477496825\H,0,-3.1473011681,-2.9417106
 94,-9.4393516255\H,0,-3.1563011244,-1.4278042657,-8.562362489\C,0,-3.2
 568525542,-3.0545342346,-7.3710187748\H,0,-4.0960542335,-3.6912190409,
 -7.0797868096\C,0,-3.0140376345,-1.8702056093,-6.4028195511\C,0,-1.964
 1504016,-3.8968552553,-7.5908362965\H,0,-1.1236197877,-3.1960392057,-7
 .6577266777\O,0,-2.7681835215,-0.7674030112,-6.9143018922\C,0,-1.72346
 30729,-4.9062082546,-6.4756835158\H,0,-1.5919035907,-4.4231656168,-5.5
 029456654\H,0,-2.5656890697,-5.6060183734,-6.3942597684\H,0,-0.8181233
 498,-5.4778127779,-6.6980972524\O,0,-2.0394444364,-4.5058320981,-8.882
 6946707\H,0,-2.4253028306,-5.3936139593,-8.7968401316\N,0,-3.037097522
 4,-2.1689236156,-5.1157971421\H,0,-3.1953418074,-3.1198807202,-4.77834
 80641\C,0,-2.6803286815,-1.2663308079,-4.0169209409\H,0,-1.9313562241,
 -0.5527977376,-4.3679303497\C,0,-2.0761766833,-2.224566573,-2.96503896
 95\C,0,-3.9552202823,-0.5113845389,-3.5227457748\H,0,-4.4870791006,-0.
 2386059726,-4.4459203553\O,0,-2.3789295281,-3.4308307698,-3.0129206169
 \C,0,-3.6314314361,0.7944210364,-2.7789082845\H,0,-2.9613381244,0.5782
 86276,-1.9425372468\H,0,-4.5661053912,1.1540970418,-2.3291755149\C,0,-
 4.8639139564,-1.4238947894,-2.6865182765\H,0,-4.4086681989,-1.64432431
 22,-1.7143209604\H,0,-5.0644298473,-2.3801119744,-3.182306446\H,0,-5.8
 234216079,-0.9305645481,-2.5011319021\C,0,-3.0411921854,1.8996579925,-
 3.6597229524\H,0,-2.8755925882,2.806199902,-3.0689376692\H,0,-3.719947
 6525,2.1493521519,-4.4847556661\H,0,-2.0720302199,1.6131631262,-4.0768
 752554\N,0,-1.2701555076,-1.6801667071,-2.0459211605\H,0,-0.8740034837
 ,-0.7227618902,-2.2316546116\C,0,-0.6846555658,-2.5348661266,-1.010173
 6606\H,0,-1.4555313294,-3.2595059242,-0.7338389058\C,0,-0.4637688,-1.7
 141413235,0.2802772508\C,0,0.5294699461,-3.309476159,-1.5394354841\H,0
 ,0.9603223209,-3.9484925173,-0.7617066675\H,0,1.3077084831,-2.63224704
 64,-1.9104108736\H,0,0.2052963785,-3.9426809879,-2.3694647116\O,0,-1.4
 16057733,-1.3799268273,0.9738040123\N,0,0.8312611562,-1.4332780758,0.6
 017222019\H,0,1.5666753743,-1.591065068,-0.0723782878\C,0,1.2345243234
 ,-0.7638281731,1.8290625428\H,0,0.3189353921,-0.5408923587,2.382966031
 4\C,0,1.9941681641,0.5109018717,1.461490507\C,0,2.1639471491,-1.682590
 2954,2.6523936253\H,0,2.9253560261,-2.0880329179,1.97414884\H,0,1.5835
 506612,-2.5266117775,3.0342128887\O,0,2.9051623383,0.4610000526,0.6339
 27478\C,0,2.8670568142,-0.981483001,3.818267372\H,0,3.6041327354,-0.25
 97081795,3.4499234388\H,0,2.1336031844,-0.4329707369,4.4278043886\C,0,
 3.5422068888,-1.9963388782,4.749674779\N,0,4.7290574079,-1.5836213247,
 5.2728581951\H,0,5.2454996255,-0.7988513347,4.8818790055\H,0,5.2206698
 056,-2.2415852729,5.8631805615\O,0,3.0118761791,-3.0654997007,5.020672
 901\N,0,1.6789624561,1.6445019471,2.1482645996\H,0,0.8097394712,1.6369
 44492,2.6658631268\C,0,2.2158672637,2.9483704661,1.7596183664\H,0,2.72
 11603524,2.7843242113,0.8056476794\C,0,3.3605815912,3.4251483484,2.662
 4968842\C,0,1.0800070312,3.9754428037,1.4804473189\H,0,1.5546106902,4.
 9452422,1.3006558645\H,0,0.4447010126,4.0755934835,2.3709991755\O,0,4.
 0487855502,4.3853278008,2.3265982593\C,0,0.3244311279,3.4603715304,0.2
 759031155\C,0,0.7635653448,3.7482084208,-1.02248814\H,0,1.3983690958,4
 .6177596858,-1.1919857563\C,0,-0.5735204202,2.3888648883,0.4209938632\
 H,0,-1.0215943292,2.1893319113,1.3938443127\C,0,0.4722374973,2.8934356
 658,-2.0918005055\H,0,0.8031170665,3.1264647952,-3.1026683352\C,0,-0.8
 35804125,1.5067361881,-0.6156564893\H,0,-1.4624704094,0.643828047,-0.4
 263030333\O,0,-0.1594291035,0.6885678761,-2.7707221086\C,0,-0.19512540
 2,1.6552910845,-1.8735258754\N,0,3.603498278,2.6661298237,3.7664451327
 \H,0,3.072353309,1.8087945855,3.852968775\C,0,4.8966867313,2.709977555
 2,4.4495006348\H,0,5.2226248973,3.7532020388,4.4357719202\C,0,5.875514
 9298,1.8495174138,3.6197696711\C,0,4.7755064817,2.2074744824,5.8835293
 656\H,0,5.746555182,2.2558443138,6.3849901141\H,0,4.0646927487,2.82909
 30655,6.4350747536\H,0,4.4391460053,1.166711201,5.9133341713\O,0,6.041
 1000068,0.6453165015,3.8350039367\N,0,6.4759298962,2.499578929,2.59127
 26774\H,0,6.3225560181,3.4983099429,2.496527103\C,0,7.5427279868,1.904
 7247669,1.8070893686\H,0,7.7605363514,0.9278736126,2.2472591077\C,0,8.
 7816218532,2.7921554024,1.928038674\C,0,7.196271542,1.7219164232,0.311
 8923186\H,0,8.0904503392,1.3257340029,-0.1845461474\H,0,7.0027382854,2
 .7107275858,-0.1276437039\O,0,8.7751140896,3.9334224572,2.3270091445\C
 ,0,5.9955079023,0.8026374008,0.0580951413\H,0,5.0847742953,1.237729270
 3,0.4774230486\H,0,6.1307907251,-0.1555442954,0.5753155844\C,0,5.83675
 52818,0.5575097074,-1.4547294058\H,0,6.6794756693,-0.0343381018,-1.826
 8610625\H,0,5.8626877925,1.5052418791,-2.0034021878\N,0,4.6143950372,-
 0.1433827061,-1.8673404776\H,0,4.5860491414,-1.1441817947,-1.730869472
 5\N,0,3.3307324897,1.7877107625,-1.9150232438\H,0,2.3978917841,2.19841
 07701,-2.0181252969\H,0,3.8369224407,2.1616898519,-1.1238190976\N,0,2.
 4063365847,-0.2273291313,-2.6098703963\H,0,1.4311036942,0.1786549128,-
 2.7321203213\H,0,2.6003931665,-1.1017157735,-3.0774758741\C,0,3.434913
 6711,0.4640814949,-2.109310899\O,0,9.8837525105,2.1502787603,1.4870486
 6\H,0,10.6297550054,2.7762030103,1.5603155254\\Version=ES64L-G16RevC.0
 1\HF=-2837.8178384\RMSD=7.500e-09\Dipole=-1.6988933,-3.7573975,-9.4233
 581\Quadrupole=3.4298476,-78.4497635,75.0199158,32.198672,72.4350192,8
 8.7314192\PG=C01 [X(C36H60N11O11)]\\@
 The archive entry for this job was punched.


 JUST WHEN YOU THINK YOU'VE GOT THE WORLD ON A STRING,
 YOU FIND OUT IT'S YOUR LEASH.
 Job cpu time:       0 days  0 hours  6 minutes 21.1 seconds.
 Elapsed time:       0 days  0 hours  1 minutes 36.0 seconds.
 File lengths (MBytes):  RWF=    624 Int=      0 D2E=      0 Chk=     96 Scr=     16
 Normal termination of Gaussian 16 at Mon Jun 27 03:09:10 2022.
