 Entering Gaussian System, Link 0=/opt/software/Gaussian/g16-AVX2-C.01/g16/g16
 Input=charge-conf-684.com
 Output=charge-conf-684.log
 Initial command:
 /opt/software/Gaussian/g16-AVX2-C.01/g16/l1.exe "/mnt/gs18/scratch/users/kengmith/Gau-21834.inp" -scrdir="/mnt/gs18/scratch/users/kengmith/"
 Entering Link 1 = /opt/software/Gaussian/g16-AVX2-C.01/g16/l1.exe PID=     21844.
  
 Copyright (c) 1988-2019, Gaussian, Inc.  All Rights Reserved.
  
 This is part of the Gaussian(R) 16 program.  It is based on
 the Gaussian(R) 09 system (copyright 2009, Gaussian, Inc.),
 the Gaussian(R) 03 system (copyright 2003, Gaussian, Inc.),
 the Gaussian(R) 98 system (copyright 1998, Gaussian, Inc.),
 the Gaussian(R) 94 system (copyright 1995, Gaussian, Inc.),
 the Gaussian 92(TM) system (copyright 1992, Gaussian, Inc.),
 the Gaussian 90(TM) system (copyright 1990, Gaussian, Inc.),
 the Gaussian 88(TM) system (copyright 1988, Gaussian, Inc.),
 the Gaussian 86(TM) system (copyright 1986, Carnegie Mellon
 University), and the Gaussian 82(TM) system (copyright 1983,
 Carnegie Mellon University). Gaussian is a federally registered
 trademark of Gaussian, Inc.
  
 This software contains proprietary and confidential information,
 including trade secrets, belonging to Gaussian, Inc.
  
 This software is provided under written license and may be
 used, copied, transmitted, or stored only in accord with that
 written license.
  
 The following legend is applicable only to US Government
 contracts under FAR:
  
                    RESTRICTED RIGHTS LEGEND
  
 Use, reproduction and disclosure by the US Government is
 subject to restrictions as set forth in subparagraphs (a)
 and (c) of the Commercial Computer Software - Restricted
 Rights clause in FAR 52.227-19.
  
 Gaussian, Inc.
 340 Quinnipiac St., Bldg. 40, Wallingford CT 06492
  
  
 ---------------------------------------------------------------
 Warning -- This program may not be used in any manner that
 competes with the business of Gaussian, Inc. or will provide
 assistance to any competitor of Gaussian, Inc.  The licensee
 of this program is prohibited from giving any competitor of
 Gaussian, Inc. access to this program.  By using this program,
 the user acknowledges that Gaussian, Inc. is engaged in the
 business of creating and licensing software in the field of
 computational chemistry and represents and warrants to the
 licensee that it is not a competitor of Gaussian, Inc. and that
 it will not use this program in any manner prohibited above.
 ---------------------------------------------------------------
  

 Cite this work as:
 Gaussian 16, Revision C.01,
 M. J. Frisch, G. W. Trucks, H. B. Schlegel, G. E. Scuseria, 
 M. A. Robb, J. R. Cheeseman, G. Scalmani, V. Barone, 
 G. A. Petersson, H. Nakatsuji, X. Li, M. Caricato, A. V. Marenich, 
 J. Bloino, B. G. Janesko, R. Gomperts, B. Mennucci, H. P. Hratchian, 
 J. V. Ortiz, A. F. Izmaylov, J. L. Sonnenberg, D. Williams-Young, 
 F. Ding, F. Lipparini, F. Egidi, J. Goings, B. Peng, A. Petrone, 
 T. Henderson, D. Ranasinghe, V. G. Zakrzewski, J. Gao, N. Rega, 
 G. Zheng, W. Liang, M. Hada, M. Ehara, K. Toyota, R. Fukuda, 
 J. Hasegawa, M. Ishida, T. Nakajima, Y. Honda, O. Kitao, H. Nakai, 
 T. Vreven, K. Throssell, J. A. Montgomery, Jr., J. E. Peralta, 
 F. Ogliaro, M. J. Bearpark, J. J. Heyd, E. N. Brothers, K. N. Kudin, 
 V. N. Staroverov, T. A. Keith, R. Kobayashi, J. Normand, 
 K. Raghavachari, A. P. Rendell, J. C. Burant, S. S. Iyengar, 
 J. Tomasi, M. Cossi, J. M. Millam, M. Klene, C. Adamo, R. Cammi, 
 J. W. Ochterski, R. L. Martin, K. Morokuma, O. Farkas, 
 J. B. Foresman, and D. J. Fox, Gaussian, Inc., Wallingford CT, 2019.
 
 ******************************************
 Gaussian 16:  ES64L-G16RevC.01  3-Jul-2019
                16-May-2022 
 ******************************************
 %mem=8gb
 %nproc=4
 Will use up to    4 processors via shared memory.
 %chk=conf-684.chk
 ----------------------------------------------------------------------
 # B3LYP/6-31G* empiricaldispersion=gd3 guess=read geom=check nosymm in
 tegral(ultrafinegrid)
 ----------------------------------------------------------------------
 1/29=2,38=1,172=1/1;
 2/12=2,15=1,40=1/2;
 3/5=1,6=6,7=1,11=2,14=-4,25=1,30=1,74=-5,75=-5,116=-2,124=31/1,2,3;
 4/5=1/1;
 5/5=2,38=6/2;
 6/7=2,8=2,9=2,10=2,28=1/1;
 99/5=1,9=1/99;
 ------------------------------------------------------
 Candidate Structure: Conf:684 Charge calc in gas phase
 ------------------------------------------------------
 Structure from the checkpoint file:  "conf-684.chk"
 Charge =  1 Multiplicity = 1
 Redundant internal coordinates found in file.  (old form).
 N,0,-1.348739766,-2.508290448,-2.9483305854
 H,0,-1.1691735713,-2.849822877,-3.9021350798
 H,0,-0.5511741607,-1.8703291066,-2.7048710572
 H,0,-1.4131791004,-3.2675542285,-2.2654466496
 C,0,-2.6144733956,-1.6853596815,-2.9807199408
 H,0,-3.4376861521,-2.3926410058,-3.1275739618
 C,0,-2.4433246297,-0.8184990895,-4.2461273207
 C,0,-2.7797961937,-0.9291494507,-1.6465314029
 H,0,-2.0813835555,-0.0876434572,-1.6337336031
 H,0,-3.8014366152,-0.5319213151,-1.6117302875
 O,0,-1.6941681276,-1.2286454321,-5.1371386521
 C,0,-2.5230409769,-1.841292716,-0.4645427364
 C,0,-3.4563007956,-2.8222570133,-0.0991073684
 H,0,-4.4159325047,-2.8743950615,-0.6099994445
 C,0,-1.2973202667,-1.7740424992,0.2120825656
 H,0,-0.5804387123,-1.0028896248,-0.0536979054
 C,0,-3.1704139992,-3.7214381726,0.9291214608
 H,0,-3.9050160175,-4.4694039974,1.2126406111
 C,0,-1.0106559973,-2.6800347415,1.2352486258
 H,0,-0.0550064991,-2.6206976325,1.7449272758
 C,0,-1.9432077839,-3.6544675339,1.5944478633
 H,0,-1.7201564034,-4.3565756387,2.392571046
 N,0,-3.091999398,0.3585780355,-4.2896552005
 H,0,-3.5860969475,0.6747510769,-3.464183335
 C,0,-2.7386957773,1.4017507814,-5.2683171945
 H,0,-2.4218151692,0.9019873326,-6.1863315889
 C,0,-1.5680549833,2.2301117238,-4.6663407176
 C,0,-3.9495829464,2.3003831935,-5.5620211702
 H,0,-4.3268031099,2.7203519527,-4.6151727326
 H,0,-4.7432410939,1.6911358921,-6.0050147573
 O,0,-1.7270056591,3.4039102872,-4.3483544851
 O,0,-3.613712837,3.3020242823,-6.4891837046
 H,0,-3.0475368918,3.9332641293,-6.0120646929
 N,0,-0.4345298232,1.5031435111,-4.4718076566
 H,0,-0.450085386,0.5544656478,-4.8287621198
 C,0,0.6956959758,1.8096163466,-3.6048747021
 H,0,1.5659946991,2.10797774,-4.2039821885
 C,0,1.0492406827,0.5373432782,-2.8215249313
 C,0,0.4397814754,2.9666082589,-2.5773837206
 H,0,-0.4630699082,2.737594068,-1.9977773277
 H,0,0.2622674608,3.8857215698,-3.1326408022
 O,0,0.2236838777,-0.3804657363,-2.6604073482
 O,0,1.5686443025,3.1486316973,-1.7486422808
 H,0,1.4418213444,2.5729602549,-0.9643292116
 N,0,2.28947826,0.5096171094,-2.3036152377
 H,0,2.7671327184,1.4080580445,-2.3196831834
 C,0,2.6313433462,-0.3703271267,-1.193434911
 H,0,2.3453678511,-1.3927669309,-1.4532235495
 C,0,1.82201725,0.0666968165,0.0618148319
 C,0,4.15517037,-0.3148137078,-0.9526552064
 H,0,4.6621858785,-0.3581611811,-1.9231860037
 H,0,4.4331106896,0.6426446623,-0.4963999897
 O,0,1.1125664687,1.0802738169,0.0789460843
 C,0,4.7654278025,-1.4298053753,-0.0763864835
 O,0,5.9813607048,-1.3181701657,0.1738522368
 O,0,3.9949690555,-2.3677185928,0.3343048808
 N,0,1.9915526915,-0.7454199628,1.1178063553
 H,0,2.6686609145,-1.505945909,0.9541762387
 C,0,1.6948756977,-0.3743152243,2.496049932
 H,0,0.6436274289,-0.5611314466,2.738980606
 C,0,1.9277407369,1.1122150266,2.7810904911
 C,0,2.6322630902,-1.1860531437,3.4196670064
 H,0,2.4894205995,-0.8432775979,4.4503769593
 H,0,3.6601627776,-0.9314090761,3.1364091035
 O,0,1.2133976574,1.7805147249,3.4861782589
 C,0,2.4325419423,-2.7127583609,3.3549229246
 H,0,2.1673959476,-3.0392563577,2.3423336747
 H,0,1.6009749538,-3.0111169846,4.0033323886
 C,0,3.6884226809,-3.4867986648,3.784284036
 H,0,4.0358265486,-3.1226498871,4.7594189569
 H,0,3.4437911491,-4.552883139,3.89123507
 N,0,4.7522021047,-3.3054705028,2.7955885829
 H,0,4.4839903814,-3.0361415836,1.8206450826
 N,0,6.4950870168,-3.8764128677,4.2330484659
 H,0,7.485147673,-3.9081403898,4.4275195107
 H,0,5.9212175478,-4.5294966076,4.7454558337
 N,0,6.9267211346,-2.9403558233,2.1375905299
 H,0,6.5985559128,-2.3537911339,1.3256910776
 H,0,7.9125226608,-3.1331776577,2.2362152766
 C,0,6.0591466293,-3.3827260483,3.044726966
 O,0,3.0906860123,1.5521000452,2.2430236945
 H,0,3.1779405717,2.490836233,2.4950058245
 Recover connectivity data from disk.
                           ----------------------------
                           !    Current Parameters    !
                           ! (Angstroms and Degrees)  !
 --------------------------                            --------------------------
 ! Name  Definition              Value                                          !
 --------------------------------------------------------------------------------
 ! R1    R(1,2)                  1.0289                                         !
 ! R2    R(1,3)                  1.0499                                         !
 ! R3    R(1,4)                  1.0232                                         !
 ! R4    R(1,5)                  1.5101                                         !
 ! R5    R(5,6)                  1.0952                                         !
 ! R6    R(5,7)                  1.5434                                         !
 ! R7    R(5,8)                  1.5425                                         !
 ! R8    R(7,11)                 1.2342                                         !
 ! R9    R(7,23)                 1.3447                                         !
 ! R10   R(8,9)                  1.0937                                         !
 ! R11   R(8,10)                 1.0967                                         !
 ! R12   R(8,12)                 1.5149                                         !
 ! R13   R(12,13)                1.4024                                         !
 ! R14   R(12,15)                1.4017                                         !
 ! R15   R(13,14)                1.0884                                         !
 ! R16   R(13,17)                1.3955                                         !
 ! R17   R(15,16)                1.0859                                         !
 ! R18   R(15,19)                1.3964                                         !
 ! R19   R(17,18)                1.086                                          !
 ! R20   R(17,21)                1.3976                                         !
 ! R21   R(19,20)                1.0847                                         !
 ! R22   R(19,21)                1.3958                                         !
 ! R23   R(21,22)                1.0861                                         !
 ! R24   R(23,24)                1.0127                                         !
 ! R25   R(23,25)                1.4734                                         !
 ! R26   R(25,26)                1.0922                                         !
 ! R27   R(25,27)                1.5553                                         !
 ! R28   R(25,28)                1.5362                                         !
 ! R29   R(27,31)                1.2265                                         !
 ! R30   R(27,34)                1.3606                                         !
 ! R31   R(28,29)                1.1024                                         !
 ! R32   R(28,30)                1.0942                                         !
 ! R33   R(28,32)                1.4056                                         !
 ! R34   R(32,33)                0.973                                          !
 ! R35   R(34,35)                1.0137                                         !
 ! R36   R(34,36)                1.457                                          !
 ! R37   R(36,37)                1.0979                                         !
 ! R38   R(36,38)                1.5354                                         !
 ! R39   R(36,39)                1.5684                                         !
 ! R40   R(38,42)                1.2449                                         !
 ! R41   R(38,45)                1.3443                                         !
 ! R42   R(39,40)                1.0971                                         !
 ! R43   R(39,41)                1.0884                                         !
 ! R44   R(39,43)                1.4122                                         !
 ! R45   R(43,44)                0.9811                                         !
 ! R46   R(45,46)                1.0176                                         !
 ! R47   R(45,47)                1.4573                                         !
 ! R48   R(47,48)                1.093                                          !
 ! R49   R(47,49)                1.5562                                         !
 ! R50   R(47,50)                1.5437                                         !
 ! R51   R(49,53)                1.2373                                         !
 ! R52   R(49,57)                1.3429                                         !
 ! R53   R(50,51)                1.0958                                         !
 ! R54   R(50,52)                1.0964                                         !
 ! R55   R(50,54)                1.5438                                         !
 ! R56   R(54,55)                1.2464                                         !
 ! R57   R(54,56)                1.2814                                         !
 ! R58   R(57,58)                1.0313                                         !
 ! R59   R(57,59)                1.4578                                         !
 ! R60   R(59,60)                1.095                                          !
 ! R61   R(59,61)                1.5314                                         !
 ! R62   R(59,62)                1.5462                                         !
 ! R63   R(61,65)                1.2058                                         !
 ! R64   R(61,81)                1.3548                                         !
 ! R65   R(62,63)                1.0956                                         !
 ! R66   R(62,64)                1.0962                                         !
 ! R67   R(62,66)                1.5411                                         !
 ! R68   R(66,67)                1.0965                                         !
 ! R69   R(66,68)                1.0959                                         !
 ! R70   R(66,69)                1.5365                                         !
 ! R71   R(69,70)                1.0974                                         !
 ! R72   R(69,71)                1.099                                          !
 ! R73   R(69,72)                1.4636                                         !
 ! R74   R(72,73)                1.0464                                         !
 ! R75   R(72,80)                1.3327                                         !
 ! R76   R(74,75)                1.0095                                         !
 ! R77   R(74,76)                1.0092                                         !
 ! R78   R(74,80)                1.3586                                         !
 ! R79   R(77,78)                1.054                                          !
 ! R80   R(77,79)                1.0093                                         !
 ! R81   R(77,80)                1.3309                                         !
 ! R82   R(81,82)                0.9759                                         !
 ! A1    A(2,1,3)              106.5036                                         !
 ! A2    A(2,1,4)              112.542                                          !
 ! A3    A(2,1,5)              107.8962                                         !
 ! A4    A(3,1,4)              110.1183                                         !
 ! A5    A(3,1,5)              108.093                                          !
 ! A6    A(4,1,5)              111.4635                                         !
 ! A7    A(1,5,6)              106.3179                                         !
 ! A8    A(1,5,7)              103.3396                                         !
 ! A9    A(1,5,8)              109.7827                                         !
 ! A10   A(6,5,7)              109.6416                                         !
 ! A11   A(6,5,8)              110.6111                                         !
 ! A12   A(7,5,8)              116.4686                                         !
 ! A13   A(5,7,11)             118.2003                                         !
 ! A14   A(5,7,23)             117.691                                          !
 ! A15   A(11,7,23)            124.078                                          !
 ! A16   A(5,8,9)              108.5965                                         !
 ! A17   A(5,8,10)             107.75                                           !
 ! A18   A(5,8,12)             111.1934                                         !
 ! A19   A(9,8,10)             108.411                                          !
 ! A20   A(9,8,12)             110.238                                          !
 ! A21   A(10,8,12)            110.5612                                         !
 ! A22   A(8,12,13)            120.7755                                         !
 ! A23   A(8,12,15)            119.7323                                         !
 ! A24   A(13,12,15)           119.3204                                         !
 ! A25   A(12,13,14)           119.8626                                         !
 ! A26   A(12,13,17)           120.4215                                         !
 ! A27   A(14,13,17)           119.7098                                         !
 ! A28   A(12,15,16)           119.5515                                         !
 ! A29   A(12,15,19)           120.1386                                         !
 ! A30   A(16,15,19)           120.302                                          !
 ! A31   A(13,17,18)           119.8371                                         !
 ! A32   A(13,17,21)           119.985                                          !
 ! A33   A(18,17,21)           120.1774                                         !
 ! A34   A(15,19,20)           119.3191                                         !
 ! A35   A(15,19,21)           120.2891                                         !
 ! A36   A(20,19,21)           120.3915                                         !
 ! A37   A(17,21,19)           119.8429                                         !
 ! A38   A(17,21,22)           119.9453                                         !
 ! A39   A(19,21,22)           120.2109                                         !
 ! A40   A(7,23,24)            118.8346                                         !
 ! A41   A(7,23,25)            121.7082                                         !
 ! A42   A(24,23,25)           115.9375                                         !
 ! A43   A(23,25,26)           107.6919                                         !
 ! A44   A(23,25,27)           107.4871                                         !
 ! A45   A(23,25,28)           110.6183                                         !
 ! A46   A(26,25,27)           110.527                                          !
 ! A47   A(26,25,28)           109.612                                          !
 ! A48   A(27,25,28)           110.8375                                         !
 ! A49   A(25,27,31)           120.8333                                         !
 ! A50   A(25,27,34)           113.4427                                         !
 ! A51   A(31,27,34)           125.6102                                         !
 ! A52   A(25,28,29)           109.1693                                         !
 ! A53   A(25,28,30)           108.8693                                         !
 ! A54   A(25,28,32)           110.7692                                         !
 ! A55   A(29,28,30)           108.1592                                         !
 ! A56   A(29,28,32)           112.1387                                         !
 ! A57   A(30,28,32)           107.6402                                         !
 ! A58   A(28,32,33)           106.1355                                         !
 ! A59   A(27,34,35)           115.9055                                         !
 ! A60   A(27,34,36)           128.2387                                         !
 ! A61   A(35,34,36)           114.7248                                         !
 ! A62   A(34,36,37)           110.3272                                         !
 ! A63   A(34,36,38)           107.9326                                         !
 ! A64   A(34,36,39)           114.7334                                         !
 ! A65   A(37,36,38)           108.7278                                         !
 ! A66   A(37,36,39)           106.6404                                         !
 ! A67   A(38,36,39)           108.3375                                         !
 ! A68   A(36,38,42)           121.6171                                         !
 ! A69   A(36,38,45)           115.2199                                         !
 ! A70   A(42,38,45)           123.1426                                         !
 ! A71   A(36,39,40)           109.051                                          !
 ! A72   A(36,39,41)           108.3821                                         !
 ! A73   A(36,39,43)           110.4329                                         !
 ! A74   A(40,39,41)           108.1554                                         !
 ! A75   A(40,39,43)           112.0071                                         !
 ! A76   A(41,39,43)           108.7184                                         !
 ! A77   A(39,43,44)           106.868                                          !
 ! A78   A(38,45,46)           114.1257                                         !
 ! A79   A(38,45,47)           121.4919                                         !
 ! A80   A(46,45,47)           115.786                                          !
 ! A81   A(45,47,48)           108.8077                                         !
 ! A82   A(45,47,49)           108.8398                                         !
 ! A83   A(45,47,50)           109.1883                                         !
 ! A84   A(48,47,49)           108.5633                                         !
 ! A85   A(48,47,50)           109.2069                                         !
 ! A86   A(49,47,50)           112.1765                                         !
 ! A87   A(47,49,53)           122.6442                                         !
 ! A88   A(47,49,57)           113.5033                                         !
 ! A89   A(53,49,57)           123.8411                                         !
 ! A90   A(47,50,51)           108.4905                                         !
 ! A91   A(47,50,52)           110.2756                                         !
 ! A92   A(47,50,54)           116.9198                                         !
 ! A93   A(51,50,52)           106.6068                                         !
 ! A94   A(51,50,54)           106.9315                                         !
 ! A95   A(52,50,54)           107.1147                                         !
 ! A96   A(50,54,55)           115.7777                                         !
 ! A97   A(50,54,56)           118.2207                                         !
 ! A98   A(55,54,56)           125.9989                                         !
 ! A99   A(49,57,58)           113.8332                                         !
 ! A100  A(49,57,59)           124.3177                                         !
 ! A101  A(58,57,59)           118.1201                                         !
 ! A102  A(57,59,60)           111.2036                                         !
 ! A103  A(57,59,61)           113.0864                                         !
 ! A104  A(57,59,62)           107.9219                                         !
 ! A105  A(60,59,61)           105.6818                                         !
 ! A106  A(60,59,62)           111.0965                                         !
 ! A107  A(61,59,62)           107.8325                                         !
 ! A108  A(59,61,65)           123.8297                                         !
 ! A109  A(59,61,81)           111.8251                                         !
 ! A110  A(65,61,81)           124.1108                                         !
 ! A111  A(59,62,63)           108.5836                                         !
 ! A112  A(59,62,64)           106.9882                                         !
 ! A113  A(59,62,66)           114.6096                                         !
 ! A114  A(63,62,64)           107.0186                                         !
 ! A115  A(63,62,66)           109.4258                                         !
 ! A116  A(64,62,66)           109.9255                                         !
 ! A117  A(62,66,67)           111.4158                                         !
 ! A118  A(62,66,68)           110.0719                                         !
 ! A119  A(62,66,69)           112.4211                                         !
 ! A120  A(67,66,68)           106.3707                                         !
 ! A121  A(67,66,69)           107.8013                                         !
 ! A122  A(68,66,69)           108.5263                                         !
 ! A123  A(66,69,70)           109.8719                                         !
 ! A124  A(66,69,71)           109.508                                          !
 ! A125  A(66,69,72)           110.0545                                         !
 ! A126  A(70,69,71)           107.8119                                         !
 ! A127  A(70,69,72)           109.213                                          !
 ! A128  A(71,69,72)           110.3475                                         !
 ! A129  A(69,72,73)           118.3584                                         !
 ! A130  A(69,72,80)           125.4025                                         !
 ! A131  A(73,72,80)           116.1325                                         !
 ! A132  A(75,74,76)           116.0761                                         !
 ! A133  A(75,74,80)           119.6442                                         !
 ! A134  A(76,74,80)           119.7885                                         !
 ! A135  A(78,77,79)           119.0573                                         !
 ! A136  A(78,77,80)           120.4675                                         !
 ! A137  A(79,77,80)           120.4368                                         !
 ! A138  A(72,80,74)           119.9492                                         !
 ! A139  A(72,80,77)           119.5104                                         !
 ! A140  A(74,80,77)           120.5156                                         !
 ! A141  A(61,81,82)           106.6504                                         !
 ! D1    D(2,1,5,6)             71.2327                                         !
 ! D2    D(2,1,5,7)            -44.1951                                         !
 ! D3    D(2,1,5,8)           -169.0907                                         !
 ! D4    D(3,1,5,6)           -173.9611                                         !
 ! D5    D(3,1,5,7)             70.611                                          !
 ! D6    D(3,1,5,8)            -54.2845                                         !
 ! D7    D(4,1,5,6)            -52.8117                                         !
 ! D8    D(4,1,5,7)           -168.2395                                         !
 ! D9    D(4,1,5,8)             66.8649                                         !
 ! D10   D(1,5,7,11)            23.998                                          !
 ! D11   D(1,5,7,23)          -154.0713                                         !
 ! D12   D(6,5,7,11)           -89.0328                                         !
 ! D13   D(6,5,7,23)            92.8979                                         !
 ! D14   D(8,5,7,11)           144.4376                                         !
 ! D15   D(8,5,7,23)           -33.6317                                         !
 ! D16   D(1,5,8,9)             75.4443                                         !
 ! D17   D(1,5,8,10)          -167.3239                                         !
 ! D18   D(1,5,8,12)           -46.0165                                         !
 ! D19   D(6,5,8,9)           -167.5369                                         !
 ! D20   D(6,5,8,10)           -50.3051                                         !
 ! D21   D(6,5,8,12)            71.0023                                         !
 ! D22   D(7,5,8,9)            -41.4911                                         !
 ! D23   D(7,5,8,10)            75.7406                                         !
 ! D24   D(7,5,8,12)          -162.952                                          !
 ! D25   D(5,7,23,24)            6.164                                          !
 ! D26   D(5,7,23,25)          164.1401                                         !
 ! D27   D(11,7,23,24)        -171.7816                                         !
 ! D28   D(11,7,23,25)         -13.8055                                         !
 ! D29   D(5,8,12,13)          -73.2256                                         !
 ! D30   D(5,8,12,15)          101.979                                          !
 ! D31   D(9,8,12,13)          166.2774                                         !
 ! D32   D(9,8,12,15)          -18.518                                          !
 ! D33   D(10,8,12,13)          46.4223                                         !
 ! D34   D(10,8,12,15)        -138.3731                                         !
 ! D35   D(8,12,13,14)          -5.5562                                         !
 ! D36   D(8,12,13,17)         175.3477                                         !
 ! D37   D(15,12,13,14)        179.2197                                         !
 ! D38   D(15,12,13,17)          0.1236                                         !
 ! D39   D(8,12,15,16)           6.0007                                         !
 ! D40   D(8,12,15,19)        -175.0198                                         !
 ! D41   D(13,12,15,16)       -178.7246                                         !
 ! D42   D(13,12,15,19)          0.2549                                         !
 ! D43   D(12,13,17,18)        179.2391                                         !
 ! D44   D(12,13,17,21)         -0.5162                                         !
 ! D45   D(14,13,17,18)          0.1416                                         !
 ! D46   D(14,13,17,21)       -179.6137                                         !
 ! D47   D(12,15,19,20)        179.5398                                         !
 ! D48   D(12,15,19,21)         -0.2416                                         !
 ! D49   D(16,15,19,20)         -1.4885                                         !
 ! D50   D(16,15,19,21)        178.7301                                         !
 ! D51   D(13,17,21,19)          0.5289                                         !
 ! D52   D(13,17,21,22)       -179.8121                                         !
 ! D53   D(18,17,21,19)       -179.2256                                         !
 ! D54   D(18,17,21,22)          0.4334                                         !
 ! D55   D(15,19,21,17)         -0.1514                                         !
 ! D56   D(15,19,21,22)       -179.8094                                         !
 ! D57   D(20,19,21,17)       -179.9305                                         !
 ! D58   D(20,19,21,22)          0.4115                                         !
 ! D59   D(7,23,25,26)          33.8637                                         !
 ! D60   D(7,23,25,27)         -85.2397                                         !
 ! D61   D(7,23,25,28)         153.6282                                         !
 ! D62   D(24,23,25,26)       -167.562                                          !
 ! D63   D(24,23,25,27)         73.3346                                         !
 ! D64   D(24,23,25,28)        -47.7975                                         !
 ! D65   D(23,25,27,31)       -113.0237                                         !
 ! D66   D(23,25,27,34)         63.3104                                         !
 ! D67   D(26,25,27,31)        129.7061                                         !
 ! D68   D(26,25,27,34)        -53.9598                                         !
 ! D69   D(28,25,27,31)          7.9707                                         !
 ! D70   D(28,25,27,34)       -175.6952                                         !
 ! D71   D(23,25,28,29)         55.6769                                         !
 ! D72   D(23,25,28,30)        -62.1957                                         !
 ! D73   D(23,25,28,32)        179.6319                                         !
 ! D74   D(26,25,28,29)        174.2809                                         !
 ! D75   D(26,25,28,30)         56.4083                                         !
 ! D76   D(26,25,28,32)        -61.764                                          !
 ! D77   D(27,25,28,29)        -63.4487                                         !
 ! D78   D(27,25,28,30)        178.6787                                         !
 ! D79   D(27,25,28,32)         60.5063                                         !
 ! D80   D(25,27,34,35)          6.4324                                         !
 ! D81   D(25,27,34,36)       -160.6619                                         !
 ! D82   D(31,27,34,35)       -177.4396                                         !
 ! D83   D(31,27,34,36)         15.466                                          !
 ! D84   D(25,28,32,33)        -72.4082                                         !
 ! D85   D(29,28,32,33)         49.8292                                         !
 ! D86   D(30,28,32,33)        168.6741                                         !
 ! D87   D(27,34,36,37)       -107.5572                                         !
 ! D88   D(27,34,36,38)        133.7728                                         !
 ! D89   D(27,34,36,39)         12.8987                                         !
 ! D90   D(35,34,36,37)         85.2212                                         !
 ! D91   D(35,34,36,38)        -33.4488                                         !
 ! D92   D(35,34,36,39)       -154.323                                          !
 ! D93   D(34,36,38,42)        -21.4903                                         !
 ! D94   D(34,36,38,45)        160.1037                                         !
 ! D95   D(37,36,38,42)       -141.1762                                         !
 ! D96   D(37,36,38,45)         40.4178                                         !
 ! D97   D(39,36,38,42)        103.2981                                         !
 ! D98   D(39,36,38,45)        -75.1079                                         !
 ! D99   D(34,36,39,40)         54.0093                                         !
 ! D100  D(34,36,39,41)        -63.5153                                         !
 ! D101  D(34,36,39,43)        177.4932                                         !
 ! D102  D(37,36,39,40)        176.4797                                         !
 ! D103  D(37,36,39,41)         58.9551                                         !
 ! D104  D(37,36,39,43)        -60.0364                                         !
 ! D105  D(38,36,39,40)        -66.6421                                         !
 ! D106  D(38,36,39,41)        175.8334                                         !
 ! D107  D(38,36,39,43)         56.8419                                         !
 ! D108  D(36,38,45,46)         12.6167                                         !
 ! D109  D(36,38,45,47)        159.0597                                         !
 ! D110  D(42,38,45,46)       -165.7622                                         !
 ! D111  D(42,38,45,47)        -19.3191                                         !
 ! D112  D(36,39,43,44)        -90.681                                          !
 ! D113  D(40,39,43,44)         31.073                                          !
 ! D114  D(41,39,43,44)        150.532                                          !
 ! D115  D(38,45,47,48)         53.3284                                         !
 ! D116  D(38,45,47,49)        -64.8067                                         !
 ! D117  D(38,45,47,50)        172.4395                                         !
 ! D118  D(46,45,47,48)       -160.7462                                         !
 ! D119  D(46,45,47,49)         81.1187                                         !
 ! D120  D(46,45,47,50)        -41.6351                                         !
 ! D121  D(45,47,49,53)         -5.8382                                         !
 ! D122  D(45,47,49,57)        175.3472                                         !
 ! D123  D(48,47,49,53)       -124.1274                                         !
 ! D124  D(48,47,49,57)         57.058                                          !
 ! D125  D(50,47,49,53)        115.0992                                         !
 ! D126  D(50,47,49,57)        -63.7154                                         !
 ! D127  D(45,47,50,51)        -43.7961                                         !
 ! D128  D(45,47,50,52)         72.6148                                         !
 ! D129  D(45,47,50,54)       -164.7402                                         !
 ! D130  D(48,47,50,51)         75.0668                                         !
 ! D131  D(48,47,50,52)       -168.5223                                         !
 ! D132  D(48,47,50,54)        -45.8773                                         !
 ! D133  D(49,47,50,51)       -164.5323                                         !
 ! D134  D(49,47,50,52)        -48.1214                                         !
 ! D135  D(49,47,50,54)         74.5237                                         !
 ! D136  D(47,49,57,58)          3.0274                                         !
 ! D137  D(47,49,57,59)        160.7555                                         !
 ! D138  D(53,49,57,58)       -175.7708                                         !
 ! D139  D(53,49,57,59)        -18.0428                                         !
 ! D140  D(47,50,54,55)       -175.6545                                         !
 ! D141  D(47,50,54,56)          3.7887                                         !
 ! D142  D(51,50,54,55)         62.5842                                         !
 ! D143  D(51,50,54,56)       -117.9725                                         !
 ! D144  D(52,50,54,55)        -51.3904                                         !
 ! D145  D(52,50,54,56)        128.0529                                         !
 ! D146  D(49,57,59,60)         86.4646                                         !
 ! D147  D(49,57,59,61)        -32.2552                                         !
 ! D148  D(49,57,59,62)       -151.4466                                         !
 ! D149  D(58,57,59,60)       -116.6818                                         !
 ! D150  D(58,57,59,61)        124.5984                                         !
 ! D151  D(58,57,59,62)          5.407                                          !
 ! D152  D(57,59,61,65)        141.2706                                         !
 ! D153  D(57,59,61,81)        -44.0975                                         !
 ! D154  D(60,59,61,65)         19.3974                                         !
 ! D155  D(60,59,61,81)       -165.9707                                         !
 ! D156  D(62,59,61,65)        -99.4865                                         !
 ! D157  D(62,59,61,81)         75.1455                                         !
 ! D158  D(57,59,62,63)        174.3912                                         !
 ! D159  D(57,59,62,64)         59.2034                                         !
 ! D160  D(57,59,62,66)        -62.9294                                         !
 ! D161  D(60,59,62,63)        -63.454                                          !
 ! D162  D(60,59,62,64)       -178.6418                                         !
 ! D163  D(60,59,62,66)         59.2254                                         !
 ! D164  D(61,59,62,63)         51.9147                                         !
 ! D165  D(61,59,62,64)        -63.2731                                         !
 ! D166  D(61,59,62,66)        174.5941                                         !
 ! D167  D(59,61,81,82)       -178.0354                                         !
 ! D168  D(65,61,81,82)         -3.4213                                         !
 ! D169  D(59,62,66,67)         34.9219                                         !
 ! D170  D(59,62,66,68)        -82.8301                                         !
 ! D171  D(59,62,66,69)        156.058                                          !
 ! D172  D(63,62,66,67)        157.1451                                         !
 ! D173  D(63,62,66,68)         39.3931                                         !
 ! D174  D(63,62,66,69)        -81.7188                                         !
 ! D175  D(64,62,66,67)        -85.6                                            !
 ! D176  D(64,62,66,68)        156.648                                          !
 ! D177  D(64,62,66,69)         35.5361                                         !
 ! D178  D(62,66,69,70)         51.8722                                         !
 ! D179  D(62,66,69,71)        170.1092                                         !
 ! D180  D(62,66,69,72)        -68.4224                                         !
 ! D181  D(67,66,69,70)        175.0567                                         !
 ! D182  D(67,66,69,71)        -66.7063                                         !
 ! D183  D(67,66,69,72)         54.7621                                         !
 ! D184  D(68,66,69,70)        -70.1212                                         !
 ! D185  D(68,66,69,71)         48.1158                                         !
 ! D186  D(68,66,69,72)        169.5842                                         !
 ! D187  D(66,69,72,73)        -22.7348                                         !
 ! D188  D(66,69,72,80)        153.3541                                         !
 ! D189  D(70,69,72,73)       -143.4266                                         !
 ! D190  D(70,69,72,80)         32.6624                                         !
 ! D191  D(71,69,72,73)         98.2314                                         !
 ! D192  D(71,69,72,80)        -85.6797                                         !
 ! D193  D(69,72,80,74)         11.5859                                         !
 ! D194  D(69,72,80,77)       -166.6111                                         !
 ! D195  D(73,72,80,74)       -172.2476                                         !
 ! D196  D(73,72,80,77)          9.5554                                         !
 ! D197  D(75,74,80,72)       -178.2425                                         !
 ! D198  D(75,74,80,77)         -0.0638                                         !
 ! D199  D(76,74,80,72)         26.453                                          !
 ! D200  D(76,74,80,77)       -155.3683                                         !
 ! D201  D(78,77,80,72)         12.8365                                         !
 ! D202  D(78,77,80,74)       -165.3501                                         !
 ! D203  D(79,77,80,72)       -169.4383                                         !
 ! D204  D(79,77,80,74)         12.3751                                         !
 --------------------------------------------------------------------------------
 Symmetry turned off by external request.
 Stoichiometry    C25H39N8O10(1+)
 Framework group  C1[X(C25H39N8O10)]
 Deg. of freedom   240
 Full point group                 C1      NOp   1
                          Input orientation:                          
 ---------------------------------------------------------------------
 Center     Atomic      Atomic             Coordinates (Angstroms)
 Number     Number       Type             X           Y           Z
 ---------------------------------------------------------------------
      1          7           0       -1.348740   -2.508290   -2.948331
      2          1           0       -1.169174   -2.849823   -3.902135
      3          1           0       -0.551174   -1.870329   -2.704871
      4          1           0       -1.413179   -3.267554   -2.265447
      5          6           0       -2.614473   -1.685360   -2.980720
      6          1           0       -3.437686   -2.392641   -3.127574
      7          6           0       -2.443325   -0.818499   -4.246127
      8          6           0       -2.779796   -0.929149   -1.646531
      9          1           0       -2.081384   -0.087643   -1.633734
     10          1           0       -3.801437   -0.531921   -1.611730
     11          8           0       -1.694168   -1.228645   -5.137139
     12          6           0       -2.523041   -1.841293   -0.464543
     13          6           0       -3.456301   -2.822257   -0.099107
     14          1           0       -4.415933   -2.874395   -0.609999
     15          6           0       -1.297320   -1.774042    0.212083
     16          1           0       -0.580439   -1.002890   -0.053698
     17          6           0       -3.170414   -3.721438    0.929121
     18          1           0       -3.905016   -4.469404    1.212641
     19          6           0       -1.010656   -2.680035    1.235249
     20          1           0       -0.055006   -2.620698    1.744927
     21          6           0       -1.943208   -3.654468    1.594448
     22          1           0       -1.720156   -4.356576    2.392571
     23          7           0       -3.091999    0.358578   -4.289655
     24          1           0       -3.586097    0.674751   -3.464183
     25          6           0       -2.738696    1.401751   -5.268317
     26          1           0       -2.421815    0.901987   -6.186332
     27          6           0       -1.568055    2.230112   -4.666341
     28          6           0       -3.949583    2.300383   -5.562021
     29          1           0       -4.326803    2.720352   -4.615173
     30          1           0       -4.743241    1.691136   -6.005015
     31          8           0       -1.727006    3.403910   -4.348354
     32          8           0       -3.613713    3.302024   -6.489184
     33          1           0       -3.047537    3.933264   -6.012065
     34          7           0       -0.434530    1.503144   -4.471808
     35          1           0       -0.450085    0.554466   -4.828762
     36          6           0        0.695696    1.809616   -3.604875
     37          1           0        1.565995    2.107978   -4.203982
     38          6           0        1.049241    0.537343   -2.821525
     39          6           0        0.439781    2.966608   -2.577384
     40          1           0       -0.463070    2.737594   -1.997777
     41          1           0        0.262267    3.885722   -3.132641
     42          8           0        0.223684   -0.380466   -2.660407
     43          8           0        1.568644    3.148632   -1.748642
     44          1           0        1.441821    2.572960   -0.964329
     45          7           0        2.289478    0.509617   -2.303615
     46          1           0        2.767133    1.408058   -2.319683
     47          6           0        2.631343   -0.370327   -1.193435
     48          1           0        2.345368   -1.392767   -1.453224
     49          6           0        1.822017    0.066697    0.061815
     50          6           0        4.155170   -0.314814   -0.952655
     51          1           0        4.662186   -0.358161   -1.923186
     52          1           0        4.433111    0.642645   -0.496400
     53          8           0        1.112566    1.080274    0.078946
     54          6           0        4.765428   -1.429805   -0.076386
     55          8           0        5.981361   -1.318170    0.173852
     56          8           0        3.994969   -2.367719    0.334305
     57          7           0        1.991553   -0.745420    1.117806
     58          1           0        2.668661   -1.505946    0.954176
     59          6           0        1.694876   -0.374315    2.496050
     60          1           0        0.643627   -0.561131    2.738981
     61          6           0        1.927741    1.112215    2.781090
     62          6           0        2.632263   -1.186053    3.419667
     63          1           0        2.489421   -0.843278    4.450377
     64          1           0        3.660163   -0.931409    3.136409
     65          8           0        1.213398    1.780515    3.486178
     66          6           0        2.432542   -2.712758    3.354923
     67          1           0        2.167396   -3.039256    2.342334
     68          1           0        1.600975   -3.011117    4.003332
     69          6           0        3.688423   -3.486799    3.784284
     70          1           0        4.035827   -3.122650    4.759419
     71          1           0        3.443791   -4.552883    3.891235
     72          7           0        4.752202   -3.305471    2.795589
     73          1           0        4.483990   -3.036142    1.820645
     74          7           0        6.495087   -3.876413    4.233048
     75          1           0        7.485148   -3.908140    4.427520
     76          1           0        5.921218   -4.529497    4.745456
     77          7           0        6.926721   -2.940356    2.137591
     78          1           0        6.598556   -2.353791    1.325691
     79          1           0        7.912523   -3.133178    2.236215
     80          6           0        6.059147   -3.382726    3.044727
     81          8           0        3.090686    1.552100    2.243024
     82          1           0        3.177941    2.490836    2.495006
 ---------------------------------------------------------------------
 Rotational constants (GHZ):           0.1264392           0.0439812           0.0390385
 Standard basis: 6-31G(d) (6D, 7F)
   723 basis functions,  1360 primitive gaussians,   723 cartesian basis functions
   162 alpha electrons      162 beta electrons
       nuclear repulsion energy      5766.0395311452 Hartrees.
 NAtoms=   82 NActive=   82 NUniq=   82 SFac= 1.00D+00 NAtFMM=   60 NAOKFM=T Big=T
 Integral buffers will be    131072 words long.
 Raffenetti 2 integral format.
 Two-electron integral symmetry is turned off.
 Nuclear repulsion after empirical dispersion term =     5765.9155700318 Hartrees.
 One-electron integrals computed using PRISM.
 NBasis=   723 RedAO= T EigKep=  4.27D-04  NBF=   723
 NBsUse=   723 1.00D-06 EigRej= -1.00D+00 NBFU=   723
 Initial guess from the checkpoint file:  "conf-684.chk"
 B after Tr=     0.000000    0.000000    0.000000
         Rot=    1.000000    0.000000    0.000000    0.000000 Ang=   0.00 deg.
 Requested convergence on RMS density matrix=1.00D-08 within 128 cycles.
 Requested convergence on MAX density matrix=1.00D-06.
 Requested convergence on             energy=1.00D-06.
 No special actions if energy rises.
 SCF Done:  E(RB3LYP) =  -2166.42704814     A.U. after    1 cycles
            NFock=  1  Conv=0.60D-08     -V/T= 2.0092

 **********************************************************************

            Population analysis using the SCF Density.

 **********************************************************************

 Alpha  occ. eigenvalues --  -19.27513 -19.25242 -19.24458 -19.22112 -19.21814
 Alpha  occ. eigenvalues --  -19.21647 -19.21570 -19.21283 -19.19308 -19.18371
 Alpha  occ. eigenvalues --  -14.56891 -14.49344 -14.48445 -14.46613 -14.46202
 Alpha  occ. eigenvalues --  -14.45687 -14.45432 -14.44352 -10.43433 -10.42652
 Alpha  occ. eigenvalues --  -10.40455 -10.39964 -10.39242 -10.38787 -10.38473
 Alpha  occ. eigenvalues --  -10.36955 -10.33599 -10.33327 -10.33320 -10.33214
 Alpha  occ. eigenvalues --  -10.33029 -10.32597 -10.31786 -10.31689 -10.31030
 Alpha  occ. eigenvalues --  -10.29851 -10.29713 -10.29467 -10.29394 -10.29340
 Alpha  occ. eigenvalues --  -10.29296 -10.29150 -10.27927  -1.18336  -1.17789
 Alpha  occ. eigenvalues --   -1.15733  -1.13512  -1.13378  -1.12410  -1.11692
 Alpha  occ. eigenvalues --   -1.11639  -1.09507  -1.09438  -1.09046  -1.05524
 Alpha  occ. eigenvalues --   -1.03748  -1.03544  -1.02081  -1.01849  -1.01457
 Alpha  occ. eigenvalues --   -0.99807  -0.96644  -0.92008  -0.90423  -0.88342
 Alpha  occ. eigenvalues --   -0.87049  -0.85250  -0.84969  -0.84331  -0.83023
 Alpha  occ. eigenvalues --   -0.78465  -0.78185  -0.76419  -0.74766  -0.74062
 Alpha  occ. eigenvalues --   -0.73493  -0.72151  -0.71890  -0.71186  -0.71049
 Alpha  occ. eigenvalues --   -0.70957  -0.70082  -0.69234  -0.68757  -0.68289
 Alpha  occ. eigenvalues --   -0.67014  -0.66541  -0.66004  -0.64983  -0.63664
 Alpha  occ. eigenvalues --   -0.62548  -0.61883  -0.61454  -0.61369  -0.61020
 Alpha  occ. eigenvalues --   -0.60529  -0.59490  -0.59351  -0.58793  -0.58567
 Alpha  occ. eigenvalues --   -0.57363  -0.57319  -0.56998  -0.56908  -0.56662
 Alpha  occ. eigenvalues --   -0.56089  -0.55725  -0.55450  -0.55245  -0.54843
 Alpha  occ. eigenvalues --   -0.54668  -0.53502  -0.53127  -0.52767  -0.52677
 Alpha  occ. eigenvalues --   -0.52025  -0.51951  -0.51774  -0.51671  -0.51465
 Alpha  occ. eigenvalues --   -0.51003  -0.50894  -0.50065  -0.49698  -0.49651
 Alpha  occ. eigenvalues --   -0.49578  -0.49185  -0.48910  -0.48389  -0.48196
 Alpha  occ. eigenvalues --   -0.47818  -0.47412  -0.46577  -0.46321  -0.45608
 Alpha  occ. eigenvalues --   -0.45088  -0.44929  -0.44805  -0.44666  -0.44048
 Alpha  occ. eigenvalues --   -0.43351  -0.41254  -0.41047  -0.40078  -0.39524
 Alpha  occ. eigenvalues --   -0.39402  -0.39054  -0.38659  -0.38083  -0.36687
 Alpha  occ. eigenvalues --   -0.36238  -0.36053  -0.35680  -0.35331  -0.35235
 Alpha  occ. eigenvalues --   -0.34945  -0.34522  -0.34389  -0.34108  -0.33984
 Alpha  occ. eigenvalues --   -0.33548  -0.32719
 Alpha virt. eigenvalues --   -0.12748  -0.11044  -0.10901  -0.09924  -0.08264
 Alpha virt. eigenvalues --   -0.07752  -0.07472  -0.06414  -0.05966  -0.04498
 Alpha virt. eigenvalues --   -0.03801  -0.03617  -0.02205  -0.01426  -0.01227
 Alpha virt. eigenvalues --   -0.01127  -0.00271   0.00081   0.00643   0.01429
 Alpha virt. eigenvalues --    0.01672   0.01920   0.02237   0.02489   0.02876
 Alpha virt. eigenvalues --    0.03301   0.03813   0.04456   0.04503   0.04664
 Alpha virt. eigenvalues --    0.04996   0.05146   0.05787   0.05854   0.06259
 Alpha virt. eigenvalues --    0.06349   0.06784   0.07413   0.07804   0.08037
 Alpha virt. eigenvalues --    0.08505   0.08652   0.08803   0.08939   0.09146
 Alpha virt. eigenvalues --    0.09864   0.10256   0.10320   0.10916   0.11212
 Alpha virt. eigenvalues --    0.11448   0.11722   0.12385   0.12784   0.13695
 Alpha virt. eigenvalues --    0.14311   0.14501   0.14757   0.14832   0.15491
 Alpha virt. eigenvalues --    0.15571   0.16267   0.16533   0.17119   0.17420
 Alpha virt. eigenvalues --    0.17762   0.18416   0.18867   0.19745   0.20383
 Alpha virt. eigenvalues --    0.20728   0.21447   0.21800   0.22199   0.22454
 Alpha virt. eigenvalues --    0.23943   0.24209   0.25798   0.26177   0.26705
 Alpha virt. eigenvalues --    0.27388   0.29377   0.29507   0.29839   0.30620
 Alpha virt. eigenvalues --    0.31699   0.33167   0.33277   0.33954   0.34996
 Alpha virt. eigenvalues --    0.38245   0.38984   0.39281   0.39621   0.40818
 Alpha virt. eigenvalues --    0.41184   0.41988   0.42405   0.42827   0.42940
 Alpha virt. eigenvalues --    0.43054   0.43758   0.44103   0.44349   0.44679
 Alpha virt. eigenvalues --    0.45047   0.45389   0.45964   0.46329   0.46505
 Alpha virt. eigenvalues --    0.46788   0.47417   0.47535   0.47741   0.48175
 Alpha virt. eigenvalues --    0.48557   0.49187   0.49515   0.49747   0.49920
 Alpha virt. eigenvalues --    0.50362   0.50678   0.51021   0.51298   0.51516
 Alpha virt. eigenvalues --    0.51938   0.52053   0.52344   0.52793   0.53151
 Alpha virt. eigenvalues --    0.53736   0.54213   0.54396   0.54551   0.55226
 Alpha virt. eigenvalues --    0.55382   0.55819   0.56383   0.56483   0.57009
 Alpha virt. eigenvalues --    0.57527   0.57797   0.58014   0.58556   0.59303
 Alpha virt. eigenvalues --    0.59491   0.60259   0.60431   0.60811   0.61467
 Alpha virt. eigenvalues --    0.61688   0.62030   0.62793   0.63248   0.64317
 Alpha virt. eigenvalues --    0.64441   0.65058   0.65411   0.66145   0.66278
 Alpha virt. eigenvalues --    0.67063   0.67827   0.68200   0.69245   0.69854
 Alpha virt. eigenvalues --    0.70402   0.70590   0.71135   0.71370   0.71639
 Alpha virt. eigenvalues --    0.72103   0.72471   0.72749   0.73330   0.73573
 Alpha virt. eigenvalues --    0.73815   0.74168   0.74537   0.74857   0.75126
 Alpha virt. eigenvalues --    0.75493   0.75745   0.76020   0.76977   0.77054
 Alpha virt. eigenvalues --    0.77496   0.77715   0.78049   0.78075   0.78709
 Alpha virt. eigenvalues --    0.78743   0.79079   0.79342   0.79651   0.80387
 Alpha virt. eigenvalues --    0.80511   0.80970   0.81611   0.81867   0.82297
 Alpha virt. eigenvalues --    0.82757   0.83357   0.83628   0.84047   0.84331
 Alpha virt. eigenvalues --    0.84443   0.85277   0.85508   0.85724   0.86124
 Alpha virt. eigenvalues --    0.86967   0.87551   0.88550   0.88648   0.89416
 Alpha virt. eigenvalues --    0.89919   0.90857   0.91256   0.91533   0.91749
 Alpha virt. eigenvalues --    0.92587   0.93631   0.93926   0.94460   0.95452
 Alpha virt. eigenvalues --    0.96085   0.96243   0.97325   0.97485   0.97834
 Alpha virt. eigenvalues --    0.98462   0.99346   0.99515   1.00135   1.01285
 Alpha virt. eigenvalues --    1.01448   1.02187   1.02316   1.02938   1.03681
 Alpha virt. eigenvalues --    1.04057   1.04529   1.05172   1.05827   1.06146
 Alpha virt. eigenvalues --    1.06506   1.06861   1.07269   1.07776   1.08407
 Alpha virt. eigenvalues --    1.09192   1.10317   1.10851   1.11589   1.11944
 Alpha virt. eigenvalues --    1.13243   1.14168   1.14723   1.15684   1.16423
 Alpha virt. eigenvalues --    1.16640   1.17443   1.18680   1.18906   1.19512
 Alpha virt. eigenvalues --    1.20417   1.21294   1.22095   1.22326   1.23375
 Alpha virt. eigenvalues --    1.23654   1.23961   1.24957   1.25470   1.26081
 Alpha virt. eigenvalues --    1.26584   1.28797   1.29223   1.29983   1.30794
 Alpha virt. eigenvalues --    1.31102   1.32265   1.33016   1.33138   1.33571
 Alpha virt. eigenvalues --    1.34081   1.34930   1.35767   1.36171   1.37222
 Alpha virt. eigenvalues --    1.37545   1.37643   1.38106   1.38650   1.40157
 Alpha virt. eigenvalues --    1.40359   1.40656   1.40933   1.42000   1.42078
 Alpha virt. eigenvalues --    1.42824   1.43365   1.44845   1.45715   1.46800
 Alpha virt. eigenvalues --    1.47588   1.48147   1.48703   1.49874   1.51306
 Alpha virt. eigenvalues --    1.52087   1.52735   1.53914   1.54368   1.55407
 Alpha virt. eigenvalues --    1.55682   1.56056   1.56935   1.57484   1.57768
 Alpha virt. eigenvalues --    1.58705   1.59092   1.59789   1.60998   1.62142
 Alpha virt. eigenvalues --    1.62283   1.63061   1.63386   1.63800   1.64298
 Alpha virt. eigenvalues --    1.64818   1.65633   1.66004   1.66421   1.67647
 Alpha virt. eigenvalues --    1.68200   1.68952   1.69303   1.69788   1.70423
 Alpha virt. eigenvalues --    1.70541   1.70976   1.71708   1.71955   1.73028
 Alpha virt. eigenvalues --    1.73183   1.74411   1.74564   1.74770   1.75118
 Alpha virt. eigenvalues --    1.75540   1.75862   1.76654   1.76941   1.77090
 Alpha virt. eigenvalues --    1.77573   1.78291   1.79122   1.79672   1.80038
 Alpha virt. eigenvalues --    1.80556   1.81097   1.81402   1.81795   1.82509
 Alpha virt. eigenvalues --    1.82918   1.83384   1.83878   1.84080   1.85043
 Alpha virt. eigenvalues --    1.85480   1.85996   1.86335   1.87240   1.87490
 Alpha virt. eigenvalues --    1.87805   1.88453   1.88759   1.89081   1.89955
 Alpha virt. eigenvalues --    1.90853   1.91789   1.92316   1.92668   1.93530
 Alpha virt. eigenvalues --    1.94078   1.94545   1.94890   1.95386   1.95571
 Alpha virt. eigenvalues --    1.96332   1.97172   1.97474   1.98095   1.98621
 Alpha virt. eigenvalues --    1.99084   2.00082   2.00902   2.01521   2.01741
 Alpha virt. eigenvalues --    2.02467   2.03072   2.03792   2.04477   2.05161
 Alpha virt. eigenvalues --    2.05631   2.06286   2.07258   2.07408   2.07980
 Alpha virt. eigenvalues --    2.08385   2.08753   2.09927   2.10701   2.10867
 Alpha virt. eigenvalues --    2.13236   2.13690   2.14545   2.16125   2.16961
 Alpha virt. eigenvalues --    2.18062   2.18868   2.19182   2.19925   2.20450
 Alpha virt. eigenvalues --    2.21260   2.21559   2.22619   2.23332   2.23867
 Alpha virt. eigenvalues --    2.24175   2.25185   2.26126   2.27441   2.28173
 Alpha virt. eigenvalues --    2.28525   2.28995   2.29853   2.30122   2.30803
 Alpha virt. eigenvalues --    2.32545   2.32974   2.33612   2.34341   2.35150
 Alpha virt. eigenvalues --    2.36089   2.36507   2.36978   2.37318   2.38477
 Alpha virt. eigenvalues --    2.39094   2.40251   2.40827   2.42816   2.42889
 Alpha virt. eigenvalues --    2.44611   2.45093   2.45199   2.46386   2.46990
 Alpha virt. eigenvalues --    2.47493   2.47753   2.49271   2.49788   2.50303
 Alpha virt. eigenvalues --    2.50630   2.50961   2.51967   2.53559   2.53910
 Alpha virt. eigenvalues --    2.55183   2.55791   2.56445   2.57648   2.58376
 Alpha virt. eigenvalues --    2.59475   2.59967   2.60450   2.61631   2.62786
 Alpha virt. eigenvalues --    2.63128   2.63657   2.64011   2.64285   2.65479
 Alpha virt. eigenvalues --    2.66608   2.67324   2.68174   2.69676   2.72582
 Alpha virt. eigenvalues --    2.74656   2.75908   2.76587   2.78482   2.80343
 Alpha virt. eigenvalues --    2.81718   2.82053   2.83706   2.85076   2.86228
 Alpha virt. eigenvalues --    2.87842   2.88350   2.91820   2.92204   2.93598
 Alpha virt. eigenvalues --    2.93927   2.94677   2.95857   2.97895   2.99134
 Alpha virt. eigenvalues --    3.02292   3.02919   3.03619   3.04435   3.09539
 Alpha virt. eigenvalues --    3.11551   3.12306   3.30407   3.70098   3.71669
 Alpha virt. eigenvalues --    3.74164   3.79475   3.81114   3.82818   3.90280
 Alpha virt. eigenvalues --    3.93139   3.94616   3.96537   3.99696   4.00669
 Alpha virt. eigenvalues --    4.02469   4.03460   4.04589   4.05280   4.08023
 Alpha virt. eigenvalues --    4.08125   4.10040   4.13041   4.14852   4.16685
 Alpha virt. eigenvalues --    4.18634   4.21219   4.22891   4.24416   4.27605
 Alpha virt. eigenvalues --    4.28397   4.29775   4.31200   4.32885   4.34821
 Alpha virt. eigenvalues --    4.40557   4.41543   4.42310   4.44819   4.47715
 Alpha virt. eigenvalues --    4.53161   4.53744   4.58202   4.60548   4.62293
 Alpha virt. eigenvalues --    4.68458
          Condensed to atoms (all electrons):
 Mulliken charges:
               1
     1  N   -0.753190
     2  H    0.414782
     3  H    0.450056
     4  H    0.404881
     5  C   -0.111715
     6  H    0.221012
     7  C    0.670394
     8  C   -0.395378
     9  H    0.209428
    10  H    0.182884
    11  O   -0.543864
    12  C    0.112835
    13  C   -0.191459
    14  H    0.142276
    15  C   -0.213161
    16  H    0.182184
    17  C   -0.127344
    18  H    0.161212
    19  C   -0.139909
    20  H    0.152327
    21  C   -0.129505
    22  H    0.152378
    23  N   -0.599042
    24  H    0.355437
    25  C   -0.114672
    26  H    0.217799
    27  C    0.624821
    28  C   -0.025845
    29  H    0.133655
    30  H    0.165597
    31  O   -0.518789
    32  O   -0.610625
    33  H    0.421294
    34  N   -0.628870
    35  H    0.363455
    36  C   -0.042395
    37  H    0.188767
    38  C    0.607237
    39  C   -0.046730
    40  H    0.147807
    41  H    0.206632
    42  O   -0.601560
    43  O   -0.651767
    44  H    0.438753
    45  N   -0.577165
    46  H    0.361887
    47  C   -0.073573
    48  H    0.185712
    49  C    0.658172
    50  C   -0.391491
    51  H    0.195639
    52  H    0.191000
    53  O   -0.576199
    54  C    0.625512
    55  O   -0.559621
    56  O   -0.630467
    57  N   -0.666248
    58  H    0.412028
    59  C    0.007073
    60  H    0.181009
    61  C    0.587993
    62  C   -0.322580
    63  H    0.179542
    64  H    0.182614
    65  O   -0.447688
    66  C   -0.318206
    67  H    0.174137
    68  H    0.167240
    69  C   -0.145474
    70  H    0.172329
    71  H    0.166589
    72  N   -0.639626
    73  H    0.422812
    74  N   -0.762227
    75  H    0.365772
    76  H    0.369756
    77  N   -0.794250
    78  H    0.436677
    79  H    0.349721
    80  C    0.780099
    81  O   -0.575200
    82  H    0.424624
 Sum of Mulliken charges =   1.00000
 Mulliken charges with hydrogens summed into heavy atoms:
               1
     1  N    0.516530
     5  C    0.109297
     7  C    0.670394
     8  C   -0.003066
    11  O   -0.543864
    12  C    0.112835
    13  C   -0.049183
    15  C   -0.030977
    17  C    0.033867
    19  C    0.012418
    21  C    0.022872
    23  N   -0.243604
    25  C    0.103126
    27  C    0.624821
    28  C    0.273407
    31  O   -0.518789
    32  O   -0.189331
    34  N   -0.265416
    36  C    0.146372
    38  C    0.607237
    39  C    0.307709
    42  O   -0.601560
    43  O   -0.213015
    45  N   -0.215279
    47  C    0.112138
    49  C    0.658172
    50  C   -0.004851
    53  O   -0.576199
    54  C    0.625512
    55  O   -0.559621
    56  O   -0.630467
    57  N   -0.254220
    59  C    0.188082
    61  C    0.587993
    62  C    0.039575
    65  O   -0.447688
    66  C    0.023171
    69  C    0.193444
    72  N   -0.216814
    74  N   -0.026699
    77  N   -0.007852
    80  C    0.780099
    81  O   -0.150576
 Electronic spatial extent (au):  <R**2>=          29434.5578
 Charge=              1.0000 electrons
 Dipole moment (field-independent basis, Debye):
    X=              6.1837    Y=            -16.6962    Z=              2.6228  Tot=             17.9966
 Quadrupole moment (field-independent basis, Debye-Ang):
   XX=           -137.0570   YY=           -197.3116   ZZ=           -196.9206
   XY=            -27.8081   XZ=             69.4708   YZ=            -26.7565
 Traceless Quadrupole moment (field-independent basis, Debye-Ang):
   XX=             40.0394   YY=            -20.2152   ZZ=            -19.8242
   XY=            -27.8081   XZ=             69.4708   YZ=            -26.7565
 Octapole moment (field-independent basis, Debye-Ang**2):
  XXX=            -25.5825  YYY=            156.1640  ZZZ=            752.1827  XYY=             -2.8742
  XXY=           -265.2825  XXZ=            531.1359  XZZ=            103.7968  YZZ=           -143.2191
  YYZ=            348.2419  XYZ=           -286.3949
 Hexadecapole moment (field-independent basis, Debye-Ang**3):
 XXXX=          -9709.1244 YYYY=          -6827.3212 ZZZZ=         -14746.3613 XXXY=           -782.3068
 XXXZ=          -1028.4206 YYYX=           1157.4709 YYYZ=           2114.5854 ZZZX=          -3500.0055
 ZZZY=           2195.7777 XXYY=          -2144.6844 XXZZ=          -3331.8599 YYZZ=          -2981.4701
 XXYZ=           -562.4101 YYXZ=           -390.4975 ZZXY=            -64.0336
 N-N= 5.765915570032D+03 E-N=-1.655626544384D+04  KE= 2.146612570210D+03
 Unable to Open any file for archive entry.
 1\1\GINC-SKL-161\SP\RB3LYP\6-31G(d)\C25H39N8O10(1+)\KENGMITH\16-May-20
 22\0\\# B3LYP/6-31G* empiricaldispersion=gd3 guess=read geom=check nos
 ymm integral(ultrafinegrid)\\Candidate Structure: Conf:684 Charge calc
  in gas phase\\1,1\N,0,-1.348739766,-2.508290448,-2.9483305854\H,0,-1.
 1691735713,-2.849822877,-3.9021350798\H,0,-0.5511741607,-1.8703291066,
 -2.7048710572\H,0,-1.4131791004,-3.2675542285,-2.2654466496\C,0,-2.614
 4733956,-1.6853596815,-2.9807199408\H,0,-3.4376861521,-2.3926410058,-3
 .1275739618\C,0,-2.4433246297,-0.8184990895,-4.2461273207\C,0,-2.77979
 61937,-0.9291494507,-1.6465314029\H,0,-2.0813835555,-0.0876434572,-1.6
 337336031\H,0,-3.8014366152,-0.5319213151,-1.6117302875\O,0,-1.6941681
 276,-1.2286454321,-5.1371386521\C,0,-2.5230409769,-1.841292716,-0.4645
 427364\C,0,-3.4563007956,-2.8222570133,-0.0991073684\H,0,-4.4159325047
 ,-2.8743950615,-0.6099994445\C,0,-1.2973202667,-1.7740424992,0.2120825
 656\H,0,-0.5804387123,-1.0028896248,-0.0536979054\C,0,-3.1704139992,-3
 .7214381726,0.9291214608\H,0,-3.9050160175,-4.4694039974,1.2126406111\
 C,0,-1.0106559973,-2.6800347415,1.2352486258\H,0,-0.0550064991,-2.6206
 976325,1.7449272758\C,0,-1.9432077839,-3.6544675339,1.5944478633\H,0,-
 1.7201564034,-4.3565756387,2.392571046\N,0,-3.091999398,0.3585780355,-
 4.2896552005\H,0,-3.5860969475,0.6747510769,-3.464183335\C,0,-2.738695
 7773,1.4017507814,-5.2683171945\H,0,-2.4218151692,0.9019873326,-6.1863
 315889\C,0,-1.5680549833,2.2301117238,-4.6663407176\C,0,-3.9495829464,
 2.3003831935,-5.5620211702\H,0,-4.3268031099,2.7203519527,-4.615172732
 6\H,0,-4.7432410939,1.6911358921,-6.0050147573\O,0,-1.7270056591,3.403
 9102872,-4.3483544851\O,0,-3.613712837,3.3020242823,-6.4891837046\H,0,
 -3.0475368918,3.9332641293,-6.0120646929\N,0,-0.4345298232,1.503143511
 1,-4.4718076566\H,0,-0.450085386,0.5544656478,-4.8287621198\C,0,0.6956
 959758,1.8096163466,-3.6048747021\H,0,1.5659946991,2.10797774,-4.20398
 21885\C,0,1.0492406827,0.5373432782,-2.8215249313\C,0,0.4397814754,2.9
 666082589,-2.5773837206\H,0,-0.4630699082,2.737594068,-1.9977773277\H,
 0,0.2622674608,3.8857215698,-3.1326408022\O,0,0.2236838777,-0.38046573
 63,-2.6604073482\O,0,1.5686443025,3.1486316973,-1.7486422808\H,0,1.441
 8213444,2.5729602549,-0.9643292116\N,0,2.28947826,0.5096171094,-2.3036
 152377\H,0,2.7671327184,1.4080580445,-2.3196831834\C,0,2.6313433462,-0
 .3703271267,-1.193434911\H,0,2.3453678511,-1.3927669309,-1.4532235495\
 C,0,1.82201725,0.0666968165,0.0618148319\C,0,4.15517037,-0.3148137078,
 -0.9526552064\H,0,4.6621858785,-0.3581611811,-1.9231860037\H,0,4.43311
 06896,0.6426446623,-0.4963999897\O,0,1.1125664687,1.0802738169,0.07894
 60843\C,0,4.7654278025,-1.4298053753,-0.0763864835\O,0,5.9813607048,-1
 .3181701657,0.1738522368\O,0,3.9949690555,-2.3677185928,0.3343048808\N
 ,0,1.9915526915,-0.7454199628,1.1178063553\H,0,2.6686609145,-1.5059459
 09,0.9541762387\C,0,1.6948756977,-0.3743152243,2.496049932\H,0,0.64362
 74289,-0.5611314466,2.738980606\C,0,1.9277407369,1.1122150266,2.781090
 4911\C,0,2.6322630902,-1.1860531437,3.4196670064\H,0,2.4894205995,-0.8
 432775979,4.4503769593\H,0,3.6601627776,-0.9314090761,3.1364091035\O,0
 ,1.2133976574,1.7805147249,3.4861782589\C,0,2.4325419423,-2.7127583609
 ,3.3549229246\H,0,2.1673959476,-3.0392563577,2.3423336747\H,0,1.600974
 9538,-3.0111169846,4.0033323886\C,0,3.6884226809,-3.4867986648,3.78428
 4036\H,0,4.0358265486,-3.1226498871,4.7594189569\H,0,3.4437911491,-4.5
 52883139,3.89123507\N,0,4.7522021047,-3.3054705028,2.7955885829\H,0,4.
 4839903814,-3.0361415836,1.8206450826\N,0,6.4950870168,-3.8764128677,4
 .2330484659\H,0,7.485147673,-3.9081403898,4.4275195107\H,0,5.921217547
 8,-4.5294966076,4.7454558337\N,0,6.9267211346,-2.9403558233,2.13759052
 99\H,0,6.5985559128,-2.3537911339,1.3256910776\H,0,7.9125226608,-3.133
 1776577,2.2362152766\C,0,6.0591466293,-3.3827260483,3.044726966\O,0,3.
 0906860123,1.5521000452,2.2430236945\H,0,3.1779405717,2.490836233,2.49
 50058245\\Version=ES64L-G16RevC.01\HF=-2166.4270481\RMSD=5.961e-09\Dip
 ole=0.9044711,-5.6030317,2.3864435\Quadrupole=29.7683321,-15.0295331,-
 14.7387989,-20.6746704,51.6498415,-19.8928005\PG=C01 [X(C25H39N8O10)]\
 \@
 The archive entry for this job was punched.


 MUD THROWN IS GROUND LOST -- FROM A TEA BAG
 Job cpu time:       0 days  0 hours  2 minutes 52.4 seconds.
 Elapsed time:       0 days  0 hours  0 minutes 43.9 seconds.
 File lengths (MBytes):  RWF=    384 Int=      0 D2E=      0 Chk=     56 Scr=     16
 Normal termination of Gaussian 16 at Mon May 16 19:20:14 2022.
