 Entering Gaussian System, Link 0=/opt/software/Gaussian/g16-AVX2-C.01/g16/g16
 Input=charge-conf-962.com
 Output=charge-conf-962.log
 Initial command:
 /opt/software/Gaussian/g16-AVX2-C.01/g16/l1.exe "/mnt/gs18/scratch/users/kengmith/Gau-76120.inp" -scrdir="/mnt/gs18/scratch/users/kengmith/"
 Entering Link 1 = /opt/software/Gaussian/g16-AVX2-C.01/g16/l1.exe PID=     76130.
  
 Copyright (c) 1988-2019, Gaussian, Inc.  All Rights Reserved.
  
 This is part of the Gaussian(R) 16 program.  It is based on
 the Gaussian(R) 09 system (copyright 2009, Gaussian, Inc.),
 the Gaussian(R) 03 system (copyright 2003, Gaussian, Inc.),
 the Gaussian(R) 98 system (copyright 1998, Gaussian, Inc.),
 the Gaussian(R) 94 system (copyright 1995, Gaussian, Inc.),
 the Gaussian 92(TM) system (copyright 1992, Gaussian, Inc.),
 the Gaussian 90(TM) system (copyright 1990, Gaussian, Inc.),
 the Gaussian 88(TM) system (copyright 1988, Gaussian, Inc.),
 the Gaussian 86(TM) system (copyright 1986, Carnegie Mellon
 University), and the Gaussian 82(TM) system (copyright 1983,
 Carnegie Mellon University). Gaussian is a federally registered
 trademark of Gaussian, Inc.
  
 This software contains proprietary and confidential information,
 including trade secrets, belonging to Gaussian, Inc.
  
 This software is provided under written license and may be
 used, copied, transmitted, or stored only in accord with that
 written license.
  
 The following legend is applicable only to US Government
 contracts under FAR:
  
                    RESTRICTED RIGHTS LEGEND
  
 Use, reproduction and disclosure by the US Government is
 subject to restrictions as set forth in subparagraphs (a)
 and (c) of the Commercial Computer Software - Restricted
 Rights clause in FAR 52.227-19.
  
 Gaussian, Inc.
 340 Quinnipiac St., Bldg. 40, Wallingford CT 06492
  
  
 ---------------------------------------------------------------
 Warning -- This program may not be used in any manner that
 competes with the business of Gaussian, Inc. or will provide
 assistance to any competitor of Gaussian, Inc.  The licensee
 of this program is prohibited from giving any competitor of
 Gaussian, Inc. access to this program.  By using this program,
 the user acknowledges that Gaussian, Inc. is engaged in the
 business of creating and licensing software in the field of
 computational chemistry and represents and warrants to the
 licensee that it is not a competitor of Gaussian, Inc. and that
 it will not use this program in any manner prohibited above.
 ---------------------------------------------------------------
  

 Cite this work as:
 Gaussian 16, Revision C.01,
 M. J. Frisch, G. W. Trucks, H. B. Schlegel, G. E. Scuseria, 
 M. A. Robb, J. R. Cheeseman, G. Scalmani, V. Barone, 
 G. A. Petersson, H. Nakatsuji, X. Li, M. Caricato, A. V. Marenich, 
 J. Bloino, B. G. Janesko, R. Gomperts, B. Mennucci, H. P. Hratchian, 
 J. V. Ortiz, A. F. Izmaylov, J. L. Sonnenberg, D. Williams-Young, 
 F. Ding, F. Lipparini, F. Egidi, J. Goings, B. Peng, A. Petrone, 
 T. Henderson, D. Ranasinghe, V. G. Zakrzewski, J. Gao, N. Rega, 
 G. Zheng, W. Liang, M. Hada, M. Ehara, K. Toyota, R. Fukuda, 
 J. Hasegawa, M. Ishida, T. Nakajima, Y. Honda, O. Kitao, H. Nakai, 
 T. Vreven, K. Throssell, J. A. Montgomery, Jr., J. E. Peralta, 
 F. Ogliaro, M. J. Bearpark, J. J. Heyd, E. N. Brothers, K. N. Kudin, 
 V. N. Staroverov, T. A. Keith, R. Kobayashi, J. Normand, 
 K. Raghavachari, A. P. Rendell, J. C. Burant, S. S. Iyengar, 
 J. Tomasi, M. Cossi, J. M. Millam, M. Klene, C. Adamo, R. Cammi, 
 J. W. Ochterski, R. L. Martin, K. Morokuma, O. Farkas, 
 J. B. Foresman, and D. J. Fox, Gaussian, Inc., Wallingford CT, 2019.
 
 ******************************************
 Gaussian 16:  ES64L-G16RevC.01  3-Jul-2019
                16-May-2022 
 ******************************************
 %mem=8gb
 %nproc=4
 Will use up to    4 processors via shared memory.
 %chk=conf-962.chk
 ----------------------------------------------------------------------
 # B3LYP/6-31G* empiricaldispersion=gd3 guess=read geom=check nosymm in
 tegral(ultrafinegrid)
 ----------------------------------------------------------------------
 1/29=2,38=1,172=1/1;
 2/12=2,15=1,40=1/2;
 3/5=1,6=6,7=1,11=2,14=-4,25=1,30=1,74=-5,75=-5,116=-2,124=31/1,2,3;
 4/5=1/1;
 5/5=2,38=6/2;
 6/7=2,8=2,9=2,10=2,28=1/1;
 99/5=1,9=1/99;
 ------------------------------------------------------
 Candidate Structure: Conf:962 Charge calc in gas phase
 ------------------------------------------------------
 Structure from the checkpoint file:  "conf-962.chk"
 Charge =  1 Multiplicity = 1
 Redundant internal coordinates found in file.  (old form).
 N,0,-6.1399777832,-3.1873347906,-4.5136315569
 H,0,-6.1817357691,-2.8502951221,-5.4795748961
 H,0,-5.5177290973,-4.0319024388,-4.491846072
 H,0,-7.0988602705,-3.3931804819,-4.1902516793
 C,0,-5.4524823331,-2.2151525544,-3.5820485357
 H,0,-5.5611224799,-1.2118843523,-3.9991963991
 C,0,-3.984485745,-2.6948974545,-3.5567205349
 C,0,-6.1007857897,-2.294509251,-2.1781347386
 H,0,-5.8444715583,-3.2614238884,-1.7288567836
 H,0,-5.6255558259,-1.5216104476,-1.5653941154
 O,0,-3.7630873461,-3.859912315,-3.9383931197
 C,0,-7.6003287509,-2.1102320438,-2.2479562834
 C,0,-8.155035717,-0.8344769581,-2.4255279071
 H,0,-7.5075859064,0.0398752782,-2.4348765176
 C,0,-8.4516501208,-3.2270072814,-2.2223873943
 H,0,-8.0392574662,-4.2181014069,-2.037489626
 C,0,-9.5329375186,-0.6782711741,-2.5681471894
 H,0,-9.9528815153,0.3156737368,-2.6904188047
 C,0,-9.8338792038,-3.06943,-2.3717621029
 H,0,-10.4830629219,-3.9391313002,-2.3351745882
 C,0,-10.3740190557,-1.7956933666,-2.546782619
 H,0,-11.4469215962,-1.6699452504,-2.6555637271
 N,0,-3.1120386961,-1.8280998336,-3.0746318742
 H,0,-3.3701316366,-0.8579403334,-2.8471091757
 C,0,-1.6834401346,-2.0348765768,-2.8203337985
 H,0,-1.5552915603,-2.7891796349,-2.0345008435
 C,0,-1.2191834794,-0.6533354669,-2.2883721752
 C,0,-0.8934165441,-2.5296969114,-4.0605610917
 H,0,0.1613663509,-2.2691855995,-3.9352501255
 H,0,-1.2619470833,-1.9821235842,-4.9443724158
 O,0,-2.0179373379,0.2922564666,-2.2618452968
 O,0,-0.9373995622,-3.9253001359,-4.2121486233
 H,0,-1.8718916823,-4.188446459,-4.2884644197
 N,0,0.0487640794,-0.5854577602,-1.8776135715
 H,0,0.6877449154,-1.3783541937,-1.9207160941
 C,0,0.6720209332,0.6278155092,-1.3737910619
 H,0,0.3889572112,1.4782158513,-2.0021945243
 C,0,2.1827358238,0.3789948224,-1.4150692784
 C,0,0.2200038347,0.9316431362,0.0874445662
 H,0,0.451406981,0.0551588669,0.7083732421
 H,0,-0.8652497865,1.0719915537,0.0681614013
 O,0,2.6303180646,-0.7587672793,-1.552467899
 O,0,0.8162101388,2.1066415274,0.58631515
 H,0,1.6438300932,1.8338674767,1.0417711149
 N,0,2.9468422664,1.4899644536,-1.2442940201
 H,0,2.435154897,2.3009807588,-0.9068541598
 C,0,4.3022902826,1.3483196754,-0.7371868087
 H,0,4.8161237698,0.5802518171,-1.318710786
 C,0,4.2518184176,0.927237989,0.755314216
 C,0,5.0714104048,2.6807916394,-0.8764306734
 H,0,4.9523326485,3.0340603289,-1.9081275583
 H,0,4.6430333976,3.4486892728,-0.2221191575
 O,0,3.2311668833,1.0073360519,1.4378513575
 C,0,6.5874004739,2.5597359518,-0.5989423553
 O,0,7.1590060524,1.4753976476,-0.8399221408
 O,0,7.1543219296,3.6001236172,-0.1067354829
 N,0,5.4621493294,0.5526453846,1.2483439187
 H,0,6.2177040376,0.5877003338,0.5598032127
 C,0,5.8883003734,0.7815890921,2.6410832118
 H,0,5.1499255071,0.3530136623,3.3215063498
 C,0,5.8275241991,2.3169879957,2.7956082008
 C,0,7.2797681485,0.1310039055,2.7688555016
 H,0,7.7906902224,0.3047290423,1.8152739391
 H,0,7.1348500623,-0.9517509932,2.8406988532
 O,0,4.8323249118,2.9108953984,3.1171384074
 C,0,8.2042616842,0.6322683413,3.9021634997
 H,0,8.2901712696,-0.1091118917,4.702988629
 H,0,7.8110720097,1.5416232908,4.3712303425
 C,0,9.6214537428,0.9287164575,3.3729736423
 H,0,10.2778711209,1.235702057,4.1963975688
 H,0,10.0439052441,0.024281044,2.9186677291
 N,0,9.5522541855,1.9903452076,2.3592503494
 H,0,8.6827010124,2.5312806792,2.3817481257
 N,0,11.3483182654,1.2882984956,1.0622025386
 H,0,11.872587662,1.3424059933,0.2013094072
 H,0,11.8792194788,1.0386143066,1.8838548191
 N,0,9.7889606478,2.8100020641,0.2130741587
 H,0,8.7764848625,3.1006734843,0.122322396
 H,0,10.3192076464,2.8425532939,-0.6464172623
 C,0,10.2208144093,2.0335268589,1.2031627393
 O,0,6.9694701707,2.9462909352,2.3741362672
 H,0,6.8183825211,3.5421047089,1.5807613995
 Recover connectivity data from disk.
                           ----------------------------
                           !    Current Parameters    !
                           ! (Angstroms and Degrees)  !
 --------------------------                            --------------------------
 ! Name  Definition              Value                                          !
 --------------------------------------------------------------------------------
 ! R1    R(1,2)                  1.0239                                         !
 ! R2    R(1,3)                  1.0493                                         !
 ! R3    R(1,4)                  1.0327                                         !
 ! R4    R(1,5)                  1.5118                                         !
 ! R5    R(5,6)                  1.092                                          !
 ! R6    R(5,7)                  1.5446                                         !
 ! R7    R(5,8)                  1.5484                                         !
 ! R8    R(7,11)                 1.2458                                         !
 ! R9    R(7,23)                 1.321                                          !
 ! R10   R(8,9)                  1.0966                                         !
 ! R11   R(8,10)                 1.0948                                         !
 ! R12   R(8,12)                 1.5124                                         !
 ! R13   R(12,13)                1.4024                                         !
 ! R14   R(12,15)                1.4045                                         !
 ! R15   R(13,14)                1.088                                          !
 ! R16   R(13,17)                1.394                                          !
 ! R17   R(15,16)                1.0893                                         !
 ! R18   R(15,19)                1.3992                                         !
 ! R19   R(17,18)                1.0859                                         !
 ! R20   R(17,21)                1.3988                                         !
 ! R21   R(19,20)                1.0859                                         !
 ! R22   R(19,21)                1.3946                                         !
 ! R23   R(21,22)                1.0857                                         !
 ! R24   R(23,24)                1.0294                                         !
 ! R25   R(23,25)                1.4657                                         !
 ! R26   R(25,26)                1.0968                                         !
 ! R27   R(25,27)                1.5515                                         !
 ! R28   R(25,28)                1.5515                                         !
 ! R29   R(27,31)                1.2381                                         !
 ! R30   R(27,34)                1.3345                                         !
 ! R31   R(28,29)                1.0937                                         !
 ! R32   R(28,30)                1.1031                                         !
 ! R33   R(28,32)                1.4045                                         !
 ! R34   R(32,33)                0.9738                                         !
 ! R35   R(34,35)                1.0192                                         !
 ! R36   R(34,36)                1.4541                                         !
 ! R37   R(36,37)                1.0946                                         !
 ! R38   R(36,38)                1.5316                                         !
 ! R39   R(36,39)                1.5594                                         !
 ! R40   R(38,42)                1.2303                                         !
 ! R41   R(38,45)                1.3591                                         !
 ! R42   R(39,40)                1.0988                                         !
 ! R43   R(39,41)                1.0945                                         !
 ! R44   R(39,43)                1.4089                                         !
 ! R45   R(43,44)                0.9833                                         !
 ! R46   R(45,46)                1.0166                                         !
 ! R47   R(45,47)                1.4541                                         !
 ! R48   R(47,48)                1.0918                                         !
 ! R49   R(47,49)                1.5516                                         !
 ! R50   R(47,50)                1.5448                                         !
 ! R51   R(49,53)                1.2304                                         !
 ! R52   R(49,57)                1.3595                                         !
 ! R53   R(50,51)                1.097                                          !
 ! R54   R(50,52)                1.096                                          !
 ! R55   R(50,54)                1.5459                                         !
 ! R56   R(54,55)                1.2492                                         !
 ! R57   R(54,56)                1.283                                          !
 ! R58   R(57,58)                1.0228                                         !
 ! R59   R(57,59)                1.4744                                         !
 ! R60   R(59,60)                1.0917                                         !
 ! R61   R(59,61)                1.5444                                         !
 ! R62   R(59,62)                1.5414                                         !
 ! R63   R(61,65)                1.2027                                         !
 ! R64   R(61,81)                1.3703                                         !
 ! R65   R(62,63)                1.0957                                         !
 ! R66   R(62,64)                1.0948                                         !
 ! R67   R(62,66)                1.5461                                         !
 ! R68   R(66,67)                1.0947                                         !
 ! R69   R(66,68)                1.0962                                         !
 ! R70   R(66,69)                1.5415                                         !
 ! R71   R(69,70)                1.0969                                         !
 ! R72   R(69,71)                1.0968                                         !
 ! R73   R(69,72)                1.4695                                         !
 ! R74   R(72,73)                1.0243                                         !
 ! R75   R(72,80)                1.3362                                         !
 ! R76   R(74,75)                1.0094                                         !
 ! R77   R(74,76)                1.0096                                         !
 ! R78   R(74,80)                1.3589                                         !
 ! R79   R(77,78)                1.0573                                         !
 ! R80   R(77,79)                1.0104                                         !
 ! R81   R(77,80)                1.3303                                         !
 ! R82   R(81,82)                1.0036                                         !
 ! A1    A(2,1,3)              107.9824                                         !
 ! A2    A(2,1,4)              108.8546                                         !
 ! A3    A(2,1,5)              112.8416                                         !
 ! A4    A(3,1,4)              112.5637                                         !
 ! A5    A(3,1,5)              103.5991                                         !
 ! A6    A(4,1,5)              110.945                                          !
 ! A7    A(1,5,6)              108.0701                                         !
 ! A8    A(1,5,7)              104.038                                          !
 ! A9    A(1,5,8)              109.5932                                         !
 ! A10   A(6,5,7)              112.7176                                         !
 ! A11   A(6,5,8)              110.5976                                         !
 ! A12   A(7,5,8)              111.5392                                         !
 ! A13   A(5,7,11)             117.0225                                         !
 ! A14   A(5,7,23)             115.4603                                         !
 ! A15   A(11,7,23)            127.4514                                         !
 ! A16   A(5,8,9)              108.5906                                         !
 ! A17   A(5,8,10)             106.8291                                         !
 ! A18   A(5,8,12)             111.5319                                         !
 ! A19   A(9,8,10)             106.9609                                         !
 ! A20   A(9,8,12)             110.9834                                         !
 ! A21   A(10,8,12)            111.7272                                         !
 ! A22   A(8,12,13)            120.587                                          !
 ! A23   A(8,12,15)            120.2155                                         !
 ! A24   A(13,12,15)           119.0704                                         !
 ! A25   A(12,13,14)           119.7856                                         !
 ! A26   A(12,13,17)           120.3872                                         !
 ! A27   A(14,13,17)           119.8188                                         !
 ! A28   A(12,15,16)           119.8073                                         !
 ! A29   A(12,15,19)           120.4846                                         !
 ! A30   A(16,15,19)           119.6433                                         !
 ! A31   A(13,17,18)           119.7568                                         !
 ! A32   A(13,17,21)           120.2165                                         !
 ! A33   A(18,17,21)           120.0258                                         !
 ! A34   A(15,19,20)           119.7883                                         !
 ! A35   A(15,19,21)           119.9266                                         !
 ! A36   A(20,19,21)           120.2781                                         !
 ! A37   A(17,21,19)           119.9125                                         !
 ! A38   A(17,21,22)           120.0105                                         !
 ! A39   A(19,21,22)           120.0736                                         !
 ! A40   A(7,23,24)            122.2435                                         !
 ! A41   A(7,23,25)            127.9149                                         !
 ! A42   A(24,23,25)           109.8156                                         !
 ! A43   A(23,25,26)           109.5856                                         !
 ! A44   A(23,25,27)           103.0333                                         !
 ! A45   A(23,25,28)           113.7414                                         !
 ! A46   A(26,25,27)           109.3767                                         !
 ! A47   A(26,25,28)           107.092                                          !
 ! A48   A(27,25,28)           113.9352                                         !
 ! A49   A(25,27,31)           119.6291                                         !
 ! A50   A(25,27,34)           115.7927                                         !
 ! A51   A(31,27,34)           124.5771                                         !
 ! A52   A(25,28,29)           108.8767                                         !
 ! A53   A(25,28,30)           108.1821                                         !
 ! A54   A(25,28,32)           112.7829                                         !
 ! A55   A(29,28,30)           107.2038                                         !
 ! A56   A(29,28,32)           106.2158                                         !
 ! A57   A(30,28,32)           113.3485                                         !
 ! A58   A(28,32,33)           107.8794                                         !
 ! A59   A(27,34,35)           122.8916                                         !
 ! A60   A(27,34,36)           123.8019                                         !
 ! A61   A(35,34,36)           113.2686                                         !
 ! A62   A(34,36,37)           109.7843                                         !
 ! A63   A(34,36,38)           106.1341                                         !
 ! A64   A(34,36,39)           111.2844                                         !
 ! A65   A(37,36,38)           111.457                                          !
 ! A66   A(37,36,39)           108.1565                                         !
 ! A67   A(38,36,39)           110.048                                          !
 ! A68   A(36,38,42)           120.8016                                         !
 ! A69   A(36,38,45)           114.73                                           !
 ! A70   A(42,38,45)           124.431                                          !
 ! A71   A(36,39,40)           108.2438                                         !
 ! A72   A(36,39,41)           107.2113                                         !
 ! A73   A(36,39,43)           111.8154                                         !
 ! A74   A(40,39,41)           108.728                                          !
 ! A75   A(40,39,43)           112.089                                          !
 ! A76   A(41,39,43)           108.5969                                         !
 ! A77   A(39,43,44)           106.7888                                         !
 ! A78   A(38,45,46)           114.2579                                         !
 ! A79   A(38,45,47)           119.2252                                         !
 ! A80   A(46,45,47)           115.5399                                         !
 ! A81   A(45,47,48)           108.7512                                         !
 ! A82   A(45,47,49)           109.3642                                         !
 ! A83   A(45,47,50)           110.404                                          !
 ! A84   A(48,47,49)           109.6774                                         !
 ! A85   A(48,47,50)           108.9327                                         !
 ! A86   A(49,47,50)           109.6934                                         !
 ! A87   A(47,49,53)           122.8812                                         !
 ! A88   A(47,49,57)           113.2446                                         !
 ! A89   A(53,49,57)           123.7273                                         !
 ! A90   A(47,50,51)           107.9689                                         !
 ! A91   A(47,50,52)           110.8495                                         !
 ! A92   A(47,50,54)           113.8606                                         !
 ! A93   A(51,50,52)           107.0617                                         !
 ! A94   A(51,50,54)           107.4864                                         !
 ! A95   A(52,50,54)           109.3283                                         !
 ! A96   A(50,54,55)           118.8193                                         !
 ! A97   A(50,54,56)           116.0197                                         !
 ! A98   A(55,54,56)           125.1477                                         !
 ! A99   A(49,57,58)           113.8322                                         !
 ! A100  A(49,57,59)           123.8561                                         !
 ! A101  A(58,57,59)           114.6498                                         !
 ! A102  A(57,59,60)           109.4087                                         !
 ! A103  A(57,59,61)           103.7406                                         !
 ! A104  A(57,59,62)           105.8844                                         !
 ! A105  A(60,59,61)           107.5366                                         !
 ! A106  A(60,59,62)           113.1543                                         !
 ! A107  A(61,59,62)           116.5432                                         !
 ! A108  A(59,61,65)           123.3845                                         !
 ! A109  A(59,61,81)           113.1421                                         !
 ! A110  A(65,61,81)           123.026                                          !
 ! A111  A(59,62,63)           106.373                                          !
 ! A112  A(59,62,64)           107.6616                                         !
 ! A113  A(59,62,66)           117.6282                                         !
 ! A114  A(63,62,64)           106.0008                                         !
 ! A115  A(63,62,66)           107.9216                                         !
 ! A116  A(64,62,66)           110.5919                                         !
 ! A117  A(62,66,67)           111.3213                                         !
 ! A118  A(62,66,68)           111.6019                                         !
 ! A119  A(62,66,69)           111.1272                                         !
 ! A120  A(67,66,68)           106.0778                                         !
 ! A121  A(67,66,69)           108.0125                                         !
 ! A122  A(68,66,69)           108.4894                                         !
 ! A123  A(66,69,70)           110.2601                                         !
 ! A124  A(66,69,71)           109.7384                                         !
 ! A125  A(66,69,72)           109.4174                                         !
 ! A126  A(70,69,71)           108.1343                                         !
 ! A127  A(70,69,72)           110.1115                                         !
 ! A128  A(71,69,72)           109.1562                                         !
 ! A129  A(69,72,73)           113.9747                                         !
 ! A130  A(69,72,80)           126.6299                                         !
 ! A131  A(73,72,80)           115.2575                                         !
 ! A132  A(75,74,76)           115.7362                                         !
 ! A133  A(75,74,80)           119.3422                                         !
 ! A134  A(76,74,80)           119.1781                                         !
 ! A135  A(78,77,79)           114.877                                          !
 ! A136  A(78,77,80)           122.3594                                         !
 ! A137  A(79,77,80)           118.7857                                         !
 ! A138  A(72,80,74)           119.1562                                         !
 ! A139  A(72,80,77)           120.0254                                         !
 ! A140  A(74,80,77)           120.8145                                         !
 ! A141  A(61,81,82)           112.9747                                         !
 ! D1    D(2,1,5,6)             26.0243                                         !
 ! D2    D(2,1,5,7)            -93.9962                                         !
 ! D3    D(2,1,5,8)            146.6173                                         !
 ! D4    D(3,1,5,6)            142.5471                                         !
 ! D5    D(3,1,5,7)             22.5266                                         !
 ! D6    D(3,1,5,8)            -96.8599                                         !
 ! D7    D(4,1,5,6)            -96.4352                                         !
 ! D8    D(4,1,5,7)            143.5443                                         !
 ! D9    D(4,1,5,8)             24.1578                                         !
 ! D10   D(1,5,7,11)           -18.505                                          !
 ! D11   D(1,5,7,23)           164.222                                          !
 ! D12   D(6,5,7,11)          -135.3322                                         !
 ! D13   D(6,5,7,23)            47.3947                                         !
 ! D14   D(8,5,7,11)            99.5489                                         !
 ! D15   D(8,5,7,23)           -77.7241                                         !
 ! D16   D(1,5,8,9)             69.3318                                         !
 ! D17   D(1,5,8,10)          -175.6259                                         !
 ! D18   D(1,5,8,12)           -53.2747                                         !
 ! D19   D(6,5,8,9)           -171.6227                                         !
 ! D20   D(6,5,8,10)           -56.5804                                         !
 ! D21   D(6,5,8,12)            65.7709                                         !
 ! D22   D(7,5,8,9)            -45.3324                                         !
 ! D23   D(7,5,8,10)            69.7099                                         !
 ! D24   D(7,5,8,12)          -167.9389                                         !
 ! D25   D(5,7,23,24)           -7.7055                                         !
 ! D26   D(5,7,23,25)          174.342                                          !
 ! D27   D(11,7,23,24)         175.3548                                         !
 ! D28   D(11,7,23,25)          -2.5977                                         !
 ! D29   D(5,8,12,13)          -76.821                                          !
 ! D30   D(5,8,12,15)           99.0428                                         !
 ! D31   D(9,8,12,13)          161.9549                                         !
 ! D32   D(9,8,12,15)          -22.1813                                         !
 ! D33   D(10,8,12,13)          42.6689                                         !
 ! D34   D(10,8,12,15)        -141.4673                                         !
 ! D35   D(8,12,13,14)          -4.8422                                         !
 ! D36   D(8,12,13,17)         176.2119                                         !
 ! D37   D(15,12,13,14)        179.2472                                         !
 ! D38   D(15,12,13,17)          0.3013                                         !
 ! D39   D(8,12,15,16)           7.0028                                         !
 ! D40   D(8,12,15,19)        -175.9347                                         !
 ! D41   D(13,12,15,16)       -177.071                                          !
 ! D42   D(13,12,15,19)         -0.0085                                         !
 ! D43   D(12,13,17,18)        179.0998                                         !
 ! D44   D(12,13,17,21)         -0.5509                                         !
 ! D45   D(14,13,17,18)          0.1542                                         !
 ! D46   D(14,13,17,21)       -179.4964                                         !
 ! D47   D(12,15,19,20)       -179.0761                                         !
 ! D48   D(12,15,19,21)         -0.0357                                         !
 ! D49   D(16,15,19,20)         -2.0088                                         !
 ! D50   D(16,15,19,21)        177.0317                                         !
 ! D51   D(13,17,21,19)          0.5038                                         !
 ! D52   D(13,17,21,22)        179.8406                                         !
 ! D53   D(18,17,21,19)       -179.1459                                         !
 ! D54   D(18,17,21,22)          0.1909                                         !
 ! D55   D(15,19,21,17)         -0.2107                                         !
 ! D56   D(15,19,21,22)       -179.5471                                         !
 ! D57   D(20,19,21,17)        178.825                                          !
 ! D58   D(20,19,21,22)         -0.5114                                         !
 ! D59   D(7,23,25,26)         -64.6168                                         !
 ! D60   D(7,23,25,27)         179.0349                                         !
 ! D61   D(7,23,25,28)          55.204                                          !
 ! D62   D(24,23,25,26)        117.2238                                         !
 ! D63   D(24,23,25,27)          0.8756                                         !
 ! D64   D(24,23,25,28)       -122.9554                                         !
 ! D65   D(23,25,27,31)         -4.4162                                         !
 ! D66   D(23,25,27,34)        175.2244                                         !
 ! D67   D(26,25,27,31)       -120.9131                                         !
 ! D68   D(26,25,27,34)         58.7274                                         !
 ! D69   D(28,25,27,31)        119.2867                                         !
 ! D70   D(28,25,27,34)        -61.0728                                         !
 ! D71   D(23,25,28,29)        156.7883                                         !
 ! D72   D(23,25,28,30)         40.6008                                         !
 ! D73   D(23,25,28,32)        -85.5846                                         !
 ! D74   D(26,25,28,29)        -81.9887                                         !
 ! D75   D(26,25,28,30)        161.8238                                         !
 ! D76   D(26,25,28,32)         35.6384                                         !
 ! D77   D(27,25,28,29)         39.0925                                         !
 ! D78   D(27,25,28,30)        -77.0951                                         !
 ! D79   D(27,25,28,32)        156.7195                                         !
 ! D80   D(25,27,34,35)          1.0801                                         !
 ! D81   D(25,27,34,36)        178.6903                                         !
 ! D82   D(31,27,34,35)       -179.2994                                         !
 ! D83   D(31,27,34,36)         -1.6892                                         !
 ! D84   D(25,28,32,33)         58.4826                                         !
 ! D85   D(29,28,32,33)        177.6655                                         !
 ! D86   D(30,28,32,33)        -64.8802                                         !
 ! D87   D(27,34,36,37)        -43.0733                                         !
 ! D88   D(27,34,36,38)       -163.6536                                         !
 ! D89   D(27,34,36,39)         76.6317                                         !
 ! D90   D(35,34,36,37)        134.7425                                         !
 ! D91   D(35,34,36,38)         14.1621                                         !
 ! D92   D(35,34,36,39)       -105.5525                                         !
 ! D93   D(34,36,38,42)        -15.0857                                         !
 ! D94   D(34,36,38,45)        167.0425                                         !
 ! D95   D(37,36,38,42)       -134.5773                                         !
 ! D96   D(37,36,38,45)         47.5508                                         !
 ! D97   D(39,36,38,42)        105.433                                          !
 ! D98   D(39,36,38,45)        -72.4389                                         !
 ! D99   D(34,36,39,40)         56.1329                                         !
 ! D100  D(34,36,39,41)        -60.9981                                         !
 ! D101  D(34,36,39,43)       -179.9192                                         !
 ! D102  D(37,36,39,40)        176.8                                            !
 ! D103  D(37,36,39,41)         59.6689                                         !
 ! D104  D(37,36,39,43)        -59.2522                                         !
 ! D105  D(38,36,39,40)        -61.2301                                         !
 ! D106  D(38,36,39,41)       -178.3611                                         !
 ! D107  D(38,36,39,43)         62.7177                                         !
 ! D108  D(36,38,45,46)         12.9917                                         !
 ! D109  D(36,38,45,47)        155.5508                                         !
 ! D110  D(42,38,45,46)       -164.7921                                         !
 ! D111  D(42,38,45,47)        -22.2329                                         !
 ! D112  D(36,39,43,44)        -91.8487                                         !
 ! D113  D(40,39,43,44)         29.9118                                         !
 ! D114  D(41,39,43,44)        150.0543                                         !
 ! D115  D(38,45,47,48)         49.7174                                         !
 ! D116  D(38,45,47,49)        -70.0335                                         !
 ! D117  D(38,45,47,50)        169.1802                                         !
 ! D118  D(46,45,47,48)       -168.1828                                         !
 ! D119  D(46,45,47,49)         72.0662                                         !
 ! D120  D(46,45,47,50)        -48.7201                                         !
 ! D121  D(45,47,49,53)        -14.769                                          !
 ! D122  D(45,47,49,57)        169.4892                                         !
 ! D123  D(48,47,49,53)       -133.9487                                         !
 ! D124  D(48,47,49,57)         50.3095                                         !
 ! D125  D(50,47,49,53)        106.4488                                         !
 ! D126  D(50,47,49,57)        -69.293                                          !
 ! D127  D(45,47,50,51)        -50.4166                                         !
 ! D128  D(45,47,50,52)         66.5568                                         !
 ! D129  D(45,47,50,54)       -169.6823                                         !
 ! D130  D(48,47,50,51)         68.9363                                         !
 ! D131  D(48,47,50,52)       -174.0903                                         !
 ! D132  D(48,47,50,54)        -50.3294                                         !
 ! D133  D(49,47,50,51)       -171.0061                                         !
 ! D134  D(49,47,50,52)        -54.0328                                         !
 ! D135  D(49,47,50,54)         69.7282                                         !
 ! D136  D(47,49,57,58)         -1.0799                                         !
 ! D137  D(47,49,57,59)        146.6329                                         !
 ! D138  D(53,49,57,58)       -176.7801                                         !
 ! D139  D(53,49,57,59)        -29.0673                                         !
 ! D140  D(47,50,54,55)         29.3385                                         !
 ! D141  D(47,50,54,56)       -149.4033                                         !
 ! D142  D(51,50,54,55)        -90.2008                                         !
 ! D143  D(51,50,54,56)         91.0573                                         !
 ! D144  D(52,50,54,55)        153.919                                          !
 ! D145  D(52,50,54,56)        -24.8228                                         !
 ! D146  D(49,57,59,60)         54.6591                                         !
 ! D147  D(49,57,59,61)        -59.8624                                         !
 ! D148  D(49,57,59,62)        176.9156                                         !
 ! D149  D(58,57,59,60)       -157.8618                                         !
 ! D150  D(58,57,59,61)         87.6167                                         !
 ! D151  D(58,57,59,62)        -35.6053                                         !
 ! D152  D(57,59,61,65)         87.127                                          !
 ! D153  D(57,59,61,81)        -85.395                                          !
 ! D154  D(60,59,61,65)        -28.7244                                         !
 ! D155  D(60,59,61,81)        158.7536                                         !
 ! D156  D(62,59,61,65)       -156.9537                                         !
 ! D157  D(62,59,61,81)         30.5243                                         !
 ! D158  D(57,59,62,63)         36.7016                                         !
 ! D159  D(57,59,62,64)        -76.5682                                         !
 ! D160  D(57,59,62,66)        157.7511                                         !
 ! D161  D(60,59,62,63)        156.5337                                         !
 ! D162  D(60,59,62,64)         43.2639                                         !
 ! D163  D(60,59,62,66)        -82.4167                                         !
 ! D164  D(61,59,62,63)        -78.0194                                         !
 ! D165  D(61,59,62,64)        168.7108                                         !
 ! D166  D(61,59,62,66)         43.0302                                         !
 ! D167  D(59,61,81,82)        115.4383                                         !
 ! D168  D(65,61,81,82)        -57.1144                                         !
 ! D169  D(59,62,66,67)        107.5404                                         !
 ! D170  D(59,62,66,68)        -10.7733                                         !
 ! D171  D(59,62,66,69)       -132.0164                                         !
 ! D172  D(63,62,66,67)       -132.2166                                         !
 ! D173  D(63,62,66,68)        109.4698                                         !
 ! D174  D(63,62,66,69)        -11.7734                                         !
 ! D175  D(64,62,66,67)        -16.6862                                         !
 ! D176  D(64,62,66,68)       -134.9998                                         !
 ! D177  D(64,62,66,69)        103.757                                          !
 ! D178  D(62,66,69,70)       -177.2265                                         !
 ! D179  D(62,66,69,71)        -58.2188                                         !
 ! D180  D(62,66,69,72)         61.5256                                         !
 ! D181  D(67,66,69,70)        -54.8464                                         !
 ! D182  D(67,66,69,71)         64.1612                                         !
 ! D183  D(67,66,69,72)       -176.0943                                         !
 ! D184  D(68,66,69,70)         59.723                                          !
 ! D185  D(68,66,69,71)        178.7307                                         !
 ! D186  D(68,66,69,72)        -61.5249                                         !
 ! D187  D(66,69,72,73)         17.5825                                         !
 ! D188  D(66,69,72,80)       -138.2736                                         !
 ! D189  D(70,69,72,73)       -103.7554                                         !
 ! D190  D(70,69,72,80)        100.3885                                         !
 ! D191  D(71,69,72,73)        137.6841                                         !
 ! D192  D(71,69,72,80)        -18.172                                          !
 ! D193  D(69,72,80,74)        -20.9736                                         !
 ! D194  D(69,72,80,77)        159.7407                                         !
 ! D195  D(73,72,80,74)       -176.5645                                         !
 ! D196  D(73,72,80,77)          4.1497                                         !
 ! D197  D(75,74,80,72)       -177.9682                                         !
 ! D198  D(75,74,80,77)          1.3118                                         !
 ! D199  D(76,74,80,72)        -25.7882                                         !
 ! D200  D(76,74,80,77)        153.4918                                         !
 ! D201  D(78,77,80,72)        -24.816                                          !
 ! D202  D(78,77,80,74)        155.9103                                         !
 ! D203  D(79,77,80,72)        178.7845                                         !
 ! D204  D(79,77,80,74)         -0.4892                                         !
 --------------------------------------------------------------------------------
 Symmetry turned off by external request.
 Stoichiometry    C25H39N8O10(1+)
 Framework group  C1[X(C25H39N8O10)]
 Deg. of freedom   240
 Full point group                 C1      NOp   1
                          Input orientation:                          
 ---------------------------------------------------------------------
 Center     Atomic      Atomic             Coordinates (Angstroms)
 Number     Number       Type             X           Y           Z
 ---------------------------------------------------------------------
      1          7           0       -6.139978   -3.187335   -4.513632
      2          1           0       -6.181736   -2.850295   -5.479575
      3          1           0       -5.517729   -4.031902   -4.491846
      4          1           0       -7.098860   -3.393180   -4.190252
      5          6           0       -5.452482   -2.215153   -3.582049
      6          1           0       -5.561122   -1.211884   -3.999196
      7          6           0       -3.984486   -2.694897   -3.556721
      8          6           0       -6.100786   -2.294509   -2.178135
      9          1           0       -5.844472   -3.261424   -1.728857
     10          1           0       -5.625556   -1.521610   -1.565394
     11          8           0       -3.763087   -3.859912   -3.938393
     12          6           0       -7.600329   -2.110232   -2.247956
     13          6           0       -8.155036   -0.834477   -2.425528
     14          1           0       -7.507586    0.039875   -2.434877
     15          6           0       -8.451650   -3.227007   -2.222387
     16          1           0       -8.039257   -4.218101   -2.037490
     17          6           0       -9.532938   -0.678271   -2.568147
     18          1           0       -9.952882    0.315674   -2.690419
     19          6           0       -9.833879   -3.069430   -2.371762
     20          1           0      -10.483063   -3.939131   -2.335175
     21          6           0      -10.374019   -1.795693   -2.546783
     22          1           0      -11.446922   -1.669945   -2.655564
     23          7           0       -3.112039   -1.828100   -3.074632
     24          1           0       -3.370132   -0.857940   -2.847109
     25          6           0       -1.683440   -2.034877   -2.820334
     26          1           0       -1.555292   -2.789180   -2.034501
     27          6           0       -1.219183   -0.653335   -2.288372
     28          6           0       -0.893417   -2.529697   -4.060561
     29          1           0        0.161366   -2.269186   -3.935250
     30          1           0       -1.261947   -1.982124   -4.944372
     31          8           0       -2.017937    0.292256   -2.261845
     32          8           0       -0.937400   -3.925300   -4.212149
     33          1           0       -1.871892   -4.188446   -4.288464
     34          7           0        0.048764   -0.585458   -1.877614
     35          1           0        0.687745   -1.378354   -1.920716
     36          6           0        0.672021    0.627816   -1.373791
     37          1           0        0.388957    1.478216   -2.002195
     38          6           0        2.182736    0.378995   -1.415069
     39          6           0        0.220004    0.931643    0.087445
     40          1           0        0.451407    0.055159    0.708373
     41          1           0       -0.865250    1.071992    0.068161
     42          8           0        2.630318   -0.758767   -1.552468
     43          8           0        0.816210    2.106642    0.586315
     44          1           0        1.643830    1.833867    1.041771
     45          7           0        2.946842    1.489964   -1.244294
     46          1           0        2.435155    2.300981   -0.906854
     47          6           0        4.302290    1.348320   -0.737187
     48          1           0        4.816124    0.580252   -1.318711
     49          6           0        4.251818    0.927238    0.755314
     50          6           0        5.071410    2.680792   -0.876431
     51          1           0        4.952333    3.034060   -1.908128
     52          1           0        4.643033    3.448689   -0.222119
     53          8           0        3.231167    1.007336    1.437851
     54          6           0        6.587400    2.559736   -0.598942
     55          8           0        7.159006    1.475398   -0.839922
     56          8           0        7.154322    3.600124   -0.106735
     57          7           0        5.462149    0.552645    1.248344
     58          1           0        6.217704    0.587700    0.559803
     59          6           0        5.888300    0.781589    2.641083
     60          1           0        5.149926    0.353014    3.321506
     61          6           0        5.827524    2.316988    2.795608
     62          6           0        7.279768    0.131004    2.768856
     63          1           0        7.790690    0.304729    1.815274
     64          1           0        7.134850   -0.951751    2.840699
     65          8           0        4.832325    2.910895    3.117138
     66          6           0        8.204262    0.632268    3.902163
     67          1           0        8.290171   -0.109112    4.702989
     68          1           0        7.811072    1.541623    4.371230
     69          6           0        9.621454    0.928716    3.372974
     70          1           0       10.277871    1.235702    4.196398
     71          1           0       10.043905    0.024281    2.918668
     72          7           0        9.552254    1.990345    2.359250
     73          1           0        8.682701    2.531281    2.381748
     74          7           0       11.348318    1.288298    1.062203
     75          1           0       11.872588    1.342406    0.201309
     76          1           0       11.879219    1.038614    1.883855
     77          7           0        9.788961    2.810002    0.213074
     78          1           0        8.776485    3.100673    0.122322
     79          1           0       10.319208    2.842553   -0.646417
     80          6           0       10.220814    2.033527    1.203163
     81          8           0        6.969470    2.946291    2.374136
     82          1           0        6.818383    3.542105    1.580761
 ---------------------------------------------------------------------
 Rotational constants (GHZ):           0.2219505           0.0185662           0.0180578
 Standard basis: 6-31G(d) (6D, 7F)
   723 basis functions,  1360 primitive gaussians,   723 cartesian basis functions
   162 alpha electrons      162 beta electrons
       nuclear repulsion energy      5124.1065420498 Hartrees.
 NAtoms=   82 NActive=   82 NUniq=   82 SFac= 1.00D+00 NAtFMM=   60 NAOKFM=T Big=T
 Integral buffers will be    131072 words long.
 Raffenetti 2 integral format.
 Two-electron integral symmetry is turned off.
 Nuclear repulsion after empirical dispersion term =     5123.9981443058 Hartrees.
 One-electron integrals computed using PRISM.
 NBasis=   723 RedAO= T EigKep=  4.78D-04  NBF=   723
 NBsUse=   723 1.00D-06 EigRej= -1.00D+00 NBFU=   723
 Initial guess from the checkpoint file:  "conf-962.chk"
 B after Tr=     0.000000    0.000000    0.000000
         Rot=    1.000000    0.000000    0.000000    0.000000 Ang=   0.00 deg.
 Requested convergence on RMS density matrix=1.00D-08 within 128 cycles.
 Requested convergence on MAX density matrix=1.00D-06.
 Requested convergence on             energy=1.00D-06.
 No special actions if energy rises.
 SCF Done:  E(RB3LYP) =  -2166.37842354     A.U. after    2 cycles
            NFock=  2  Conv=0.73D-08     -V/T= 2.0092

 **********************************************************************

            Population analysis using the SCF Density.

 **********************************************************************

 Alpha  occ. eigenvalues --  -19.27127 -19.23015 -19.21663 -19.21617 -19.19469
 Alpha  occ. eigenvalues --  -19.18930 -19.18607 -19.18533 -19.15716 -19.14730
 Alpha  occ. eigenvalues --  -14.60037 -14.49374 -14.46529 -14.44885 -14.44502
 Alpha  occ. eigenvalues --  -14.43383 -14.41694 -14.41289 -10.43832 -10.41518
 Alpha  occ. eigenvalues --  -10.40940 -10.38703 -10.37177 -10.35238 -10.34734
 Alpha  occ. eigenvalues --  -10.34216 -10.34061 -10.33335 -10.32654 -10.32404
 Alpha  occ. eigenvalues --  -10.31207 -10.31168 -10.30760 -10.30491 -10.30348
 Alpha  occ. eigenvalues --  -10.30088 -10.30033 -10.29947 -10.29223 -10.28797
 Alpha  occ. eigenvalues --  -10.26821 -10.26004 -10.24339  -1.19255  -1.14432
 Alpha  occ. eigenvalues --   -1.14258  -1.13538  -1.10749  -1.10077  -1.09642
 Alpha  occ. eigenvalues --   -1.09580  -1.08506  -1.06599  -1.06376  -1.05955
 Alpha  occ. eigenvalues --   -1.01393  -0.99839  -0.99645  -0.98705  -0.98390
 Alpha  occ. eigenvalues --   -0.97885  -0.97754  -0.93461  -0.88377  -0.87243
 Alpha  occ. eigenvalues --   -0.86146  -0.85848  -0.84049  -0.81857  -0.80457
 Alpha  occ. eigenvalues --   -0.79568  -0.75887  -0.75102  -0.74222  -0.73599
 Alpha  occ. eigenvalues --   -0.72731  -0.72311  -0.71909  -0.71513  -0.70350
 Alpha  occ. eigenvalues --   -0.69582  -0.69262  -0.67527  -0.66763  -0.66306
 Alpha  occ. eigenvalues --   -0.65831  -0.64547  -0.63913  -0.63520  -0.63022
 Alpha  occ. eigenvalues --   -0.62875  -0.61246  -0.60517  -0.59443  -0.59229
 Alpha  occ. eigenvalues --   -0.58525  -0.58114  -0.57666  -0.57575  -0.57141
 Alpha  occ. eigenvalues --   -0.56673  -0.56575  -0.55288  -0.55067  -0.54680
 Alpha  occ. eigenvalues --   -0.54385  -0.54169  -0.53701  -0.53593  -0.53386
 Alpha  occ. eigenvalues --   -0.52809  -0.52703  -0.52529  -0.51900  -0.51335
 Alpha  occ. eigenvalues --   -0.51173  -0.50851  -0.50253  -0.49934  -0.49324
 Alpha  occ. eigenvalues --   -0.49128  -0.49000  -0.48471  -0.47913  -0.47651
 Alpha  occ. eigenvalues --   -0.47579  -0.47334  -0.46997  -0.46058  -0.45990
 Alpha  occ. eigenvalues --   -0.45710  -0.45618  -0.45258  -0.44850  -0.43356
 Alpha  occ. eigenvalues --   -0.43004  -0.42793  -0.42444  -0.41359  -0.41043
 Alpha  occ. eigenvalues --   -0.40951  -0.40699  -0.40209  -0.38638  -0.38221
 Alpha  occ. eigenvalues --   -0.37376  -0.37056  -0.36879  -0.36604  -0.36383
 Alpha  occ. eigenvalues --   -0.36033  -0.34434  -0.34384  -0.33898  -0.33303
 Alpha  occ. eigenvalues --   -0.32768  -0.32004  -0.31359  -0.30844  -0.30130
 Alpha  occ. eigenvalues --   -0.29688  -0.28789
 Alpha virt. eigenvalues --   -0.13450  -0.12588  -0.11236  -0.10081  -0.07290
 Alpha virt. eigenvalues --   -0.06949  -0.06003  -0.04954  -0.04548  -0.03459
 Alpha virt. eigenvalues --   -0.02759  -0.02493  -0.01988  -0.01581  -0.01149
 Alpha virt. eigenvalues --   -0.00557   0.01087   0.01307   0.01740   0.02207
 Alpha virt. eigenvalues --    0.03037   0.03194   0.03621   0.04028   0.04239
 Alpha virt. eigenvalues --    0.04452   0.04532   0.05016   0.05464   0.05477
 Alpha virt. eigenvalues --    0.06048   0.06195   0.06446   0.07369   0.07603
 Alpha virt. eigenvalues --    0.08133   0.08283   0.08501   0.08969   0.09163
 Alpha virt. eigenvalues --    0.09422   0.09933   0.10180   0.10393   0.10880
 Alpha virt. eigenvalues --    0.11098   0.11615   0.11744   0.11986   0.12135
 Alpha virt. eigenvalues --    0.12594   0.13304   0.13513   0.14653   0.14889
 Alpha virt. eigenvalues --    0.15063   0.15417   0.15929   0.16131   0.16744
 Alpha virt. eigenvalues --    0.17572   0.18118   0.18551   0.19388   0.19477
 Alpha virt. eigenvalues --    0.19674   0.19987   0.20225   0.20560   0.20903
 Alpha virt. eigenvalues --    0.20996   0.21793   0.22398   0.22870   0.23736
 Alpha virt. eigenvalues --    0.23913   0.24425   0.27354   0.28623   0.29272
 Alpha virt. eigenvalues --    0.29368   0.30720   0.31141   0.32090   0.32114
 Alpha virt. eigenvalues --    0.32892   0.33378   0.34467   0.35191   0.36044
 Alpha virt. eigenvalues --    0.36529   0.38404   0.39184   0.39765   0.41559
 Alpha virt. eigenvalues --    0.42136   0.42409   0.42742   0.43227   0.43617
 Alpha virt. eigenvalues --    0.43979   0.44471   0.44734   0.45027   0.45612
 Alpha virt. eigenvalues --    0.46035   0.46543   0.47105   0.47295   0.47628
 Alpha virt. eigenvalues --    0.47993   0.48159   0.48314   0.48543   0.48965
 Alpha virt. eigenvalues --    0.49170   0.49454   0.50191   0.50531   0.50858
 Alpha virt. eigenvalues --    0.51137   0.51296   0.51882   0.52051   0.52718
 Alpha virt. eigenvalues --    0.53395   0.53695   0.54096   0.54264   0.54397
 Alpha virt. eigenvalues --    0.55344   0.55521   0.55978   0.56244   0.56639
 Alpha virt. eigenvalues --    0.57470   0.57789   0.58052   0.58196   0.58446
 Alpha virt. eigenvalues --    0.58924   0.59843   0.60215   0.61186   0.61453
 Alpha virt. eigenvalues --    0.61838   0.62300   0.62781   0.63041   0.63223
 Alpha virt. eigenvalues --    0.63793   0.64677   0.64820   0.65175   0.65444
 Alpha virt. eigenvalues --    0.65729   0.65805   0.66281   0.67005   0.67681
 Alpha virt. eigenvalues --    0.68035   0.68446   0.68927   0.69865   0.70548
 Alpha virt. eigenvalues --    0.71060   0.71154   0.71469   0.71933   0.72188
 Alpha virt. eigenvalues --    0.72439   0.72892   0.73586   0.73713   0.74251
 Alpha virt. eigenvalues --    0.74427   0.75124   0.75454   0.75521   0.75889
 Alpha virt. eigenvalues --    0.76520   0.76962   0.77300   0.77633   0.77866
 Alpha virt. eigenvalues --    0.77978   0.78307   0.78414   0.78764   0.79105
 Alpha virt. eigenvalues --    0.79655   0.80028   0.80198   0.80639   0.80947
 Alpha virt. eigenvalues --    0.81142   0.81571   0.81727   0.82460   0.82650
 Alpha virt. eigenvalues --    0.82990   0.83246   0.83426   0.83644   0.84222
 Alpha virt. eigenvalues --    0.84396   0.85220   0.85835   0.86325   0.86569
 Alpha virt. eigenvalues --    0.86985   0.87362   0.87957   0.88154   0.88224
 Alpha virt. eigenvalues --    0.88589   0.88835   0.89633   0.89987   0.91187
 Alpha virt. eigenvalues --    0.91992   0.92675   0.93281   0.93696   0.93823
 Alpha virt. eigenvalues --    0.94512   0.94995   0.96197   0.96548   0.98050
 Alpha virt. eigenvalues --    0.98419   0.98794   0.99521   1.00305   1.01065
 Alpha virt. eigenvalues --    1.01212   1.01569   1.02585   1.02973   1.03561
 Alpha virt. eigenvalues --    1.05120   1.05358   1.05533   1.05832   1.06609
 Alpha virt. eigenvalues --    1.07379   1.07633   1.08014   1.08712   1.08892
 Alpha virt. eigenvalues --    1.09946   1.10380   1.10776   1.11502   1.12027
 Alpha virt. eigenvalues --    1.13177   1.13693   1.13968   1.14501   1.16004
 Alpha virt. eigenvalues --    1.16556   1.16938   1.17365   1.19049   1.19841
 Alpha virt. eigenvalues --    1.19998   1.20574   1.21393   1.22013   1.23273
 Alpha virt. eigenvalues --    1.23789   1.24276   1.25668   1.26541   1.27281
 Alpha virt. eigenvalues --    1.27516   1.28439   1.29245   1.29722   1.30249
 Alpha virt. eigenvalues --    1.31687   1.32039   1.32572   1.33294   1.33735
 Alpha virt. eigenvalues --    1.34641   1.35019   1.35796   1.35915   1.36557
 Alpha virt. eigenvalues --    1.37604   1.38038   1.38341   1.39064   1.39594
 Alpha virt. eigenvalues --    1.39717   1.40345   1.41462   1.41688   1.42897
 Alpha virt. eigenvalues --    1.43643   1.44231   1.45588   1.46538   1.47949
 Alpha virt. eigenvalues --    1.48701   1.49705   1.50122   1.51177   1.52541
 Alpha virt. eigenvalues --    1.52764   1.53856   1.54251   1.56607   1.57134
 Alpha virt. eigenvalues --    1.57568   1.58210   1.58493   1.59173   1.59571
 Alpha virt. eigenvalues --    1.61010   1.61082   1.61413   1.61704   1.63497
 Alpha virt. eigenvalues --    1.63666   1.64126   1.64698   1.65596   1.66021
 Alpha virt. eigenvalues --    1.66737   1.67141   1.67875   1.67940   1.68291
 Alpha virt. eigenvalues --    1.68683   1.69053   1.69649   1.70123   1.71625
 Alpha virt. eigenvalues --    1.71942   1.72409   1.73133   1.73296   1.73652
 Alpha virt. eigenvalues --    1.73978   1.75244   1.75399   1.75756   1.76505
 Alpha virt. eigenvalues --    1.76919   1.77601   1.78133   1.78705   1.78837
 Alpha virt. eigenvalues --    1.79197   1.79527   1.79792   1.80059   1.80998
 Alpha virt. eigenvalues --    1.81437   1.81558   1.82279   1.83112   1.83444
 Alpha virt. eigenvalues --    1.84084   1.84388   1.85082   1.85329   1.85950
 Alpha virt. eigenvalues --    1.86271   1.86721   1.87151   1.87474   1.88425
 Alpha virt. eigenvalues --    1.89209   1.89932   1.90145   1.90735   1.91007
 Alpha virt. eigenvalues --    1.91479   1.92232   1.93020   1.93485   1.93848
 Alpha virt. eigenvalues --    1.94462   1.94607   1.95773   1.96526   1.96753
 Alpha virt. eigenvalues --    1.96902   1.97005   1.97988   1.98356   1.99787
 Alpha virt. eigenvalues --    2.00567   2.00632   2.01514   2.02414   2.02533
 Alpha virt. eigenvalues --    2.02984   2.03218   2.03878   2.04546   2.04972
 Alpha virt. eigenvalues --    2.05698   2.06290   2.06429   2.07054   2.07907
 Alpha virt. eigenvalues --    2.09257   2.09602   2.10150   2.10530   2.13711
 Alpha virt. eigenvalues --    2.13964   2.14655   2.15511   2.15561   2.16681
 Alpha virt. eigenvalues --    2.17303   2.17669   2.19029   2.19796   2.20447
 Alpha virt. eigenvalues --    2.20623   2.22061   2.22601   2.23859   2.24931
 Alpha virt. eigenvalues --    2.25639   2.26824   2.27633   2.27726   2.28571
 Alpha virt. eigenvalues --    2.29518   2.30515   2.30629   2.31068   2.31447
 Alpha virt. eigenvalues --    2.32044   2.33420   2.34401   2.35564   2.36243
 Alpha virt. eigenvalues --    2.36706   2.37927   2.39138   2.40480   2.40759
 Alpha virt. eigenvalues --    2.42114   2.42456   2.43014   2.43951   2.44499
 Alpha virt. eigenvalues --    2.45402   2.46522   2.46833   2.47077   2.47298
 Alpha virt. eigenvalues --    2.49149   2.49821   2.50190   2.51450   2.52834
 Alpha virt. eigenvalues --    2.53408   2.53485   2.54308   2.54375   2.55328
 Alpha virt. eigenvalues --    2.55916   2.55953   2.57632   2.58526   2.59478
 Alpha virt. eigenvalues --    2.60699   2.60937   2.62343   2.63266   2.63661
 Alpha virt. eigenvalues --    2.64441   2.64989   2.65507   2.65674   2.66766
 Alpha virt. eigenvalues --    2.67577   2.68658   2.70616   2.73589   2.74562
 Alpha virt. eigenvalues --    2.76307   2.77440   2.77957   2.79877   2.81238
 Alpha virt. eigenvalues --    2.81783   2.82567   2.83422   2.86126   2.87636
 Alpha virt. eigenvalues --    2.88305   2.90490   2.91434   2.92116   2.93274
 Alpha virt. eigenvalues --    2.94183   2.94449   2.95165   2.97094   3.00479
 Alpha virt. eigenvalues --    3.02763   3.04277   3.04800   3.09378   3.09868
 Alpha virt. eigenvalues --    3.13339   3.15035   3.28826   3.66586   3.71828
 Alpha virt. eigenvalues --    3.76668   3.81920   3.86209   3.90477   3.90673
 Alpha virt. eigenvalues --    3.93654   3.97832   3.98424   3.98871   4.00238
 Alpha virt. eigenvalues --    4.01130   4.02535   4.05271   4.05655   4.07106
 Alpha virt. eigenvalues --    4.08607   4.10708   4.14384   4.15336   4.17965
 Alpha virt. eigenvalues --    4.21355   4.22015   4.22904   4.23940   4.27399
 Alpha virt. eigenvalues --    4.28053   4.30032   4.30577   4.32910   4.35390
 Alpha virt. eigenvalues --    4.37774   4.40599   4.45328   4.46721   4.47033
 Alpha virt. eigenvalues --    4.52841   4.56063   4.57273   4.59024   4.63000
 Alpha virt. eigenvalues --    4.68789
          Condensed to atoms (all electrons):
 Mulliken charges:
               1
     1  N   -0.747567
     2  H    0.417787
     3  H    0.427678
     4  H    0.406484
     5  C   -0.117016
     6  H    0.217416
     7  C    0.667297
     8  C   -0.382599
     9  H    0.196009
    10  H    0.213378
    11  O   -0.568946
    12  C    0.137148
    13  C   -0.181488
    14  H    0.151198
    15  C   -0.233385
    16  H    0.152915
    17  C   -0.122151
    18  H    0.170351
    19  C   -0.119446
    20  H    0.169037
    21  C   -0.123720
    22  H    0.170992
    23  N   -0.624443
    24  H    0.378369
    25  C   -0.070986
    26  H    0.205794
    27  C    0.623758
    28  C   -0.030892
    29  H    0.180154
    30  H    0.135815
    31  O   -0.550098
    32  O   -0.621847
    33  H    0.423292
    34  N   -0.625130
    35  H    0.369288
    36  C   -0.069571
    37  H    0.188951
    38  C    0.608938
    39  C   -0.035546
    40  H    0.147582
    41  H    0.166055
    42  O   -0.535867
    43  O   -0.646884
    44  H    0.445766
    45  N   -0.600473
    46  H    0.345828
    47  C   -0.075382
    48  H    0.211384
    49  C    0.631956
    50  C   -0.374559
    51  H    0.188866
    52  H    0.168711
    53  O   -0.536648
    54  C    0.585717
    55  O   -0.565801
    56  O   -0.631180
    57  N   -0.641062
    58  H    0.388700
    59  C   -0.007191
    60  H    0.189462
    61  C    0.573685
    62  C   -0.307680
    63  H    0.165297
    64  H    0.173205
    65  O   -0.412104
    66  C   -0.306487
    67  H    0.169279
    68  H    0.176636
    69  C   -0.156654
    70  H    0.172901
    71  H    0.169816
    72  N   -0.617421
    73  H    0.418418
    74  N   -0.753483
    75  H    0.364171
    76  H    0.368376
    77  N   -0.772483
    78  H    0.430652
    79  H    0.347273
    80  C    0.763158
    81  O   -0.662050
    82  H    0.453297
 Sum of Mulliken charges =   1.00000
 Mulliken charges with hydrogens summed into heavy atoms:
               1
     1  N    0.504383
     5  C    0.100399
     7  C    0.667297
     8  C    0.026787
    11  O   -0.568946
    12  C    0.137148
    13  C   -0.030290
    15  C   -0.080470
    17  C    0.048201
    19  C    0.049591
    21  C    0.047273
    23  N   -0.246074
    25  C    0.134808
    27  C    0.623758
    28  C    0.285077
    31  O   -0.550098
    32  O   -0.198555
    34  N   -0.255843
    36  C    0.119380
    38  C    0.608938
    39  C    0.278092
    42  O   -0.535867
    43  O   -0.201119
    45  N   -0.254645
    47  C    0.136002
    49  C    0.631956
    50  C   -0.016982
    53  O   -0.536648
    54  C    0.585717
    55  O   -0.565801
    56  O   -0.631180
    57  N   -0.252362
    59  C    0.182271
    61  C    0.573685
    62  C    0.030822
    65  O   -0.412104
    66  C    0.039428
    69  C    0.186063
    72  N   -0.199003
    74  N   -0.020935
    77  N    0.005442
    80  C    0.763158
    81  O   -0.208753
 Electronic spatial extent (au):  <R**2>=          58380.0172
 Charge=              1.0000 electrons
 Dipole moment (field-independent basis, Debye):
    X=             -7.4775    Y=             -9.4469    Z=            -11.8632  Tot=             16.9084
 Quadrupole moment (field-independent basis, Debye-Ang):
   XX=            201.6408   YY=           -238.4096   ZZ=           -175.6916
   XY=             87.8463   XZ=            146.7683   YZ=             23.8871
 Traceless Quadrupole moment (field-independent basis, Debye-Ang):
   XX=            272.4609   YY=           -167.5895   ZZ=           -104.8715
   XY=             87.8463   XZ=            146.7683   YZ=             23.8871
 Octapole moment (field-independent basis, Debye-Ang**2):
  XXX=            470.8886  YYY=           -122.3467  ZZZ=            282.6667  XYY=           -590.8046
  XXY=           -231.2398  XXZ=           -121.1925  XZZ=           -612.4741  YZZ=           -164.4639
  YYZ=             62.2696  XYZ=           -304.8200
 Hexadecapole moment (field-independent basis, Debye-Ang**3):
 XXXX=          -9032.9211 YYYY=          -6854.8318 ZZZZ=          -7554.0609 XXXY=              8.2062
 XXXZ=           2407.9652 YYYX=          -6894.2383 YYYZ=          -2587.6822 ZZZX=          -5110.1535
 ZZZY=          -1998.5383 XXYY=          -9267.6644 XXZZ=          -7128.0047 YYZZ=          -2379.5562
 XXYZ=            986.9264 YYXZ=          -1789.2825 ZZXY=          -1260.4500
 N-N= 5.123998144306D+03 E-N=-1.527733193311D+04  KE= 2.146551963063D+03
 Unable to Open any file for archive entry.
 1\1\GINC-AMR-141\SP\RB3LYP\6-31G(d)\C25H39N8O10(1+)\KENGMITH\16-May-20
 22\0\\# B3LYP/6-31G* empiricaldispersion=gd3 guess=read geom=check nos
 ymm integral(ultrafinegrid)\\Candidate Structure: Conf:962 Charge calc
  in gas phase\\1,1\N,0,-6.1399777832,-3.1873347906,-4.5136315569\H,0,-
 6.1817357691,-2.8502951221,-5.4795748961\H,0,-5.5177290973,-4.03190243
 88,-4.491846072\H,0,-7.0988602705,-3.3931804819,-4.1902516793\C,0,-5.4
 524823331,-2.2151525544,-3.5820485357\H,0,-5.5611224799,-1.2118843523,
 -3.9991963991\C,0,-3.984485745,-2.6948974545,-3.5567205349\C,0,-6.1007
 857897,-2.294509251,-2.1781347386\H,0,-5.8444715583,-3.2614238884,-1.7
 288567836\H,0,-5.6255558259,-1.5216104476,-1.5653941154\O,0,-3.7630873
 461,-3.859912315,-3.9383931197\C,0,-7.6003287509,-2.1102320438,-2.2479
 562834\C,0,-8.155035717,-0.8344769581,-2.4255279071\H,0,-7.5075859064,
 0.0398752782,-2.4348765176\C,0,-8.4516501208,-3.2270072814,-2.22238739
 43\H,0,-8.0392574662,-4.2181014069,-2.037489626\C,0,-9.5329375186,-0.6
 782711741,-2.5681471894\H,0,-9.9528815153,0.3156737368,-2.6904188047\C
 ,0,-9.8338792038,-3.06943,-2.3717621029\H,0,-10.4830629219,-3.93913130
 02,-2.3351745882\C,0,-10.3740190557,-1.7956933666,-2.546782619\H,0,-11
 .4469215962,-1.6699452504,-2.6555637271\N,0,-3.1120386961,-1.828099833
 6,-3.0746318742\H,0,-3.3701316366,-0.8579403334,-2.8471091757\C,0,-1.6
 834401346,-2.0348765768,-2.8203337985\H,0,-1.5552915603,-2.7891796349,
 -2.0345008435\C,0,-1.2191834794,-0.6533354669,-2.2883721752\C,0,-0.893
 4165441,-2.5296969114,-4.0605610917\H,0,0.1613663509,-2.2691855995,-3.
 9352501255\H,0,-1.2619470833,-1.9821235842,-4.9443724158\O,0,-2.017937
 3379,0.2922564666,-2.2618452968\O,0,-0.9373995622,-3.9253001359,-4.212
 1486233\H,0,-1.8718916823,-4.188446459,-4.2884644197\N,0,0.0487640794,
 -0.5854577602,-1.8776135715\H,0,0.6877449154,-1.3783541937,-1.92071609
 41\C,0,0.6720209332,0.6278155092,-1.3737910619\H,0,0.3889572112,1.4782
 158513,-2.0021945243\C,0,2.1827358238,0.3789948224,-1.4150692784\C,0,0
 .2200038347,0.9316431362,0.0874445662\H,0,0.451406981,0.0551588669,0.7
 083732421\H,0,-0.8652497865,1.0719915537,0.0681614013\O,0,2.6303180646
 ,-0.7587672793,-1.552467899\O,0,0.8162101388,2.1066415274,0.58631515\H
 ,0,1.6438300932,1.8338674767,1.0417711149\N,0,2.9468422664,1.489964453
 6,-1.2442940201\H,0,2.435154897,2.3009807588,-0.9068541598\C,0,4.30229
 02826,1.3483196754,-0.7371868087\H,0,4.8161237698,0.5802518171,-1.3187
 10786\C,0,4.2518184176,0.927237989,0.755314216\C,0,5.0714104048,2.6807
 916394,-0.8764306734\H,0,4.9523326485,3.0340603289,-1.9081275583\H,0,4
 .6430333976,3.4486892728,-0.2221191575\O,0,3.2311668833,1.0073360519,1
 .4378513575\C,0,6.5874004739,2.5597359518,-0.5989423553\O,0,7.15900605
 24,1.4753976476,-0.8399221408\O,0,7.1543219296,3.6001236172,-0.1067354
 829\N,0,5.4621493294,0.5526453846,1.2483439187\H,0,6.2177040376,0.5877
 003338,0.5598032127\C,0,5.8883003734,0.7815890921,2.6410832118\H,0,5.1
 499255071,0.3530136623,3.3215063498\C,0,5.8275241991,2.3169879957,2.79
 56082008\C,0,7.2797681485,0.1310039055,2.7688555016\H,0,7.7906902224,0
 .3047290423,1.8152739391\H,0,7.1348500623,-0.9517509932,2.8406988532\O
 ,0,4.8323249118,2.9108953984,3.1171384074\C,0,8.2042616842,0.632268341
 3,3.9021634997\H,0,8.2901712696,-0.1091118917,4.702988629\H,0,7.811072
 0097,1.5416232908,4.3712303425\C,0,9.6214537428,0.9287164575,3.3729736
 423\H,0,10.2778711209,1.235702057,4.1963975688\H,0,10.0439052441,0.024
 281044,2.9186677291\N,0,9.5522541855,1.9903452076,2.3592503494\H,0,8.6
 827010124,2.5312806792,2.3817481257\N,0,11.3483182654,1.2882984956,1.0
 622025386\H,0,11.872587662,1.3424059933,0.2013094072\H,0,11.8792194788
 ,1.0386143066,1.8838548191\N,0,9.7889606478,2.8100020641,0.2130741587\
 H,0,8.7764848625,3.1006734843,0.122322396\H,0,10.3192076464,2.84255329
 39,-0.6464172623\C,0,10.2208144093,2.0335268589,1.2031627393\O,0,6.969
 4701707,2.9462909352,2.3741362672\H,0,6.8183825211,3.5421047089,1.5807
 613995\\Version=ES64L-G16RevC.01\HF=-2166.3784235\RMSD=7.348e-09\Dipol
 e=-5.5538461,-3.7684265,-3.3073985\Quadrupole=202.5680372,-124.5986754
 ,-77.9693618,65.3115479,109.1186633,17.7594781\PG=C01 [X(C25H39N8O10)]
 \\@
 The archive entry for this job was punched.


 LEARN FROM YESTERDAY,
 LIVE FOR TODAY,
 LOOK TO TOMORROW,
 REST THIS AFTERNOON.

           -- SNOOPY
 Job cpu time:       0 days  0 hours  2 minutes 30.9 seconds.
 Elapsed time:       0 days  0 hours  0 minutes 38.3 seconds.
 File lengths (MBytes):  RWF=    384 Int=      0 D2E=      0 Chk=     56 Scr=     16
 Normal termination of Gaussian 16 at Mon May 16 19:20:09 2022.
