 Entering Gaussian System, Link 0=/opt/software/Gaussian/g16-AVX2-C.01/g16/g16
 Input=charge-conf-962.com
 Output=charge-conf-962.log
 Initial command:
 /opt/software/Gaussian/g16-AVX2-C.01/g16/l1.exe "/mnt/gs18/scratch/users/kengmith/Gau-4492.inp" -scrdir="/mnt/gs18/scratch/users/kengmith/"
 Entering Link 1 = /opt/software/Gaussian/g16-AVX2-C.01/g16/l1.exe PID=      4509.
  
 Copyright (c) 1988-2019, Gaussian, Inc.  All Rights Reserved.
  
 This is part of the Gaussian(R) 16 program.  It is based on
 the Gaussian(R) 09 system (copyright 2009, Gaussian, Inc.),
 the Gaussian(R) 03 system (copyright 2003, Gaussian, Inc.),
 the Gaussian(R) 98 system (copyright 1998, Gaussian, Inc.),
 the Gaussian(R) 94 system (copyright 1995, Gaussian, Inc.),
 the Gaussian 92(TM) system (copyright 1992, Gaussian, Inc.),
 the Gaussian 90(TM) system (copyright 1990, Gaussian, Inc.),
 the Gaussian 88(TM) system (copyright 1988, Gaussian, Inc.),
 the Gaussian 86(TM) system (copyright 1986, Carnegie Mellon
 University), and the Gaussian 82(TM) system (copyright 1983,
 Carnegie Mellon University). Gaussian is a federally registered
 trademark of Gaussian, Inc.
  
 This software contains proprietary and confidential information,
 including trade secrets, belonging to Gaussian, Inc.
  
 This software is provided under written license and may be
 used, copied, transmitted, or stored only in accord with that
 written license.
  
 The following legend is applicable only to US Government
 contracts under FAR:
  
                    RESTRICTED RIGHTS LEGEND
  
 Use, reproduction and disclosure by the US Government is
 subject to restrictions as set forth in subparagraphs (a)
 and (c) of the Commercial Computer Software - Restricted
 Rights clause in FAR 52.227-19.
  
 Gaussian, Inc.
 340 Quinnipiac St., Bldg. 40, Wallingford CT 06492
  
  
 ---------------------------------------------------------------
 Warning -- This program may not be used in any manner that
 competes with the business of Gaussian, Inc. or will provide
 assistance to any competitor of Gaussian, Inc.  The licensee
 of this program is prohibited from giving any competitor of
 Gaussian, Inc. access to this program.  By using this program,
 the user acknowledges that Gaussian, Inc. is engaged in the
 business of creating and licensing software in the field of
 computational chemistry and represents and warrants to the
 licensee that it is not a competitor of Gaussian, Inc. and that
 it will not use this program in any manner prohibited above.
 ---------------------------------------------------------------
  

 Cite this work as:
 Gaussian 16, Revision C.01,
 M. J. Frisch, G. W. Trucks, H. B. Schlegel, G. E. Scuseria, 
 M. A. Robb, J. R. Cheeseman, G. Scalmani, V. Barone, 
 G. A. Petersson, H. Nakatsuji, X. Li, M. Caricato, A. V. Marenich, 
 J. Bloino, B. G. Janesko, R. Gomperts, B. Mennucci, H. P. Hratchian, 
 J. V. Ortiz, A. F. Izmaylov, J. L. Sonnenberg, D. Williams-Young, 
 F. Ding, F. Lipparini, F. Egidi, J. Goings, B. Peng, A. Petrone, 
 T. Henderson, D. Ranasinghe, V. G. Zakrzewski, J. Gao, N. Rega, 
 G. Zheng, W. Liang, M. Hada, M. Ehara, K. Toyota, R. Fukuda, 
 J. Hasegawa, M. Ishida, T. Nakajima, Y. Honda, O. Kitao, H. Nakai, 
 T. Vreven, K. Throssell, J. A. Montgomery, Jr., J. E. Peralta, 
 F. Ogliaro, M. J. Bearpark, J. J. Heyd, E. N. Brothers, K. N. Kudin, 
 V. N. Staroverov, T. A. Keith, R. Kobayashi, J. Normand, 
 K. Raghavachari, A. P. Rendell, J. C. Burant, S. S. Iyengar, 
 J. Tomasi, M. Cossi, J. M. Millam, M. Klene, C. Adamo, R. Cammi, 
 J. W. Ochterski, R. L. Martin, K. Morokuma, O. Farkas, 
 J. B. Foresman, and D. J. Fox, Gaussian, Inc., Wallingford CT, 2019.
 
 ******************************************
 Gaussian 16:  ES64L-G16RevC.01  3-Jul-2019
                 4-Jul-2022 
 ******************************************
 %mem=8gb
 %nproc=4
 Will use up to    4 processors via shared memory.
 %chk=conf-962.chk
 ----------------------------------------------------------------------
 # B3LYP/6-31G* empiricaldispersion=gd3bj guess=read geom=check nosymm 
 integral(ultrafinegrid)
 ----------------------------------------------------------------------
 1/29=2,38=1,172=1/1;
 2/12=2,15=1,40=1/2;
 3/5=1,6=6,7=1,11=2,14=-4,25=1,30=1,74=-5,75=-5,116=-2,124=41/1,2,3;
 4/5=1/1;
 5/5=2,38=6/2;
 6/7=2,8=2,9=2,10=2,28=1/1;
 99/5=1,9=1/99;
 ------------------------------------------------------
 Candidate Structure: Conf:962 Charge calc in gas phase
 ------------------------------------------------------
 Structure from the checkpoint file:  "conf-962.chk"
 Charge =  1 Multiplicity = 1
 Redundant internal coordinates found in file.  (old form).
 N,0,-5.7586829141,0.7529785057,3.5243636747
 H,0,-6.5956430048,1.2360108001,3.1898911777
 H,0,-5.6562080374,-0.1877412608,3.0182315557
 H,0,-5.8395475746,0.626882912,4.5367160316
 C,0,-4.4666211915,1.4335551374,3.1229205309
 H,0,-4.7197718903,2.384642037,2.6514467669
 C,0,-3.8805351187,0.4419526657,2.0835750428
 C,0,-3.547437759,1.6356122111,4.3312251895
 H,0,-3.2919180085,0.6496681581,4.7429671734
 H,0,-2.6084130811,2.0570936982,3.9539130655
 O,0,-4.4663402973,-0.646145622,1.9361796367
 C,0,-4.0984113421,2.5524079616,5.440545482
 H,0,-5.0251616427,2.1086660108,5.844774493
 C,0,-3.0876448527,2.6115058778,6.5934963488
 H,0,-2.147259097,3.0651592202,6.2594565709
 H,0,-2.8616123715,1.6128403489,6.9827283348
 H,0,-3.4768852319,3.2160656467,7.4180159535
 C,0,-4.4285096697,3.9578897783,4.923169049
 H,0,-3.5410232934,4.4277139938,4.4826275044
 H,0,-5.2209500852,3.9591400936,4.1646252278
 H,0,-4.7693711847,4.5971546148,5.742857306
 N,0,-2.7839481365,0.8295780836,1.4606409664
 H,0,-2.3458758676,1.7430906045,1.6084187173
 C,0,-2.0452090662,0.0453994379,0.4741308633
 H,0,-1.9720020947,-0.9896734693,0.8177336509
 C,0,-0.6649124009,0.722095107,0.4316525374
 C,0,-2.7542145332,0.0932829183,-0.9090116152
 H,0,-3.697768632,-0.4525240917,-0.8059766357
 H,0,-3.0046865316,1.1419013483,-1.1080133914
 O,0,-0.5793144134,1.9186268494,0.7232226891
 C,0,-1.9354165055,-0.4486854618,-2.0384174188
 C,0,-1.8992911327,-1.7432084598,-2.5036016106
 H,0,-2.4447233451,-2.6142909567,-2.1669532805
 C,0,-1.0246000061,0.3098823114,-2.8627880293
 C,0,-0.4839194412,-0.5885449345,-3.8220547977
 C,0,-0.6093381161,1.652431512,-2.8743259838
 H,0,-0.983362717,2.3536446165,-2.1335177052
 N,0,-1.0414253828,-1.8268711272,-3.5793773924
 H,0,-0.7844613327,-2.6810761872,-4.0491059509
 C,0,0.8100349566,1.1594916742,-4.7931874001
 H,0,1.5076463634,1.5153522914,-5.5455501207
 C,0,0.4303946061,-0.1774493048,-4.7958983012
 H,0,0.8222454697,-0.8734879742,-5.5320161917
 C,0,0.3021278618,2.0638800501,-3.838194559
 H,0,0.6269054255,3.0998323686,-3.8626371591
 N,0,0.3470021193,-0.0702638485,0.0567705009
 H,0,0.1486987134,-0.9869327985,-0.3387559738
 C,0,1.6667533829,0.4255696556,-0.28743692
 H,0,1.5953992568,1.4997627469,-0.4777693414
 C,0,2.1164764371,-0.3571142692,-1.5242533532
 C,0,2.6842172504,0.1684365749,0.833069964
 H,0,3.6817942412,0.4677787513,0.4812023735
 H,0,2.7167530534,-0.914343193,1.02609814
 O,0,1.7064395574,-1.4999860122,-1.7197882545
 O,0,2.2683141956,0.9014980767,1.9719896564
 H,0,2.9201255514,0.7475433279,2.6723378906
 N,0,3.0067524658,0.268858741,-2.3247195955
 H,0,3.4078858861,1.1370656099,-1.9965191903
 C,0,3.7903393517,-0.5008689272,-3.2721870485
 H,0,3.089968104,-1.1079204921,-3.8520707503
 C,0,4.751081591,-1.4250271842,-2.4953174397
 C,0,4.5681227864,0.4371628513,-4.1966715658
 H,0,5.1359006363,-0.1359231376,-4.9345127556
 H,0,5.2792361505,1.0415639911,-3.6215797613
 H,0,3.8796163599,1.1043338326,-4.7229592226
 O,0,5.1457056218,-1.1398690448,-1.363681799
 N,0,5.1480294897,-2.5210741042,-3.1699470631
 H,0,4.7959742026,-2.7556940714,-4.0919808358
 C,0,6.1015046836,-3.4661011811,-2.6196133463
 H,0,6.8938817081,-2.8942322288,-2.1361181668
 C,0,6.6764788234,-4.2561920994,-3.8010336777
 C,0,5.4004377007,-4.3956702472,-1.5947255719
 H,0,4.9352356467,-3.7417570822,-0.8487775194
 H,0,4.587226576,-4.8917026405,-2.1374581726
 O,0,7.8583357873,-4.8257844106,-3.604826882
 C,0,6.2630991316,-5.4607737727,-0.8993591651
 H,0,5.5849220381,-6.2229506081,-0.4973098139
 H,0,6.8828651159,-5.9823799262,-1.6359644168
 C,0,7.1291947927,-4.9689956668,0.2721650906
 H,0,7.6626386938,-5.833204783,0.6927971435
 H,0,6.4790553144,-4.5944137356,1.0733999958
 C,0,8.1447614047,-3.8686201681,-0.0416629603
 H,0,7.628418665,-2.9364102682,-0.2914169476
 H,0,8.7434585307,-3.6671310673,0.8581830386
 N,0,9.0010977037,-4.2363337529,-1.1926633371
 H,0,9.702643776,-3.5132490064,-1.3501853022
 H,0,9.5212419575,-5.0864417455,-0.9711850564
 H,0,8.2490243553,-4.5753649014,-2.7017978405
 O,0,6.0536814604,-4.3661145793,-4.8397949133
 Recover connectivity data from disk.
                           ----------------------------
                           !    Current Parameters    !
                           ! (Angstroms and Degrees)  !
 --------------------------                            --------------------------
 ! Name  Definition              Value                                          !
 --------------------------------------------------------------------------------
 ! R1    R(1,2)                  1.0226                                         !
 ! R2    R(1,3)                  1.0731                                         !
 ! R3    R(1,4)                  1.0234                                         !
 ! R4    R(1,5)                  1.5145                                         !
 ! R5    R(5,6)                  1.0913                                         !
 ! R6    R(5,7)                  1.5515                                         !
 ! R7    R(5,8)                  1.5316                                         !
 ! R8    R(7,11)                 1.2445                                         !
 ! R9    R(7,22)                 1.3194                                         !
 ! R10   R(8,9)                  1.0986                                         !
 ! R11   R(8,10)                 1.0963                                         !
 ! R12   R(8,12)                 1.541                                          !
 ! R13   R(12,13)                1.1042                                         !
 ! R14   R(12,14)                1.5344                                         !
 ! R15   R(12,18)                1.5336                                         !
 ! R16   R(14,15)                1.0962                                         !
 ! R17   R(14,16)                1.0954                                         !
 ! R18   R(14,17)                1.094                                          !
 ! R19   R(18,19)                1.0966                                         !
 ! R20   R(18,20)                1.097                                          !
 ! R21   R(18,21)                1.094                                          !
 ! R22   R(22,23)                1.0238                                         !
 ! R23   R(22,24)                1.4608                                         !
 ! R24   R(24,25)                1.0931                                         !
 ! R25   R(24,26)                1.5378                                         !
 ! R26   R(24,27)                1.555                                          !
 ! R27   R(26,30)                1.2345                                         !
 ! R28   R(26,46)                1.3388                                         !
 ! R29   R(27,28)                1.0949                                         !
 ! R30   R(27,29)                1.0963                                         !
 ! R31   R(27,31)                1.4966                                         !
 ! R32   R(31,32)                1.376                                          !
 ! R33   R(31,34)                1.4438                                         !
 ! R34   R(32,33)                1.0815                                         !
 ! R35   R(32,38)                1.3785                                         !
 ! R36   R(34,35)                1.4212                                         !
 ! R37   R(34,36)                1.4054                                         !
 ! R38   R(35,38)                1.3795                                         !
 ! R39   R(35,42)                1.3976                                         !
 ! R40   R(36,37)                1.0865                                         !
 ! R41   R(36,44)                1.3889                                         !
 ! R42   R(38,39)                1.0081                                         !
 ! R43   R(40,41)                1.086                                          !
 ! R44   R(40,42)                1.3898                                         !
 ! R45   R(40,44)                1.4099                                         !
 ! R46   R(42,43)                1.0862                                         !
 ! R47   R(44,45)                1.0859                                         !
 ! R48   R(46,47)                1.0179                                         !
 ! R49   R(46,48)                1.4512                                         !
 ! R50   R(48,49)                1.0933                                         !
 ! R51   R(48,50)                1.5312                                         !
 ! R52   R(48,51)                1.5352                                         !
 ! R53   R(50,54)                1.2298                                         !
 ! R54   R(50,57)                1.351                                          !
 ! R55   R(51,52)                1.0994                                         !
 ! R56   R(51,53)                1.1003                                         !
 ! R57   R(51,55)                1.4169                                         !
 ! R58   R(55,56)                0.969                                          !
 ! R59   R(57,58)                1.0111                                         !
 ! R60   R(57,59)                1.4506                                         !
 ! R61   R(59,60)                1.0933                                         !
 ! R62   R(59,61)                1.5429                                         !
 ! R63   R(59,62)                1.5295                                         !
 ! R64   R(61,66)                1.2319                                         !
 ! R65   R(61,67)                1.3469                                         !
 ! R66   R(62,63)                1.0933                                         !
 ! R67   R(62,64)                1.0962                                         !
 ! R68   R(62,65)                1.0937                                         !
 ! R69   R(67,68)                1.0145                                         !
 ! R70   R(67,69)                1.4509                                         !
 ! R71   R(69,70)                1.0903                                         !
 ! R72   R(69,71)                1.5332                                         !
 ! R73   R(69,72)                1.5511                                         !
 ! R74   R(71,75)                1.3265                                         !
 ! R75   R(71,89)                1.2161                                         !
 ! R76   R(72,73)                1.0957                                         !
 ! R77   R(72,74)                1.0963                                         !
 ! R78   R(72,76)                1.5369                                         !
 ! R79   R(76,77)                1.0966                                         !
 ! R80   R(76,78)                1.0949                                         !
 ! R81   R(76,79)                1.5377                                         !
 ! R82   R(79,80)                1.0993                                         !
 ! R83   R(79,81)                1.0977                                         !
 ! R84   R(79,82)                1.5299                                         !
 ! R85   R(82,83)                1.0945                                         !
 ! R86   R(82,84)                1.0994                                         !
 ! R87   R(82,85)                1.481                                          !
 ! R88   R(85,86)                1.0197                                         !
 ! R89   R(85,87)                1.0209                                         !
 ! R90   R(85,88)                1.7199                                         !
 ! A1    A(2,1,3)              109.753                                          !
 ! A2    A(2,1,4)              108.487                                          !
 ! A3    A(2,1,5)              113.5337                                         !
 ! A4    A(3,1,4)              111.4748                                         !
 ! A5    A(3,1,5)              100.8035                                         !
 ! A6    A(4,1,5)              112.643                                          !
 ! A7    A(1,5,6)              107.9537                                         !
 ! A8    A(1,5,7)              102.277                                          !
 ! A9    A(1,5,8)              111.2336                                         !
 ! A10   A(6,5,7)              110.8076                                         !
 ! A11   A(6,5,8)              111.4126                                         !
 ! A12   A(7,5,8)              112.7133                                         !
 ! A13   A(5,7,11)             117.4086                                         !
 ! A14   A(5,7,22)             116.2628                                         !
 ! A15   A(11,7,22)            126.3105                                         !
 ! A16   A(5,8,9)              108.4739                                         !
 ! A17   A(5,8,10)             107.0535                                         !
 ! A18   A(5,8,12)             115.584                                          !
 ! A19   A(9,8,10)             105.9511                                         !
 ! A20   A(9,8,12)             110.3217                                         !
 ! A21   A(10,8,12)            108.9833                                         !
 ! A22   A(8,12,13)            108.9379                                         !
 ! A23   A(8,12,14)            109.1654                                         !
 ! A24   A(8,12,18)            112.2922                                         !
 ! A25   A(13,12,14)           107.0547                                         !
 ! A26   A(13,12,18)           108.1284                                         !
 ! A27   A(14,12,18)           111.0986                                         !
 ! A28   A(12,14,15)           110.6134                                         !
 ! A29   A(12,14,16)           111.5803                                         !
 ! A30   A(12,14,17)           110.6842                                         !
 ! A31   A(15,14,16)           107.9717                                         !
 ! A32   A(15,14,17)           107.8295                                         !
 ! A33   A(16,14,17)           108.0244                                         !
 ! A34   A(12,18,19)           110.7311                                         !
 ! A35   A(12,18,20)           112.9425                                         !
 ! A36   A(12,18,21)           110.4765                                         !
 ! A37   A(19,18,20)           107.8401                                         !
 ! A38   A(19,18,21)           107.6279                                         !
 ! A39   A(20,18,21)           107.0                                            !
 ! A40   A(7,22,23)            123.3397                                         !
 ! A41   A(7,22,24)            125.5526                                         !
 ! A42   A(23,22,24)           111.1044                                         !
 ! A43   A(22,24,25)           109.264                                          !
 ! A44   A(22,24,26)           103.6709                                         !
 ! A45   A(22,24,27)           110.7064                                         !
 ! A46   A(25,24,26)           111.4232                                         !
 ! A47   A(25,24,27)           109.8342                                         !
 ! A48   A(26,24,27)           111.7848                                         !
 ! A49   A(24,26,30)           118.8293                                         !
 ! A50   A(24,26,46)           115.1961                                         !
 ! A51   A(30,26,46)           125.9704                                         !
 ! A52   A(24,27,28)           107.0897                                         !
 ! A53   A(24,27,29)           107.162                                          !
 ! A54   A(24,27,31)           114.2453                                         !
 ! A55   A(28,27,29)           107.2776                                         !
 ! A56   A(28,27,31)           111.2218                                         !
 ! A57   A(29,27,31)           109.5357                                         !
 ! A58   A(27,31,32)           127.6019                                         !
 ! A59   A(27,31,34)           125.8571                                         !
 ! A60   A(32,31,34)           106.54                                           !
 ! A61   A(31,32,33)           129.7367                                         !
 ! A62   A(31,32,38)           109.7098                                         !
 ! A63   A(33,32,38)           120.5242                                         !
 ! A64   A(31,34,35)           107.0531                                         !
 ! A65   A(31,34,36)           133.8685                                         !
 ! A66   A(35,34,36)           119.0759                                         !
 ! A67   A(34,35,38)           107.1562                                         !
 ! A68   A(34,35,42)           122.2261                                         !
 ! A69   A(38,35,42)           130.6152                                         !
 ! A70   A(34,36,37)           120.6137                                         !
 ! A71   A(34,36,44)           118.8557                                         !
 ! A72   A(37,36,44)           120.5247                                         !
 ! A73   A(32,38,35)           109.5298                                         !
 ! A74   A(32,38,39)           125.0064                                         !
 ! A75   A(35,38,39)           125.1418                                         !
 ! A76   A(41,40,42)           119.2976                                         !
 ! A77   A(41,40,44)           119.3716                                         !
 ! A78   A(42,40,44)           121.3299                                         !
 ! A79   A(35,42,40)           117.4061                                         !
 ! A80   A(35,42,43)           121.3133                                         !
 ! A81   A(40,42,43)           121.2783                                         !
 ! A82   A(36,44,40)           121.0932                                         !
 ! A83   A(36,44,45)           119.6357                                         !
 ! A84   A(40,44,45)           119.2703                                         !
 ! A85   A(26,46,47)           119.6409                                         !
 ! A86   A(26,46,48)           123.4747                                         !
 ! A87   A(47,46,48)           113.1228                                         !
 ! A88   A(46,48,49)           108.5206                                         !
 ! A89   A(46,48,50)           106.5013                                         !
 ! A90   A(46,48,51)           111.8617                                         !
 ! A91   A(49,48,50)           112.3826                                         !
 ! A92   A(49,48,51)           109.5661                                         !
 ! A93   A(50,48,51)           108.0159                                         !
 ! A94   A(48,50,54)           120.3653                                         !
 ! A95   A(48,50,57)           115.8042                                         !
 ! A96   A(54,50,57)           123.7852                                         !
 ! A97   A(48,51,52)           108.7948                                         !
 ! A98   A(48,51,53)           108.2072                                         !
 ! A99   A(48,51,55)           107.7879                                         !
 ! A100  A(52,51,53)           107.2933                                         !
 ! A101  A(52,51,55)           112.5051                                         !
 ! A102  A(53,51,55)           112.1354                                         !
 ! A103  A(51,55,56)           107.536                                          !
 ! A104  A(50,57,58)           117.8368                                         !
 ! A105  A(50,57,59)           119.8089                                         !
 ! A106  A(58,57,59)           116.9576                                         !
 ! A107  A(57,59,60)           107.159                                          !
 ! A108  A(57,59,61)           108.9851                                         !
 ! A109  A(57,59,62)           110.1237                                         !
 ! A110  A(60,59,61)           109.4736                                         !
 ! A111  A(60,59,62)           110.2238                                         !
 ! A112  A(61,59,62)           110.7948                                         !
 ! A113  A(59,61,66)           121.556                                          !
 ! A114  A(59,61,67)           114.7552                                         !
 ! A115  A(66,61,67)           123.6471                                         !
 ! A116  A(59,62,63)           110.5199                                         !
 ! A117  A(59,62,64)           110.5428                                         !
 ! A118  A(59,62,65)           110.1721                                         !
 ! A119  A(63,62,64)           107.8293                                         !
 ! A120  A(63,62,65)           108.781                                          !
 ! A121  A(64,62,65)           108.9343                                         !
 ! A122  A(61,67,68)           122.7643                                         !
 ! A123  A(61,67,69)           122.2588                                         !
 ! A124  A(68,67,69)           114.9718                                         !
 ! A125  A(67,69,70)           107.7089                                         !
 ! A126  A(67,69,71)           106.8477                                         !
 ! A127  A(67,69,72)           110.1174                                         !
 ! A128  A(70,69,71)           109.8447                                         !
 ! A129  A(70,69,72)           110.4757                                         !
 ! A130  A(71,69,72)           111.7044                                         !
 ! A131  A(69,71,75)           116.1945                                         !
 ! A132  A(69,71,89)           120.8447                                         !
 ! A133  A(75,71,89)           122.9414                                         !
 ! A134  A(69,72,73)           106.5039                                         !
 ! A135  A(69,72,74)           106.2189                                         !
 ! A136  A(69,72,76)           117.4236                                         !
 ! A137  A(73,72,74)           106.9856                                         !
 ! A138  A(73,72,76)           110.114                                          !
 ! A139  A(74,72,76)           109.0728                                         !
 ! A140  A(72,76,77)           107.4833                                         !
 ! A141  A(72,76,78)           110.0893                                         !
 ! A142  A(72,76,79)           116.0537                                         !
 ! A143  A(77,76,78)           105.4036                                         !
 ! A144  A(77,76,79)           106.9356                                         !
 ! A145  A(78,76,79)           110.2491                                         !
 ! A146  A(76,79,80)           108.2664                                         !
 ! A147  A(76,79,81)           109.3688                                         !
 ! A148  A(76,79,82)           116.5916                                         !
 ! A149  A(80,79,81)           106.0447                                         !
 ! A150  A(80,79,82)           108.7724                                         !
 ! A151  A(81,79,82)           107.304                                          !
 ! A152  A(79,82,83)           110.2568                                         !
 ! A153  A(79,82,84)           108.9895                                         !
 ! A154  A(79,82,85)           111.3869                                         !
 ! A155  A(83,82,84)           106.712                                          !
 ! A156  A(83,82,85)           107.8725                                         !
 ! A157  A(84,82,85)           111.514                                          !
 ! A158  A(82,85,86)           109.9863                                         !
 ! A159  A(82,85,87)           109.4351                                         !
 ! A160  A(82,85,88)           118.5579                                         !
 ! A161  A(86,85,87)           105.87                                           !
 ! A162  A(86,85,88)           107.7625                                         !
 ! A163  A(87,85,88)           104.4183                                         !
 ! D1    D(2,1,5,6)              6.8692                                         !
 ! D2    D(2,1,5,7)           -110.0457                                         !
 ! D3    D(2,1,5,8)            129.3909                                         !
 ! D4    D(3,1,5,6)            124.152                                          !
 ! D5    D(3,1,5,7)              7.2371                                         !
 ! D6    D(3,1,5,8)           -113.3262                                         !
 ! D7    D(4,1,5,6)           -116.9387                                         !
 ! D8    D(4,1,5,7)            126.1464                                         !
 ! D9    D(4,1,5,8)              5.5831                                         !
 ! D10   D(1,5,7,11)            -7.0195                                         !
 ! D11   D(1,5,7,22)           174.4289                                         !
 ! D12   D(6,5,7,11)          -121.8648                                         !
 ! D13   D(6,5,7,22)            59.5836                                         !
 ! D14   D(8,5,7,11)           112.5117                                         !
 ! D15   D(8,5,7,22)           -66.0399                                         !
 ! D16   D(1,5,8,9)             61.7118                                         !
 ! D17   D(1,5,8,10)           175.6378                                         !
 ! D18   D(1,5,8,12)           -62.7542                                         !
 ! D19   D(6,5,8,9)           -177.7849                                         !
 ! D20   D(6,5,8,10)           -63.859                                          !
 ! D21   D(6,5,8,12)            57.749                                          !
 ! D22   D(7,5,8,9)            -52.4894                                         !
 ! D23   D(7,5,8,10)            61.4366                                         !
 ! D24   D(7,5,8,12)          -176.9554                                         !
 ! D25   D(5,7,22,23)           -2.4198                                         !
 ! D26   D(5,7,22,24)          178.3039                                         !
 ! D27   D(11,7,22,23)         179.1759                                         !
 ! D28   D(11,7,22,24)          -0.1004                                         !
 ! D29   D(5,8,12,13)           61.4243                                         !
 ! D30   D(5,8,12,14)          178.0087                                         !
 ! D31   D(5,8,12,18)          -58.3241                                         !
 ! D32   D(9,8,12,13)          -62.0764                                         !
 ! D33   D(9,8,12,14)           54.508                                          !
 ! D34   D(9,8,12,18)          178.1752                                         !
 ! D35   D(10,8,12,13)        -178.0088                                         !
 ! D36   D(10,8,12,14)         -61.4245                                         !
 ! D37   D(10,8,12,18)          62.2428                                         !
 ! D38   D(8,12,14,15)          63.4301                                         !
 ! D39   D(8,12,14,16)         -56.787                                          !
 ! D40   D(8,12,14,17)        -177.1188                                         !
 ! D41   D(13,12,14,15)       -178.7941                                         !
 ! D42   D(13,12,14,16)         60.9888                                         !
 ! D43   D(13,12,14,17)        -59.343                                          !
 ! D44   D(18,12,14,15)        -60.9407                                         !
 ! D45   D(18,12,14,16)        178.8423                                         !
 ! D46   D(18,12,14,17)         58.5105                                         !
 ! D47   D(8,12,18,19)         -58.0479                                         !
 ! D48   D(8,12,18,20)          63.0111                                         !
 ! D49   D(8,12,18,21)        -177.1896                                         !
 ! D50   D(13,12,18,19)       -178.2666                                         !
 ! D51   D(13,12,18,20)        -57.2076                                         !
 ! D52   D(13,12,18,21)         62.5917                                         !
 ! D53   D(14,12,18,19)         64.5332                                         !
 ! D54   D(14,12,18,20)       -174.4079                                         !
 ! D55   D(14,12,18,21)        -54.6086                                         !
 ! D56   D(7,22,24,25)         -42.8811                                         !
 ! D57   D(7,22,24,26)        -161.7762                                         !
 ! D58   D(7,22,24,27)          78.2066                                         !
 ! D59   D(23,22,24,25)        137.767                                          !
 ! D60   D(23,22,24,26)         18.8719                                         !
 ! D61   D(23,22,24,27)       -101.1453                                         !
 ! D62   D(22,24,26,30)        -26.9634                                         !
 ! D63   D(22,24,26,46)        153.7354                                         !
 ! D64   D(25,24,26,30)       -144.362                                          !
 ! D65   D(25,24,26,46)         36.3368                                         !
 ! D66   D(27,24,26,30)         92.3172                                         !
 ! D67   D(27,24,26,46)        -86.984                                          !
 ! D68   D(22,24,27,28)        -67.9498                                         !
 ! D69   D(22,24,27,29)         46.8941                                         !
 ! D70   D(22,24,27,31)        168.4222                                         !
 ! D71   D(25,24,27,28)         52.7999                                         !
 ! D72   D(25,24,27,29)        167.6438                                         !
 ! D73   D(25,24,27,31)        -70.8281                                         !
 ! D74   D(26,24,27,28)        177.0154                                         !
 ! D75   D(26,24,27,29)        -68.1407                                         !
 ! D76   D(26,24,27,31)         53.3874                                         !
 ! D77   D(24,26,46,47)         11.3901                                         !
 ! D78   D(24,26,46,48)        168.0175                                         !
 ! D79   D(30,26,46,47)       -167.8535                                         !
 ! D80   D(30,26,46,48)        -11.2261                                         !
 ! D81   D(24,27,31,32)         90.7291                                         !
 ! D82   D(24,27,31,34)        -89.6795                                         !
 ! D83   D(28,27,31,32)        -30.6452                                         !
 ! D84   D(28,27,31,34)        148.9462                                         !
 ! D85   D(29,27,31,32)       -149.0598                                         !
 ! D86   D(29,27,31,34)         30.5316                                         !
 ! D87   D(27,31,32,33)          0.5677                                         !
 ! D88   D(27,31,32,38)        178.571                                          !
 ! D89   D(34,31,32,33)       -179.0868                                         !
 ! D90   D(34,31,32,38)         -1.0835                                         !
 ! D91   D(27,31,34,35)       -178.8732                                         !
 ! D92   D(27,31,34,36)          1.7309                                         !
 ! D93   D(32,31,34,35)          0.7891                                         !
 ! D94   D(32,31,34,36)       -178.6068                                         !
 ! D95   D(31,32,38,35)          0.9842                                         !
 ! D96   D(31,32,38,39)        174.7349                                         !
 ! D97   D(33,32,38,35)        179.2018                                         !
 ! D98   D(33,32,38,39)         -7.0475                                         !
 ! D99   D(31,34,35,38)         -0.211                                          !
 ! D100  D(31,34,35,42)        179.2646                                         !
 ! D101  D(36,34,35,38)        179.2907                                         !
 ! D102  D(36,34,35,42)         -1.2337                                         !
 ! D103  D(31,34,36,37)          1.2214                                         !
 ! D104  D(31,34,36,44)       -179.6541                                         !
 ! D105  D(35,34,36,37)       -178.1178                                         !
 ! D106  D(35,34,36,44)          1.0067                                         !
 ! D107  D(34,35,38,32)         -0.4533                                         !
 ! D108  D(34,35,38,39)       -174.1936                                         !
 ! D109  D(42,35,38,32)       -179.869                                          !
 ! D110  D(42,35,38,39)          6.3907                                         !
 ! D111  D(34,35,42,40)          0.4438                                         !
 ! D112  D(34,35,42,43)       -179.0098                                         !
 ! D113  D(38,35,42,40)        179.7837                                         !
 ! D114  D(38,35,42,43)          0.3301                                         !
 ! D115  D(34,36,44,40)         -0.052                                          !
 ! D116  D(34,36,44,45)        179.6182                                         !
 ! D117  D(37,36,44,40)        179.0732                                         !
 ! D118  D(37,36,44,45)         -1.2566                                         !
 ! D119  D(41,40,42,35)       -179.0999                                         !
 ! D120  D(41,40,42,43)          0.3539                                         !
 ! D121  D(44,40,42,35)          0.5483                                         !
 ! D122  D(44,40,42,43)       -179.9979                                         !
 ! D123  D(41,40,44,36)        178.8906                                         !
 ! D124  D(41,40,44,45)         -0.7808                                         !
 ! D125  D(42,40,44,36)         -0.7574                                         !
 ! D126  D(42,40,44,45)        179.5712                                         !
 ! D127  D(26,46,48,49)        -16.7641                                         !
 ! D128  D(26,46,48,50)       -137.9674                                         !
 ! D129  D(26,46,48,51)        104.2306                                         !
 ! D130  D(47,46,48,49)        141.2168                                         !
 ! D131  D(47,46,48,50)         20.0135                                         !
 ! D132  D(47,46,48,51)        -97.7885                                         !
 ! D133  D(46,48,50,54)        -28.5662                                         !
 ! D134  D(46,48,50,57)        153.7933                                         !
 ! D135  D(49,48,50,54)       -147.2697                                         !
 ! D136  D(49,48,50,57)         35.0898                                         !
 ! D137  D(51,48,50,54)         91.7472                                         !
 ! D138  D(51,48,50,57)        -85.8933                                         !
 ! D139  D(46,48,51,52)        174.2562                                         !
 ! D140  D(46,48,51,53)         57.9929                                         !
 ! D141  D(46,48,51,55)        -63.4803                                         !
 ! D142  D(49,48,51,52)        -65.3571                                         !
 ! D143  D(49,48,51,53)        178.3796                                         !
 ! D144  D(49,48,51,55)         56.9064                                         !
 ! D145  D(50,48,51,52)         57.3641                                         !
 ! D146  D(50,48,51,53)        -58.8992                                         !
 ! D147  D(50,48,51,55)        179.6276                                         !
 ! D148  D(48,50,57,58)          8.2699                                         !
 ! D149  D(48,50,57,59)        161.5685                                         !
 ! D150  D(54,50,57,58)       -169.2805                                         !
 ! D151  D(54,50,57,59)        -15.982                                          !
 ! D152  D(48,51,55,56)       -179.1418                                         !
 ! D153  D(52,51,55,56)        -59.1964                                         !
 ! D154  D(53,51,55,56)         61.8616                                         !
 ! D155  D(50,57,59,60)         51.8782                                         !
 ! D156  D(50,57,59,61)        -66.4943                                         !
 ! D157  D(50,57,59,62)        171.7758                                         !
 ! D158  D(58,57,59,60)       -154.5952                                         !
 ! D159  D(58,57,59,61)         87.0323                                         !
 ! D160  D(58,57,59,62)        -34.6976                                         !
 ! D161  D(57,59,61,66)        -26.6725                                         !
 ! D162  D(57,59,61,67)        155.593                                          !
 ! D163  D(60,59,61,66)       -143.5818                                         !
 ! D164  D(60,59,61,67)         38.6837                                         !
 ! D165  D(62,59,61,66)         94.6492                                         !
 ! D166  D(62,59,61,67)        -83.0853                                         !
 ! D167  D(57,59,62,63)       -178.1664                                         !
 ! D168  D(57,59,62,64)         62.5336                                         !
 ! D169  D(57,59,62,65)        -57.9194                                         !
 ! D170  D(60,59,62,63)        -60.1426                                         !
 ! D171  D(60,59,62,64)       -179.4426                                         !
 ! D172  D(60,59,62,65)         60.1043                                         !
 ! D173  D(61,59,62,63)         61.1853                                         !
 ! D174  D(61,59,62,64)        -58.1147                                         !
 ! D175  D(61,59,62,65)       -178.5677                                         !
 ! D176  D(59,61,67,68)         -3.9539                                         !
 ! D177  D(59,61,67,69)        176.9111                                         !
 ! D178  D(66,61,67,68)        178.3651                                         !
 ! D179  D(66,61,67,69)         -0.7698                                         !
 ! D180  D(61,67,69,70)        -42.1614                                         !
 ! D181  D(61,67,69,71)       -160.1331                                         !
 ! D182  D(61,67,69,72)         78.3714                                         !
 ! D183  D(68,67,69,70)        138.6411                                         !
 ! D184  D(68,67,69,71)         20.6694                                         !
 ! D185  D(68,67,69,72)       -100.8262                                         !
 ! D186  D(67,69,71,75)        157.4858                                         !
 ! D187  D(67,69,71,89)        -24.0706                                         !
 ! D188  D(70,69,71,75)         40.923                                          !
 ! D189  D(70,69,71,89)       -140.6334                                         !
 ! D190  D(72,69,71,75)        -82.0282                                         !
 ! D191  D(72,69,71,89)         96.4154                                         !
 ! D192  D(67,69,72,73)        -55.7087                                         !
 ! D193  D(67,69,72,74)         58.0884                                         !
 ! D194  D(67,69,72,76)       -179.6131                                         !
 ! D195  D(70,69,72,73)         63.1444                                         !
 ! D196  D(70,69,72,74)        176.9415                                         !
 ! D197  D(70,69,72,76)        -60.76                                           !
 ! D198  D(71,69,72,73)       -174.2642                                         !
 ! D199  D(71,69,72,74)        -60.4671                                         !
 ! D200  D(71,69,72,76)         61.8314                                         !
 ! D201  D(69,72,76,77)       -160.8855                                         !
 ! D202  D(69,72,76,78)        -46.5724                                         !
 ! D203  D(69,72,76,79)         79.5146                                         !
 ! D204  D(73,72,76,77)         77.0511                                         !
 ! D205  D(73,72,76,78)       -168.6358                                         !
 ! D206  D(73,72,76,79)        -42.5488                                         !
 ! D207  D(74,72,76,77)        -40.0652                                         !
 ! D208  D(74,72,76,78)         74.2478                                         !
 ! D209  D(74,72,76,79)       -159.6651                                         !
 ! D210  D(72,76,79,80)        178.1552                                         !
 ! D211  D(72,76,79,81)         63.0332                                         !
 ! D212  D(72,76,79,82)        -58.8748                                         !
 ! D213  D(77,76,79,80)         58.2585                                         !
 ! D214  D(77,76,79,81)        -56.8635                                         !
 ! D215  D(77,76,79,82)       -178.7715                                         !
 ! D216  D(78,76,79,80)        -55.8384                                         !
 ! D217  D(78,76,79,81)       -170.9604                                         !
 ! D218  D(78,76,79,82)         67.1316                                         !
 ! D219  D(76,79,82,83)         67.4175                                         !
 ! D220  D(76,79,82,84)       -175.7642                                         !
 ! D221  D(76,79,82,85)        -52.3089                                         !
 ! D222  D(80,79,82,83)       -169.8751                                         !
 ! D223  D(80,79,82,84)        -53.0569                                         !
 ! D224  D(80,79,82,85)         70.3985                                         !
 ! D225  D(81,79,82,83)        -55.567                                          !
 ! D226  D(81,79,82,84)         61.2513                                         !
 ! D227  D(81,79,82,85)       -175.2934                                         !
 ! D228  D(79,82,85,86)       -176.8435                                         !
 ! D229  D(79,82,85,87)        -60.9378                                         !
 ! D230  D(79,82,85,88)         58.5778                                         !
 ! D231  D(83,82,85,86)         62.0271                                         !
 ! D232  D(83,82,85,87)        177.9328                                         !
 ! D233  D(83,82,85,88)        -62.5517                                         !
 ! D234  D(84,82,85,86)        -54.8375                                         !
 ! D235  D(84,82,85,87)         61.0682                                         !
 ! D236  D(84,82,85,88)       -179.4162                                         !
 --------------------------------------------------------------------------------
 Symmetry turned off by external request.
 Stoichiometry    C29H46N7O7(1+)
 Framework group  C1[X(C29H46N7O7)]
 Deg. of freedom   261
 Full point group                 C1      NOp   1
                          Input orientation:                          
 ---------------------------------------------------------------------
 Center     Atomic      Atomic             Coordinates (Angstroms)
 Number     Number       Type             X           Y           Z
 ---------------------------------------------------------------------
      1          7           0       -5.758683    0.752979    3.524364
      2          1           0       -6.595643    1.236011    3.189891
      3          1           0       -5.656208   -0.187741    3.018232
      4          1           0       -5.839548    0.626883    4.536716
      5          6           0       -4.466621    1.433555    3.122921
      6          1           0       -4.719772    2.384642    2.651447
      7          6           0       -3.880535    0.441953    2.083575
      8          6           0       -3.547438    1.635612    4.331225
      9          1           0       -3.291918    0.649668    4.742967
     10          1           0       -2.608413    2.057094    3.953913
     11          8           0       -4.466340   -0.646146    1.936180
     12          6           0       -4.098411    2.552408    5.440545
     13          1           0       -5.025162    2.108666    5.844774
     14          6           0       -3.087645    2.611506    6.593496
     15          1           0       -2.147259    3.065159    6.259457
     16          1           0       -2.861612    1.612840    6.982728
     17          1           0       -3.476885    3.216066    7.418016
     18          6           0       -4.428510    3.957890    4.923169
     19          1           0       -3.541023    4.427714    4.482628
     20          1           0       -5.220950    3.959140    4.164625
     21          1           0       -4.769371    4.597155    5.742857
     22          7           0       -2.783948    0.829578    1.460641
     23          1           0       -2.345876    1.743091    1.608419
     24          6           0       -2.045209    0.045399    0.474131
     25          1           0       -1.972002   -0.989673    0.817734
     26          6           0       -0.664912    0.722095    0.431653
     27          6           0       -2.754215    0.093283   -0.909012
     28          1           0       -3.697769   -0.452524   -0.805977
     29          1           0       -3.004687    1.141901   -1.108013
     30          8           0       -0.579314    1.918627    0.723223
     31          6           0       -1.935417   -0.448685   -2.038417
     32          6           0       -1.899291   -1.743208   -2.503602
     33          1           0       -2.444723   -2.614291   -2.166953
     34          6           0       -1.024600    0.309882   -2.862788
     35          6           0       -0.483919   -0.588545   -3.822055
     36          6           0       -0.609338    1.652432   -2.874326
     37          1           0       -0.983363    2.353645   -2.133518
     38          7           0       -1.041425   -1.826871   -3.579377
     39          1           0       -0.784461   -2.681076   -4.049106
     40          6           0        0.810035    1.159492   -4.793187
     41          1           0        1.507646    1.515352   -5.545550
     42          6           0        0.430395   -0.177449   -4.795898
     43          1           0        0.822245   -0.873488   -5.532016
     44          6           0        0.302128    2.063880   -3.838195
     45          1           0        0.626905    3.099832   -3.862637
     46          7           0        0.347002   -0.070264    0.056771
     47          1           0        0.148699   -0.986933   -0.338756
     48          6           0        1.666753    0.425570   -0.287437
     49          1           0        1.595399    1.499763   -0.477769
     50          6           0        2.116476   -0.357114   -1.524253
     51          6           0        2.684217    0.168437    0.833070
     52          1           0        3.681794    0.467779    0.481202
     53          1           0        2.716753   -0.914343    1.026098
     54          8           0        1.706440   -1.499986   -1.719788
     55          8           0        2.268314    0.901498    1.971990
     56          1           0        2.920126    0.747543    2.672338
     57          7           0        3.006752    0.268859   -2.324720
     58          1           0        3.407886    1.137066   -1.996519
     59          6           0        3.790339   -0.500869   -3.272187
     60          1           0        3.089968   -1.107920   -3.852071
     61          6           0        4.751082   -1.425027   -2.495317
     62          6           0        4.568123    0.437163   -4.196672
     63          1           0        5.135901   -0.135923   -4.934513
     64          1           0        5.279236    1.041564   -3.621580
     65          1           0        3.879616    1.104334   -4.722959
     66          8           0        5.145706   -1.139869   -1.363682
     67          7           0        5.148029   -2.521074   -3.169947
     68          1           0        4.795974   -2.755694   -4.091981
     69          6           0        6.101505   -3.466101   -2.619613
     70          1           0        6.893882   -2.894232   -2.136118
     71          6           0        6.676479   -4.256192   -3.801034
     72          6           0        5.400438   -4.395670   -1.594726
     73          1           0        4.935236   -3.741757   -0.848778
     74          1           0        4.587227   -4.891703   -2.137458
     75          8           0        7.858336   -4.825784   -3.604827
     76          6           0        6.263099   -5.460774   -0.899359
     77          1           0        5.584922   -6.222951   -0.497310
     78          1           0        6.882865   -5.982380   -1.635964
     79          6           0        7.129195   -4.968996    0.272165
     80          1           0        7.662639   -5.833205    0.692797
     81          1           0        6.479055   -4.594414    1.073400
     82          6           0        8.144761   -3.868620   -0.041663
     83          1           0        7.628419   -2.936410   -0.291417
     84          1           0        8.743459   -3.667131    0.858183
     85          7           0        9.001098   -4.236334   -1.192663
     86          1           0        9.702644   -3.513249   -1.350185
     87          1           0        9.521242   -5.086442   -0.971185
     88          1           0        8.249024   -4.575365   -2.701798
     89          8           0        6.053681   -4.366115   -4.839795
 ---------------------------------------------------------------------
 Rotational constants (GHZ):           0.1227557           0.0318631           0.0283857
 Standard basis: 6-31G(d) (6D, 7F)
   737 basis functions,  1388 primitive gaussians,   737 cartesian basis functions
   162 alpha electrons      162 beta electrons
       nuclear repulsion energy      5408.3989098684 Hartrees.
 NAtoms=   89 NActive=   89 NUniq=   89 SFac= 1.00D+00 NAtFMM=   60 NAOKFM=T Big=T
 Integral buffers will be    131072 words long.
 Raffenetti 2 integral format.
 Two-electron integral symmetry is turned off.
 Nuclear repulsion after empirical dispersion term =     5408.2031190560 Hartrees.
 One-electron integrals computed using PRISM.
 NBasis=   737 RedAO= T EigKep=  3.69D-04  NBF=   737
 NBsUse=   737 1.00D-06 EigRej= -1.00D+00 NBFU=   737
 Initial guess from the checkpoint file:  "conf-962.chk"
 B after Tr=     0.000000    0.000000    0.000000
         Rot=    1.000000    0.000000    0.000000    0.000000 Ang=   0.00 deg.
 Requested convergence on RMS density matrix=1.00D-08 within 128 cycles.
 Requested convergence on MAX density matrix=1.00D-06.
 Requested convergence on             energy=1.00D-06.
 No special actions if energy rises.
 SCF Done:  E(RB3LYP) =  -2042.68832381     A.U. after    1 cycles
            NFock=  1  Conv=0.89D-08     -V/T= 2.0094

 **********************************************************************

            Population analysis using the SCF Density.

 **********************************************************************

 Alpha  occ. eigenvalues --  -19.26602 -19.21641 -19.21298 -19.20548 -19.19082
 Alpha  occ. eigenvalues --  -19.17373 -19.17352 -14.59502 -14.48919 -14.44654
 Alpha  occ. eigenvalues --  -14.44032 -14.43081 -14.41569 -14.41328 -10.43131
 Alpha  occ. eigenvalues --  -10.40333 -10.37525 -10.35944 -10.35774 -10.34365
 Alpha  occ. eigenvalues --  -10.33530 -10.33295 -10.32186 -10.30517 -10.30342
 Alpha  occ. eigenvalues --  -10.29876 -10.29164 -10.29069 -10.28792 -10.28412
 Alpha  occ. eigenvalues --  -10.28364 -10.28163 -10.28084 -10.25524 -10.25326
 Alpha  occ. eigenvalues --  -10.25274 -10.25000 -10.24948 -10.24836 -10.24749
 Alpha  occ. eigenvalues --  -10.24415 -10.24338 -10.24072  -1.19010  -1.13510
 Alpha  occ. eigenvalues --   -1.13237  -1.12609  -1.11189  -1.09065  -1.08701
 Alpha  occ. eigenvalues --   -1.05683  -1.05219  -1.04603  -1.00925  -0.99862
 Alpha  occ. eigenvalues --   -0.98271  -0.96925  -0.95117  -0.90648  -0.90087
 Alpha  occ. eigenvalues --   -0.88153  -0.86362  -0.85459  -0.84086  -0.82290
 Alpha  occ. eigenvalues --   -0.80470  -0.80404  -0.79961  -0.79407  -0.78659
 Alpha  occ. eigenvalues --   -0.75984  -0.75703  -0.73743  -0.72832  -0.72436
 Alpha  occ. eigenvalues --   -0.71674  -0.70052  -0.69361  -0.69076  -0.68801
 Alpha  occ. eigenvalues --   -0.67519  -0.65948  -0.65798  -0.65062  -0.64891
 Alpha  occ. eigenvalues --   -0.64378  -0.63499  -0.62979  -0.62683  -0.61585
 Alpha  occ. eigenvalues --   -0.60621  -0.59653  -0.59387  -0.58401  -0.57746
 Alpha  occ. eigenvalues --   -0.57687  -0.56837  -0.56195  -0.55636  -0.55294
 Alpha  occ. eigenvalues --   -0.54947  -0.54840  -0.54416  -0.53731  -0.53524
 Alpha  occ. eigenvalues --   -0.53261  -0.52881  -0.52597  -0.52486  -0.51534
 Alpha  occ. eigenvalues --   -0.51374  -0.51131  -0.50333  -0.50180  -0.49642
 Alpha  occ. eigenvalues --   -0.49511  -0.49373  -0.49015  -0.48904  -0.48600
 Alpha  occ. eigenvalues --   -0.48132  -0.47832  -0.47535  -0.47310  -0.46578
 Alpha  occ. eigenvalues --   -0.46530  -0.46139  -0.45761  -0.45677  -0.45628
 Alpha  occ. eigenvalues --   -0.45128  -0.45000  -0.44940  -0.44726  -0.44456
 Alpha  occ. eigenvalues --   -0.44149  -0.43385  -0.43086  -0.42245  -0.41820
 Alpha  occ. eigenvalues --   -0.41233  -0.41081  -0.40658  -0.40038  -0.39703
 Alpha  occ. eigenvalues --   -0.39481  -0.38998  -0.38874  -0.38196  -0.35173
 Alpha  occ. eigenvalues --   -0.34600  -0.34454  -0.34198  -0.33840  -0.33732
 Alpha  occ. eigenvalues --   -0.33084  -0.32414  -0.31723  -0.30810  -0.30584
 Alpha  occ. eigenvalues --   -0.28578  -0.27129
 Alpha virt. eigenvalues --   -0.11751  -0.11200  -0.07842  -0.06735  -0.06332
 Alpha virt. eigenvalues --   -0.05171  -0.04133  -0.03738  -0.03494  -0.02479
 Alpha virt. eigenvalues --   -0.02015  -0.01277  -0.00900  -0.00637   0.00036
 Alpha virt. eigenvalues --    0.00644   0.00898   0.01228   0.01724   0.02164
 Alpha virt. eigenvalues --    0.02600   0.03292   0.03748   0.04199   0.04499
 Alpha virt. eigenvalues --    0.04592   0.05111   0.05204   0.05601   0.06059
 Alpha virt. eigenvalues --    0.06567   0.06731   0.07024   0.07521   0.07594
 Alpha virt. eigenvalues --    0.07703   0.08124   0.08388   0.08666   0.09007
 Alpha virt. eigenvalues --    0.09311   0.09441   0.09717   0.09866   0.10122
 Alpha virt. eigenvalues --    0.10399   0.10867   0.11204   0.11343   0.11462
 Alpha virt. eigenvalues --    0.11940   0.11993   0.12284   0.12482   0.12534
 Alpha virt. eigenvalues --    0.12858   0.13207   0.13529   0.13717   0.14085
 Alpha virt. eigenvalues --    0.14757   0.14881   0.15375   0.15533   0.16054
 Alpha virt. eigenvalues --    0.16172   0.16327   0.16898   0.17218   0.17417
 Alpha virt. eigenvalues --    0.17653   0.18005   0.18570   0.18790   0.19085
 Alpha virt. eigenvalues --    0.20241   0.20781   0.21106   0.21624   0.22596
 Alpha virt. eigenvalues --    0.23816   0.24494   0.24742   0.25720   0.26678
 Alpha virt. eigenvalues --    0.27340   0.28491   0.29037   0.30266   0.30711
 Alpha virt. eigenvalues --    0.31732   0.32291   0.33558   0.33978   0.35101
 Alpha virt. eigenvalues --    0.36146   0.36644   0.37306   0.37428   0.37692
 Alpha virt. eigenvalues --    0.38315   0.39520   0.40135   0.40695   0.42423
 Alpha virt. eigenvalues --    0.43539   0.43801   0.44441   0.44634   0.44971
 Alpha virt. eigenvalues --    0.45316   0.45727   0.45945   0.46290   0.46671
 Alpha virt. eigenvalues --    0.46948   0.47563   0.47842   0.48178   0.49027
 Alpha virt. eigenvalues --    0.49275   0.49530   0.49650   0.50350   0.50660
 Alpha virt. eigenvalues --    0.50804   0.51040   0.51315   0.51902   0.52137
 Alpha virt. eigenvalues --    0.52600   0.53213   0.53521   0.53590   0.53782
 Alpha virt. eigenvalues --    0.54141   0.54835   0.55098   0.55202   0.55608
 Alpha virt. eigenvalues --    0.55964   0.56142   0.57062   0.57265   0.57837
 Alpha virt. eigenvalues --    0.58270   0.58446   0.58716   0.59234   0.59528
 Alpha virt. eigenvalues --    0.59741   0.60509   0.60738   0.61472   0.61873
 Alpha virt. eigenvalues --    0.62201   0.62679   0.62845   0.63383   0.64051
 Alpha virt. eigenvalues --    0.64293   0.65123   0.65885   0.66384   0.66684
 Alpha virt. eigenvalues --    0.67393   0.67684   0.68625   0.68864   0.69616
 Alpha virt. eigenvalues --    0.69823   0.70624   0.70749   0.71359   0.71649
 Alpha virt. eigenvalues --    0.72093   0.72322   0.73171   0.73279   0.73441
 Alpha virt. eigenvalues --    0.73931   0.74141   0.74465   0.74795   0.74973
 Alpha virt. eigenvalues --    0.75493   0.75718   0.75859   0.76321   0.76634
 Alpha virt. eigenvalues --    0.76898   0.77255   0.77535   0.77909   0.78205
 Alpha virt. eigenvalues --    0.78530   0.78794   0.79052   0.79280   0.79450
 Alpha virt. eigenvalues --    0.79798   0.79913   0.80343   0.80801   0.80827
 Alpha virt. eigenvalues --    0.81079   0.81346   0.81636   0.81690   0.81895
 Alpha virt. eigenvalues --    0.82058   0.82192   0.82735   0.82950   0.83597
 Alpha virt. eigenvalues --    0.83744   0.84672   0.84730   0.85041   0.85378
 Alpha virt. eigenvalues --    0.85845   0.86104   0.86501   0.86846   0.87030
 Alpha virt. eigenvalues --    0.87521   0.87556   0.87753   0.88177   0.88431
 Alpha virt. eigenvalues --    0.88941   0.89188   0.89778   0.90032   0.90436
 Alpha virt. eigenvalues --    0.90856   0.91079   0.91615   0.91952   0.92271
 Alpha virt. eigenvalues --    0.92982   0.93674   0.94031   0.94182   0.94805
 Alpha virt. eigenvalues --    0.96075   0.96567   0.97072   0.97642   0.98786
 Alpha virt. eigenvalues --    0.98990   0.99560   1.00049   1.00462   1.01582
 Alpha virt. eigenvalues --    1.01793   1.01983   1.03012   1.04091   1.04555
 Alpha virt. eigenvalues --    1.05434   1.06174   1.06680   1.07791   1.07855
 Alpha virt. eigenvalues --    1.08305   1.08723   1.10311   1.11064   1.11664
 Alpha virt. eigenvalues --    1.12141   1.12749   1.13767   1.15307   1.16012
 Alpha virt. eigenvalues --    1.17329   1.17738   1.18195   1.18809   1.18942
 Alpha virt. eigenvalues --    1.19481   1.21206   1.21482   1.23204   1.24387
 Alpha virt. eigenvalues --    1.24683   1.26147   1.27403   1.27966   1.28889
 Alpha virt. eigenvalues --    1.28943   1.29155   1.30762   1.31569   1.32168
 Alpha virt. eigenvalues --    1.32674   1.33589   1.34229   1.34631   1.35330
 Alpha virt. eigenvalues --    1.35782   1.36298   1.37272   1.37434   1.38591
 Alpha virt. eigenvalues --    1.38680   1.39887   1.40129   1.41228   1.41510
 Alpha virt. eigenvalues --    1.42483   1.43001   1.43546   1.44068   1.44334
 Alpha virt. eigenvalues --    1.45119   1.46040   1.46523   1.47486   1.48238
 Alpha virt. eigenvalues --    1.49025   1.49799   1.51992   1.53484   1.54614
 Alpha virt. eigenvalues --    1.55604   1.56096   1.56319   1.56968   1.57388
 Alpha virt. eigenvalues --    1.57739   1.58674   1.59378   1.60551   1.60892
 Alpha virt. eigenvalues --    1.62093   1.62924   1.63681   1.64078   1.64805
 Alpha virt. eigenvalues --    1.65267   1.65664   1.66780   1.66980   1.68044
 Alpha virt. eigenvalues --    1.68328   1.68440   1.68452   1.69576   1.70386
 Alpha virt. eigenvalues --    1.71267   1.72238   1.72435   1.72792   1.73264
 Alpha virt. eigenvalues --    1.73759   1.74327   1.74658   1.75252   1.75498
 Alpha virt. eigenvalues --    1.76161   1.76314   1.76474   1.76850   1.77469
 Alpha virt. eigenvalues --    1.78113   1.78684   1.79175   1.80040   1.80447
 Alpha virt. eigenvalues --    1.81022   1.81451   1.82396   1.82486   1.83483
 Alpha virt. eigenvalues --    1.84277   1.84492   1.84847   1.84912   1.85193
 Alpha virt. eigenvalues --    1.85815   1.86234   1.86640   1.88269   1.88388
 Alpha virt. eigenvalues --    1.89173   1.89288   1.89573   1.89957   1.90286
 Alpha virt. eigenvalues --    1.90663   1.91079   1.92017   1.92499   1.92715
 Alpha virt. eigenvalues --    1.93476   1.94214   1.94672   1.95413   1.95579
 Alpha virt. eigenvalues --    1.96277   1.96698   1.97175   1.97538   1.98700
 Alpha virt. eigenvalues --    1.98904   1.98962   1.99081   1.99732   2.00581
 Alpha virt. eigenvalues --    2.01596   2.02167   2.02866   2.03863   2.04245
 Alpha virt. eigenvalues --    2.04700   2.05156   2.06022   2.06200   2.06709
 Alpha virt. eigenvalues --    2.09159   2.09501   2.10452   2.10555   2.10954
 Alpha virt. eigenvalues --    2.12013   2.12027   2.12318   2.12881   2.14171
 Alpha virt. eigenvalues --    2.14279   2.14976   2.15490   2.17511   2.18315
 Alpha virt. eigenvalues --    2.19253   2.19652   2.19813   2.20133   2.20517
 Alpha virt. eigenvalues --    2.20937   2.22065   2.22783   2.23353   2.24208
 Alpha virt. eigenvalues --    2.24739   2.25333   2.26985   2.27206   2.28337
 Alpha virt. eigenvalues --    2.29116   2.29967   2.30228   2.30380   2.32133
 Alpha virt. eigenvalues --    2.32482   2.33741   2.34707   2.34777   2.34947
 Alpha virt. eigenvalues --    2.36461   2.36698   2.37426   2.37808   2.38686
 Alpha virt. eigenvalues --    2.39136   2.39817   2.41278   2.41378   2.42494
 Alpha virt. eigenvalues --    2.43385   2.43948   2.44988   2.45444   2.46115
 Alpha virt. eigenvalues --    2.47778   2.48821   2.50396   2.50956   2.51331
 Alpha virt. eigenvalues --    2.53409   2.54179   2.55741   2.56392   2.56587
 Alpha virt. eigenvalues --    2.56966   2.57569   2.59278   2.59819   2.60445
 Alpha virt. eigenvalues --    2.61068   2.61563   2.61990   2.62888   2.63275
 Alpha virt. eigenvalues --    2.63922   2.64653   2.65595   2.66351   2.67507
 Alpha virt. eigenvalues --    2.67862   2.68723   2.70385   2.71196   2.73310
 Alpha virt. eigenvalues --    2.75218   2.76030   2.76329   2.78083   2.79572
 Alpha virt. eigenvalues --    2.80432   2.81947   2.82793   2.83446   2.85331
 Alpha virt. eigenvalues --    2.86996   2.87947   2.90306   2.90783   2.92368
 Alpha virt. eigenvalues --    2.94385   2.94677   2.97032   2.98105   3.04751
 Alpha virt. eigenvalues --    3.06200   3.06952   3.10343   3.13376   3.15918
 Alpha virt. eigenvalues --    3.18212   3.38206   3.65399   3.72633   3.79964
 Alpha virt. eigenvalues --    3.92029   3.93847   3.96805   3.98300   3.99998
 Alpha virt. eigenvalues --    4.02317   4.03367   4.04980   4.06213   4.07193
 Alpha virt. eigenvalues --    4.08936   4.10728   4.12477   4.13614   4.15613
 Alpha virt. eigenvalues --    4.17637   4.17925   4.20521   4.21210   4.24617
 Alpha virt. eigenvalues --    4.25258   4.26827   4.29265   4.30921   4.31440
 Alpha virt. eigenvalues --    4.34118   4.36674   4.39310   4.40322   4.40649
 Alpha virt. eigenvalues --    4.42055   4.44772   4.49321   4.50320   4.52288
 Alpha virt. eigenvalues --    4.56263   4.59536   4.63292   4.64318   4.75522
          Condensed to atoms (all electrons):
 Mulliken charges:
               1
     1  N   -0.761097
     2  H    0.414165
     3  H    0.434704
     4  H    0.410769
     5  C   -0.115862
     6  H    0.217784
     7  C    0.659738
     8  C   -0.296282
     9  H    0.172624
    10  H    0.197498
    11  O   -0.552726
    12  C   -0.098044
    13  H    0.112743
    14  C   -0.447731
    15  H    0.167761
    16  H    0.158624
    17  H    0.174097
    18  C   -0.454380
    19  H    0.170751
    20  H    0.129356
    21  H    0.183523
    22  N   -0.608048
    23  H    0.373456
    24  C   -0.053253
    25  H    0.184710
    26  C    0.642548
    27  C   -0.351734
    28  H    0.174905
    29  H    0.161777
    30  O   -0.553643
    31  C    0.032272
    32  C    0.004747
    33  H    0.160255
    34  C    0.081822
    35  C    0.338348
    36  C   -0.220531
    37  H    0.136261
    38  N   -0.682061
    39  H    0.340012
    40  C   -0.147743
    41  H    0.135100
    42  C   -0.164324
    43  H    0.136202
    44  C   -0.146394
    45  H    0.130805
    46  N   -0.592367
    47  H    0.362832
    48  C   -0.084359
    49  H    0.189730
    50  C    0.654867
    51  C   -0.021480
    52  H    0.154312
    53  H    0.141104
    54  O   -0.554283
    55  O   -0.614733
    56  H    0.400713
    57  N   -0.574984
    58  H    0.336986
    59  C   -0.054916
    60  H    0.175285
    61  C    0.643338
    62  C   -0.477927
    63  H    0.176044
    64  H    0.163024
    65  H    0.172422
    66  O   -0.560302
    67  N   -0.613528
    68  H    0.351666
    69  C   -0.062086
    70  H    0.166776
    71  C    0.601775
    72  C   -0.266368
    73  H    0.168321
    74  H    0.153106
    75  O   -0.610876
    76  C   -0.284250
    77  H    0.148460
    78  H    0.154604
    79  C   -0.269077
    80  H    0.141271
    81  H    0.147663
    82  C   -0.155291
    83  H    0.179669
    84  H    0.144718
    85  N   -0.776692
    86  H    0.334602
    87  H    0.332324
    88  H    0.477361
    89  O   -0.482956
 Sum of Mulliken charges =   1.00000
 Mulliken charges with hydrogens summed into heavy atoms:
               1
     1  N    0.498541
     5  C    0.101922
     7  C    0.659738
     8  C    0.073840
    11  O   -0.552726
    12  C    0.014699
    14  C    0.052752
    18  C    0.029250
    22  N   -0.234591
    24  C    0.131457
    26  C    0.642548
    27  C   -0.015052
    30  O   -0.553643
    31  C    0.032272
    32  C    0.165003
    34  C    0.081822
    35  C    0.338348
    36  C   -0.084270
    38  N   -0.342049
    40  C   -0.012643
    42  C   -0.028122
    44  C   -0.015589
    46  N   -0.229535
    48  C    0.105371
    50  C    0.654867
    51  C    0.273936
    54  O   -0.554283
    55  O   -0.214019
    57  N   -0.237998
    59  C    0.120368
    61  C    0.643338
    62  C    0.033562
    66  O   -0.560302
    67  N   -0.261862
    69  C    0.104689
    71  C    0.601775
    72  C    0.055059
    75  O   -0.133516
    76  C    0.018813
    79  C    0.019856
    82  C    0.169096
    85  N   -0.109766
    89  O   -0.482956
 Electronic spatial extent (au):  <R**2>=          40555.5778
 Charge=              1.0000 electrons
 Dipole moment (field-independent basis, Debye):
    X=            -10.6133    Y=              2.4331    Z=             14.0076  Tot=             17.7419
 Quadrupole moment (field-independent basis, Debye-Ang):
   XX=            -67.1971   YY=           -231.1102   ZZ=           -190.1308
   XY=            -40.4759   XZ=            -58.1867   YZ=              5.6912
 Traceless Quadrupole moment (field-independent basis, Debye-Ang):
   XX=             95.6156   YY=            -68.2975   ZZ=            -27.3181
   XY=            -40.4759   XZ=            -58.1867   YZ=              5.6912
 Octapole moment (field-independent basis, Debye-Ang**2):
  XXX=           -791.6527  YYY=            480.0696  ZZZ=            855.8657  XYY=           -291.4746
  XXY=             82.4640  XXZ=            707.1826  XZZ=           -713.4617  YZZ=            370.0563
  YYZ=            296.7677  XYZ=           -280.2720
 Hexadecapole moment (field-independent basis, Debye-Ang**3):
 XXXX=         -16593.5021 YYYY=          -9320.5359 ZZZZ=         -13271.2679 XXXY=           2902.6138
 XXXZ=           4099.0765 YYYX=           6051.2494 YYYZ=          -3262.0047 ZZZX=           5036.5266
 ZZZY=          -2874.1557 XXYY=          -5085.0942 XXZZ=          -6443.1053 YYZZ=          -4305.2135
 XXYZ=          -1410.6131 YYXZ=           2514.2147 ZZXY=           2714.6288
 N-N= 5.408203119056D+03 E-N=-1.554718100450D+04  KE= 2.023765049109D+03
 Unable to Open any file for archive entry.
 1\1\GINC-SKL-153\SP\RB3LYP\6-31G(d)\C29H46N7O7(1+)\KENGMITH\04-Jul-202
 2\0\\# B3LYP/6-31G* empiricaldispersion=gd3bj guess=read geom=check no
 symm integral(ultrafinegrid)\\Candidate Structure: Conf:962 Charge cal
 c in gas phase\\1,1\N,0,-5.7586829141,0.7529785057,3.5243636747\H,0,-6
 .5956430048,1.2360108001,3.1898911777\H,0,-5.6562080374,-0.1877412608,
 3.0182315557\H,0,-5.8395475746,0.626882912,4.5367160316\C,0,-4.4666211
 915,1.4335551374,3.1229205309\H,0,-4.7197718903,2.384642037,2.65144676
 69\C,0,-3.8805351187,0.4419526657,2.0835750428\C,0,-3.547437759,1.6356
 122111,4.3312251895\H,0,-3.2919180085,0.6496681581,4.7429671734\H,0,-2
 .6084130811,2.0570936982,3.9539130655\O,0,-4.4663402973,-0.646145622,1
 .9361796367\C,0,-4.0984113421,2.5524079616,5.440545482\H,0,-5.02516164
 27,2.1086660108,5.844774493\C,0,-3.0876448527,2.6115058778,6.593496348
 8\H,0,-2.147259097,3.0651592202,6.2594565709\H,0,-2.8616123715,1.61284
 03489,6.9827283348\H,0,-3.4768852319,3.2160656467,7.4180159535\C,0,-4.
 4285096697,3.9578897783,4.923169049\H,0,-3.5410232934,4.4277139938,4.4
 826275044\H,0,-5.2209500852,3.9591400936,4.1646252278\H,0,-4.769371184
 7,4.5971546148,5.742857306\N,0,-2.7839481365,0.8295780836,1.4606409664
 \H,0,-2.3458758676,1.7430906045,1.6084187173\C,0,-2.0452090662,0.04539
 94379,0.4741308633\H,0,-1.9720020947,-0.9896734693,0.8177336509\C,0,-0
 .6649124009,0.722095107,0.4316525374\C,0,-2.7542145332,0.0932829183,-0
 .9090116152\H,0,-3.697768632,-0.4525240917,-0.8059766357\H,0,-3.004686
 5316,1.1419013483,-1.1080133914\O,0,-0.5793144134,1.9186268494,0.72322
 26891\C,0,-1.9354165055,-0.4486854618,-2.0384174188\C,0,-1.8992911327,
 -1.7432084598,-2.5036016106\H,0,-2.4447233451,-2.6142909567,-2.1669532
 805\C,0,-1.0246000061,0.3098823114,-2.8627880293\C,0,-0.4839194412,-0.
 5885449345,-3.8220547977\C,0,-0.6093381161,1.652431512,-2.8743259838\H
 ,0,-0.983362717,2.3536446165,-2.1335177052\N,0,-1.0414253828,-1.826871
 1272,-3.5793773924\H,0,-0.7844613327,-2.6810761872,-4.0491059509\C,0,0
 .8100349566,1.1594916742,-4.7931874001\H,0,1.5076463634,1.5153522914,-
 5.5455501207\C,0,0.4303946061,-0.1774493048,-4.7958983012\H,0,0.822245
 4697,-0.8734879742,-5.5320161917\C,0,0.3021278618,2.0638800501,-3.8381
 94559\H,0,0.6269054255,3.0998323686,-3.8626371591\N,0,0.3470021193,-0.
 0702638485,0.0567705009\H,0,0.1486987134,-0.9869327985,-0.3387559738\C
 ,0,1.6667533829,0.4255696556,-0.28743692\H,0,1.5953992568,1.4997627469
 ,-0.4777693414\C,0,2.1164764371,-0.3571142692,-1.5242533532\C,0,2.6842
 172504,0.1684365749,0.833069964\H,0,3.6817942412,0.4677787513,0.481202
 3735\H,0,2.7167530534,-0.914343193,1.02609814\O,0,1.7064395574,-1.4999
 860122,-1.7197882545\O,0,2.2683141956,0.9014980767,1.9719896564\H,0,2.
 9201255514,0.7475433279,2.6723378906\N,0,3.0067524658,0.268858741,-2.3
 247195955\H,0,3.4078858861,1.1370656099,-1.9965191903\C,0,3.7903393517
 ,-0.5008689272,-3.2721870485\H,0,3.089968104,-1.1079204921,-3.85207075
 03\C,0,4.751081591,-1.4250271842,-2.4953174397\C,0,4.5681227864,0.4371
 628513,-4.1966715658\H,0,5.1359006363,-0.1359231376,-4.9345127556\H,0,
 5.2792361505,1.0415639911,-3.6215797613\H,0,3.8796163599,1.1043338326,
 -4.7229592226\O,0,5.1457056218,-1.1398690448,-1.363681799\N,0,5.148029
 4897,-2.5210741042,-3.1699470631\H,0,4.7959742026,-2.7556940714,-4.091
 9808358\C,0,6.1015046836,-3.4661011811,-2.6196133463\H,0,6.8938817081,
 -2.8942322288,-2.1361181668\C,0,6.6764788234,-4.2561920994,-3.80103367
 77\C,0,5.4004377007,-4.3956702472,-1.5947255719\H,0,4.9352356467,-3.74
 17570822,-0.8487775194\H,0,4.587226576,-4.8917026405,-2.1374581726\O,0
 ,7.8583357873,-4.8257844106,-3.604826882\C,0,6.2630991316,-5.460773772
 7,-0.8993591651\H,0,5.5849220381,-6.2229506081,-0.4973098139\H,0,6.882
 8651159,-5.9823799262,-1.6359644168\C,0,7.1291947927,-4.9689956668,0.2
 721650906\H,0,7.6626386938,-5.833204783,0.6927971435\H,0,6.4790553144,
 -4.5944137356,1.0733999958\C,0,8.1447614047,-3.8686201681,-0.041662960
 3\H,0,7.628418665,-2.9364102682,-0.2914169476\H,0,8.7434585307,-3.6671
 310673,0.8581830386\N,0,9.0010977037,-4.2363337529,-1.1926633371\H,0,9
 .702643776,-3.5132490064,-1.3501853022\H,0,9.5212419575,-5.0864417455,
 -0.9711850564\H,0,8.2490243553,-4.5753649014,-2.7017978405\O,0,6.05368
 14604,-4.3661145793,-4.8397949133\\Version=ES64L-G16RevC.01\HF=-2042.6
 883238\RMSD=8.888e-09\Dipole=-6.5611473,2.2272148,6.7048876\Quadrupole
 =71.0878714,-50.7775345,-20.3103369,-30.0928578,-43.2603788,4.231246\P
 G=C01 [X(C29H46N7O7)]\\@
 The archive entry for this job was punched.


 THE FIRST MORNING OF CREATION WROTE WHAT THE LAST DAWN OF
 RECKONING SHALL READ. -- OMAR KHAYYAM
 Job cpu time:       0 days  0 hours  1 minutes 57.7 seconds.
 Elapsed time:       0 days  0 hours  0 minutes 30.1 seconds.
 File lengths (MBytes):  RWF=    400 Int=      0 D2E=      0 Chk=     64 Scr=     16
 Normal termination of Gaussian 16 at Mon Jul  4 15:09:30 2022.
