 Entering Gaussian System, Link 0=/opt/software/Gaussian/g16-AVX2-C.01/g16/g16
 Input=charge-conf-112.com
 Output=charge-conf-112.log
 Initial command:
 /opt/software/Gaussian/g16-AVX2-C.01/g16/l1.exe "/mnt/gs18/scratch/users/kengmith/Gau-8859.inp" -scrdir="/mnt/gs18/scratch/users/kengmith/"
 Entering Link 1 = /opt/software/Gaussian/g16-AVX2-C.01/g16/l1.exe PID=      8870.
  
 Copyright (c) 1988-2019, Gaussian, Inc.  All Rights Reserved.
  
 This is part of the Gaussian(R) 16 program.  It is based on
 the Gaussian(R) 09 system (copyright 2009, Gaussian, Inc.),
 the Gaussian(R) 03 system (copyright 2003, Gaussian, Inc.),
 the Gaussian(R) 98 system (copyright 1998, Gaussian, Inc.),
 the Gaussian(R) 94 system (copyright 1995, Gaussian, Inc.),
 the Gaussian 92(TM) system (copyright 1992, Gaussian, Inc.),
 the Gaussian 90(TM) system (copyright 1990, Gaussian, Inc.),
 the Gaussian 88(TM) system (copyright 1988, Gaussian, Inc.),
 the Gaussian 86(TM) system (copyright 1986, Carnegie Mellon
 University), and the Gaussian 82(TM) system (copyright 1983,
 Carnegie Mellon University). Gaussian is a federally registered
 trademark of Gaussian, Inc.
  
 This software contains proprietary and confidential information,
 including trade secrets, belonging to Gaussian, Inc.
  
 This software is provided under written license and may be
 used, copied, transmitted, or stored only in accord with that
 written license.
  
 The following legend is applicable only to US Government
 contracts under FAR:
  
                    RESTRICTED RIGHTS LEGEND
  
 Use, reproduction and disclosure by the US Government is
 subject to restrictions as set forth in subparagraphs (a)
 and (c) of the Commercial Computer Software - Restricted
 Rights clause in FAR 52.227-19.
  
 Gaussian, Inc.
 340 Quinnipiac St., Bldg. 40, Wallingford CT 06492
  
  
 ---------------------------------------------------------------
 Warning -- This program may not be used in any manner that
 competes with the business of Gaussian, Inc. or will provide
 assistance to any competitor of Gaussian, Inc.  The licensee
 of this program is prohibited from giving any competitor of
 Gaussian, Inc. access to this program.  By using this program,
 the user acknowledges that Gaussian, Inc. is engaged in the
 business of creating and licensing software in the field of
 computational chemistry and represents and warrants to the
 licensee that it is not a competitor of Gaussian, Inc. and that
 it will not use this program in any manner prohibited above.
 ---------------------------------------------------------------
  

 Cite this work as:
 Gaussian 16, Revision C.01,
 M. J. Frisch, G. W. Trucks, H. B. Schlegel, G. E. Scuseria, 
 M. A. Robb, J. R. Cheeseman, G. Scalmani, V. Barone, 
 G. A. Petersson, H. Nakatsuji, X. Li, M. Caricato, A. V. Marenich, 
 J. Bloino, B. G. Janesko, R. Gomperts, B. Mennucci, H. P. Hratchian, 
 J. V. Ortiz, A. F. Izmaylov, J. L. Sonnenberg, D. Williams-Young, 
 F. Ding, F. Lipparini, F. Egidi, J. Goings, B. Peng, A. Petrone, 
 T. Henderson, D. Ranasinghe, V. G. Zakrzewski, J. Gao, N. Rega, 
 G. Zheng, W. Liang, M. Hada, M. Ehara, K. Toyota, R. Fukuda, 
 J. Hasegawa, M. Ishida, T. Nakajima, Y. Honda, O. Kitao, H. Nakai, 
 T. Vreven, K. Throssell, J. A. Montgomery, Jr., J. E. Peralta, 
 F. Ogliaro, M. J. Bearpark, J. J. Heyd, E. N. Brothers, K. N. Kudin, 
 V. N. Staroverov, T. A. Keith, R. Kobayashi, J. Normand, 
 K. Raghavachari, A. P. Rendell, J. C. Burant, S. S. Iyengar, 
 J. Tomasi, M. Cossi, J. M. Millam, M. Klene, C. Adamo, R. Cammi, 
 J. W. Ochterski, R. L. Martin, K. Morokuma, O. Farkas, 
 J. B. Foresman, and D. J. Fox, Gaussian, Inc., Wallingford CT, 2019.
 
 ******************************************
 Gaussian 16:  ES64L-G16RevC.01  3-Jul-2019
                 4-Jul-2022 
 ******************************************
 %mem=8gb
 %nproc=4
 Will use up to    4 processors via shared memory.
 %chk=conf-112.chk
 ----------------------------------------------------------------------
 # B3LYP/6-31G* empiricaldispersion=gd3bj guess=read geom=check nosymm 
 integral(ultrafinegrid)
 ----------------------------------------------------------------------
 1/29=2,38=1,172=1/1;
 2/12=2,15=1,40=1/2;
 3/5=1,6=6,7=1,11=2,14=-4,25=1,30=1,74=-5,75=-5,116=-2,124=41/1,2,3;
 4/5=1/1;
 5/5=2,38=6/2;
 6/7=2,8=2,9=2,10=2,28=1/1;
 99/5=1,9=1/99;
 ------------------------------------------------------
 Candidate Structure: Conf:112 Charge calc in gas phase
 ------------------------------------------------------
 Structure from the checkpoint file:  "conf-112.chk"
 Charge =  1 Multiplicity = 1
 Redundant internal coordinates found in file.  (old form).
 N,0,-3.628958305,-3.3555344909,2.5074795345
 H,0,-4.601744852,-3.5002637735,2.2203452859
 H,0,-3.0062960244,-3.8655147332,1.8365432438
 H,0,-3.5141786865,-3.7061071519,3.4642393743
 C,0,-3.1741767287,-1.9136653398,2.3797870234
 H,0,-4.0593844732,-1.2774775956,2.4332060255
 C,0,-2.5046941169,-1.8574321647,0.9975598105
 C,0,-2.1682440204,-1.5899856712,3.494642512
 H,0,-1.3080063285,-2.2617128517,3.3860243794
 H,0,-1.7663424288,-0.5938495851,3.2870757263
 O,0,-2.1278514862,-2.9355020479,0.4980730757
 C,0,-2.7358324079,-1.6450330529,4.9253902012
 H,0,-3.1013822029,-2.6672074844,5.1379701178
 C,0,-1.5999192495,-1.367380216,5.91972844
 H,0,-1.2038989175,-0.3554981993,5.777489679
 H,0,-0.7727649922,-2.0736705716,5.7931018399
 H,0,-1.9605491411,-1.4463460593,6.9494029188
 C,0,-3.9020982585,-0.6705997223,5.1312420476
 H,0,-3.5888279322,0.3575035455,4.914008754
 H,0,-4.7707986108,-0.8991078827,4.5008746031
 H,0,-4.2462921201,-0.6983907687,6.1690905291
 N,0,-2.3821326809,-0.6532578897,0.4396799177
 H,0,-2.6282329819,0.1417231636,1.0199155847
 C,0,-1.3214590678,-0.4055031285,-0.5384034765
 H,0,-1.2743605159,-1.2981301225,-1.1581834212
 C,0,0.005888431,-0.3041891244,0.2660240708
 C,0,-1.6329678745,0.7857883582,-1.4820991217
 H,0,-2.7255200759,0.8896227351,-1.5315942477
 H,0,-1.2395002967,1.7174368723,-1.0614379115
 O,0,0.0183943184,-0.5479323489,1.4774075771
 C,0,-1.0682763292,0.5250160374,-2.846565671
 C,0,-0.0319947673,1.1707445543,-3.5024269245
 H,0,0.572885069,2.0028784452,-3.174675957
 C,0,-1.4873064826,-0.5421375801,-3.714826244
 C,0,-0.6450200202,-0.4848217483,-4.8667859207
 C,0,-2.4887366902,-1.5351428797,-3.6508633608
 H,0,-3.2056886531,-1.5513296522,-2.8299586619
 N,0,0.2143108638,0.5778555662,-4.7081623879
 H,0,1.0765692986,0.7352585704,-5.2879734262
 C,0,-1.7420932877,-2.3740389444,-5.8243172536
 H,0,-1.8534219201,-3.0976072697,-6.6258493533
 C,0,-0.7494708236,-1.4020634185,-5.9181815165
 H,0,-0.0341749977,-1.370915872,-6.7357743561
 C,0,-2.611965823,-2.4355685367,-4.71398433
 H,0,-3.4057366884,-3.1786243118,-4.6999465466
 N,0,1.0741496245,0.0267616053,-0.4612292404
 H,0,0.9790063346,0.2906269924,-1.4425600477
 C,0,2.4177898227,0.1890455653,0.0773340487
 H,0,2.3844911112,0.8471685948,0.9562622163
 C,0,3.2072397668,0.8685376883,-1.0582726035
 C,0,3.024942246,-1.1649026397,0.5172388626
 H,0,2.3608360382,-1.5826394326,1.2786476076
 H,0,3.9934021006,-0.9799169154,1.007908137
 O,0,2.6151050662,1.2813822289,-2.052796682
 O,0,3.1246012697,-2.1061159705,-0.5216474637
 H,0,3.9242073504,-1.9224771834,-1.0709210933
 N,0,4.5577511576,0.9334766339,-0.9430017021
 H,0,4.984521229,0.3912852783,-0.2021403601
 C,0,5.3377656704,0.9477599025,-2.2003496546
 H,0,5.0170071246,1.8169321714,-2.7767791899
 C,0,4.9587335373,-0.3670538959,-2.912997544
 C,0,6.8264530224,1.0117122532,-1.8887058306
 H,0,7.3993945221,1.0697235673,-2.8185114734
 H,0,7.13854605,0.1059416477,-1.3584699007
 H,0,7.0592853663,1.8911933788,-1.2808873801
 O,0,5.1709155983,-1.4427242526,-2.3148170393
 N,0,4.3418161124,-0.2542957407,-4.0855586852
 H,0,4.0250413095,0.651885091,-4.44075398
 C,0,3.6485686313,-1.3370750054,-4.7782093812
 H,0,4.3702627616,-2.0677640512,-5.1537387408
 C,0,2.8088053262,-0.7084539989,-5.9329164655
 C,0,2.6130755275,-2.0158400899,-3.8550033745
 H,0,2.9642841893,-1.998392733,-2.8278038028
 H,0,1.699578047,-1.4097726225,-3.883920119
 O,0,2.2616073933,-1.5084189693,-6.7101922165
 C,0,2.301048537,-3.4565523993,-4.2626234554
 H,0,2.3233109043,-3.5285649543,-5.3533685542
 H,0,3.0700379554,-4.1285555383,-3.8615640472
 C,0,0.9035863908,-3.8912951691,-3.8011951371
 H,0,0.7624188862,-4.9695227669,-3.9623693171
 H,0,0.1727043819,-3.3702744095,-4.4287819037
 C,0,0.6044027519,-3.5514454754,-2.3460931145
 H,0,1.1444775042,-4.1696388049,-1.6257574312
 H,0,0.8100921494,-2.507454913,-2.1107100948
 N,0,-0.8826954069,-3.7525311925,-2.1031177547
 H,0,-1.1853722236,-3.5085315171,-1.145290994
 H,0,-1.4241239568,-3.1512201152,-2.7692192388
 H,0,-1.1479755735,-4.7232217766,-2.2947668289
 O,0,2.6511549418,0.5548319556,-5.846181453
 Recover connectivity data from disk.
                           ----------------------------
                           !    Current Parameters    !
                           ! (Angstroms and Degrees)  !
 --------------------------                            --------------------------
 ! Name  Definition              Value                                          !
 --------------------------------------------------------------------------------
 ! R1    R(1,2)                  1.0246                                         !
 ! R2    R(1,3)                  1.0478                                         !
 ! R3    R(1,4)                  1.0254                                         !
 ! R4    R(1,5)                  1.5173                                         !
 ! R5    R(5,6)                  1.0914                                         !
 ! R6    R(5,7)                  1.5369                                         !
 ! R7    R(5,8)                  1.5361                                         !
 ! R8    R(7,11)                 1.2465                                         !
 ! R9    R(7,22)                 1.3328                                         !
 ! R10   R(8,9)                  1.0968                                         !
 ! R11   R(8,10)                 1.094                                          !
 ! R12   R(8,12)                 1.5402                                         !
 ! R13   R(12,13)                1.1062                                         !
 ! R14   R(12,14)                1.535                                          !
 ! R15   R(12,18)                1.5336                                         !
 ! R16   R(14,15)                1.0959                                         !
 ! R17   R(14,16)                1.095                                          !
 ! R18   R(14,17)                1.0939                                         !
 ! R19   R(18,19)                1.0965                                         !
 ! R20   R(18,20)                1.0974                                         !
 ! R21   R(18,21)                1.0938                                         !
 ! R22   R(22,23)                1.0145                                         !
 ! R23   R(22,24)                1.4639                                         !
 ! R24   R(24,25)                1.0877                                         !
 ! R25   R(24,26)                1.5554                                         !
 ! R26   R(24,27)                1.5514                                         !
 ! R27   R(26,30)                1.2357                                         !
 ! R28   R(26,46)                1.334                                          !
 ! R29   R(27,28)                1.0986                                         !
 ! R30   R(27,29)                1.0953                                         !
 ! R31   R(27,31)                1.4995                                         !
 ! R32   R(31,32)                1.386                                          !
 ! R33   R(31,34)                1.4382                                         !
 ! R34   R(32,33)                1.0797                                         !
 ! R35   R(32,38)                1.366                                          !
 ! R36   R(34,35)                1.4282                                         !
 ! R37   R(34,36)                1.4117                                         !
 ! R38   R(35,38)                1.3758                                         !
 ! R39   R(35,42)                1.3992                                         !
 ! R40   R(36,37)                1.09                                           !
 ! R41   R(36,44)                1.3986                                         !
 ! R42   R(38,39)                1.0509                                         !
 ! R43   R(40,41)                1.0855                                         !
 ! R44   R(40,42)                1.3924                                         !
 ! R45   R(40,44)                1.4118                                         !
 ! R46   R(42,43)                1.0868                                         !
 ! R47   R(44,45)                1.0874                                         !
 ! R48   R(46,47)                1.0206                                         !
 ! R49   R(46,48)                1.4566                                         !
 ! R50   R(48,49)                1.0985                                         !
 ! R51   R(48,50)                1.541                                          !
 ! R52   R(48,51)                1.5477                                         !
 ! R53   R(50,54)                1.2289                                         !
 ! R54   R(50,57)                1.357                                          !
 ! R55   R(51,52)                1.0933                                         !
 ! R56   R(51,53)                1.1013                                         !
 ! R57   R(51,55)                1.4054                                         !
 ! R58   R(55,56)                0.9873                                         !
 ! R59   R(57,58)                1.0124                                         !
 ! R60   R(57,59)                1.4797                                         !
 ! R61   R(59,60)                1.0912                                         !
 ! R62   R(59,61)                1.5428                                         !
 ! R63   R(59,62)                1.5223                                         !
 ! R64   R(61,66)                1.249                                          !
 ! R65   R(61,67)                1.3297                                         !
 ! R66   R(62,63)                1.0937                                         !
 ! R67   R(62,64)                1.095                                          !
 ! R68   R(62,65)                1.0941                                         !
 ! R69   R(67,68)                1.0236                                         !
 ! R70   R(67,69)                1.4604                                         !
 ! R71   R(69,70)                1.0935                                         !
 ! R72   R(69,71)                1.56                                           !
 ! R73   R(69,72)                1.5444                                         !
 ! R74   R(71,75)                1.2424                                         !
 ! R75   R(71,89)                1.276                                          !
 ! R76   R(72,73)                1.0857                                         !
 ! R77   R(72,74)                1.0966                                         !
 ! R78   R(72,76)                1.5294                                         !
 ! R79   R(76,77)                1.0933                                         !
 ! R80   R(76,78)                1.0972                                         !
 ! R81   R(76,79)                1.5345                                         !
 ! R82   R(79,80)                1.0993                                         !
 ! R83   R(79,81)                1.0952                                         !
 ! R84   R(79,82)                1.5239                                         !
 ! R85   R(82,83)                1.0921                                         !
 ! R86   R(82,84)                1.0898                                         !
 ! R87   R(82,85)                1.5202                                         !
 ! R88   R(85,86)                1.0337                                         !
 ! R89   R(85,87)                1.0481                                         !
 ! R90   R(85,88)                1.0244                                         !
 ! A1    A(2,1,3)              108.4221                                         !
 ! A2    A(2,1,4)              108.6312                                         !
 ! A3    A(2,1,5)              113.2814                                         !
 ! A4    A(3,1,4)              111.3787                                         !
 ! A5    A(3,1,5)              103.3272                                         !
 ! A6    A(4,1,5)              111.7075                                         !
 ! A7    A(1,5,6)              107.861                                          !
 ! A8    A(1,5,7)              103.9476                                         !
 ! A9    A(1,5,8)              109.6                                            !
 ! A10   A(6,5,7)              112.0866                                         !
 ! A11   A(6,5,8)              111.8877                                         !
 ! A12   A(7,5,8)              111.0861                                         !
 ! A13   A(5,7,11)             117.4162                                         !
 ! A14   A(5,7,22)             116.7173                                         !
 ! A15   A(11,7,22)            125.8664                                         !
 ! A16   A(5,8,9)              108.2213                                         !
 ! A17   A(5,8,10)             107.1416                                         !
 ! A18   A(5,8,12)             115.1721                                         !
 ! A19   A(9,8,10)             104.5202                                         !
 ! A20   A(9,8,12)             111.0467                                         !
 ! A21   A(10,8,12)            110.1308                                         !
 ! A22   A(8,12,13)            109.4705                                         !
 ! A23   A(8,12,14)            108.8192                                         !
 ! A24   A(8,12,18)            112.471                                          !
 ! A25   A(13,12,14)           106.6909                                         !
 ! A26   A(13,12,18)           108.0605                                         !
 ! A27   A(14,12,18)           111.1541                                         !
 ! A28   A(12,14,15)           110.5096                                         !
 ! A29   A(12,14,16)           111.5566                                         !
 ! A30   A(12,14,17)           110.6556                                         !
 ! A31   A(15,14,16)           107.9135                                         !
 ! A32   A(15,14,17)           107.9371                                         !
 ! A33   A(16,14,17)           108.1394                                         !
 ! A34   A(12,18,19)           110.6025                                         !
 ! A35   A(12,18,20)           113.1153                                         !
 ! A36   A(12,18,21)           110.5189                                         !
 ! A37   A(19,18,20)           107.9149                                         !
 ! A38   A(19,18,21)           107.5603                                         !
 ! A39   A(20,18,21)           106.8974                                         !
 ! A40   A(7,22,23)            116.5057                                         !
 ! A41   A(7,22,24)            119.9476                                         !
 ! A42   A(23,22,24)           115.1676                                         !
 ! A43   A(22,24,25)           105.8539                                         !
 ! A44   A(22,24,26)           106.4868                                         !
 ! A45   A(22,24,27)           113.01                                           !
 ! A46   A(25,24,26)           108.1313                                         !
 ! A47   A(25,24,27)           106.9929                                         !
 ! A48   A(26,24,27)           115.8452                                         !
 ! A49   A(24,26,30)           120.1847                                         !
 ! A50   A(24,26,46)           114.6825                                         !
 ! A51   A(30,26,46)           125.1172                                         !
 ! A52   A(24,27,28)           107.4381                                         !
 ! A53   A(24,27,29)           110.3282                                         !
 ! A54   A(24,27,31)           110.142                                          !
 ! A55   A(28,27,29)           107.1072                                         !
 ! A56   A(28,27,31)           110.484                                          !
 ! A57   A(29,27,31)           111.2289                                         !
 ! A58   A(27,31,32)           129.1323                                         !
 ! A59   A(27,31,34)           124.6573                                         !
 ! A60   A(32,31,34)           106.1329                                         !
 ! A61   A(31,32,33)           129.3678                                         !
 ! A62   A(31,32,38)           110.5048                                         !
 ! A63   A(33,32,38)           120.0951                                         !
 ! A64   A(31,34,35)           106.5796                                         !
 ! A65   A(31,34,36)           134.5288                                         !
 ! A66   A(35,34,36)           118.8894                                         !
 ! A67   A(34,35,38)           107.8401                                         !
 ! A68   A(34,35,42)           122.3959                                         !
 ! A69   A(38,35,42)           129.7631                                         !
 ! A70   A(34,36,37)           120.7396                                         !
 ! A71   A(34,36,44)           118.7439                                         !
 ! A72   A(37,36,44)           120.3269                                         !
 ! A73   A(32,38,35)           108.9284                                         !
 ! A74   A(32,38,39)           124.7443                                         !
 ! A75   A(35,38,39)           124.3703                                         !
 ! A76   A(41,40,42)           119.2498                                         !
 ! A77   A(41,40,44)           119.2387                                         !
 ! A78   A(42,40,44)           121.5105                                         !
 ! A79   A(35,42,40)           117.3983                                         !
 ! A80   A(35,42,43)           119.8279                                         !
 ! A81   A(40,42,43)           122.6783                                         !
 ! A82   A(36,44,40)           121.0271                                         !
 ! A83   A(36,44,45)           119.6323                                         !
 ! A84   A(40,44,45)           119.3205                                         !
 ! A85   A(26,46,47)           120.9077                                         !
 ! A86   A(26,46,48)           124.3846                                         !
 ! A87   A(47,46,48)           114.3735                                         !
 ! A88   A(46,48,49)           109.5488                                         !
 ! A89   A(46,48,50)           104.4317                                         !
 ! A90   A(46,48,51)           111.6845                                         !
 ! A91   A(49,48,50)           109.9371                                         !
 ! A92   A(49,48,51)           107.9737                                         !
 ! A93   A(50,48,51)           113.2189                                         !
 ! A94   A(48,50,54)           119.8474                                         !
 ! A95   A(48,50,57)           117.9287                                         !
 ! A96   A(54,50,57)           122.1558                                         !
 ! A97   A(48,51,52)           107.0926                                         !
 ! A98   A(48,51,53)           108.9454                                         !
 ! A99   A(48,51,55)           113.803                                          !
 ! A100  A(52,51,53)           106.7416                                         !
 ! A101  A(52,51,55)           107.5778                                         !
 ! A102  A(53,51,55)           112.3014                                         !
 ! A103  A(51,55,56)           110.1277                                         !
 ! A104  A(50,57,58)           117.1333                                         !
 ! A105  A(50,57,59)           116.9304                                         !
 ! A106  A(58,57,59)           113.8767                                         !
 ! A107  A(57,59,60)           107.5548                                         !
 ! A108  A(57,59,61)           104.7599                                         !
 ! A109  A(57,59,62)           109.9957                                         !
 ! A110  A(60,59,61)           111.2604                                         !
 ! A111  A(60,59,62)           111.2326                                         !
 ! A112  A(61,59,62)           111.7536                                         !
 ! A113  A(59,61,66)           118.0997                                         !
 ! A114  A(59,61,67)           116.6814                                         !
 ! A115  A(66,61,67)           125.0422                                         !
 ! A116  A(59,62,63)           109.906                                          !
 ! A117  A(59,62,64)           110.0666                                         !
 ! A118  A(59,62,65)           110.8299                                         !
 ! A119  A(63,62,64)           107.8331                                         !
 ! A120  A(63,62,65)           108.552                                          !
 ! A121  A(64,62,65)           109.5881                                         !
 ! A122  A(61,67,68)           121.6451                                         !
 ! A123  A(61,67,69)           125.1407                                         !
 ! A124  A(68,67,69)           110.1759                                         !
 ! A125  A(67,69,70)           110.1825                                         !
 ! A126  A(67,69,71)           107.9283                                         !
 ! A127  A(67,69,72)           111.1375                                         !
 ! A128  A(70,69,71)           111.7359                                         !
 ! A129  A(70,69,72)           110.7386                                         !
 ! A130  A(71,69,72)           104.9891                                         !
 ! A131  A(69,71,75)           116.1491                                         !
 ! A132  A(69,71,89)           114.5269                                         !
 ! A133  A(75,71,89)           128.724                                          !
 ! A134  A(69,72,73)           109.9743                                         !
 ! A135  A(69,72,74)           107.4483                                         !
 ! A136  A(69,72,76)           113.0459                                         !
 ! A137  A(73,72,74)           106.5901                                         !
 ! A138  A(73,72,76)           109.4682                                         !
 ! A139  A(74,72,76)           110.098                                          !
 ! A140  A(72,76,77)           108.8912                                         !
 ! A141  A(72,76,78)           109.6665                                         !
 ! A142  A(72,76,79)           111.8711                                         !
 ! A143  A(77,76,78)           108.0627                                         !
 ! A144  A(77,76,79)           107.4493                                         !
 ! A145  A(78,76,79)           110.7836                                         !
 ! A146  A(76,79,80)           110.5319                                         !
 ! A147  A(76,79,81)           107.4963                                         !
 ! A148  A(76,79,82)           113.7485                                         !
 ! A149  A(80,79,81)           107.2708                                         !
 ! A150  A(80,79,82)           109.4823                                         !
 ! A151  A(81,79,82)           108.0616                                         !
 ! A152  A(79,82,83)           113.9832                                         !
 ! A153  A(79,82,84)           112.5085                                         !
 ! A154  A(79,82,85)           108.3711                                         !
 ! A155  A(83,82,84)           107.8462                                         !
 ! A156  A(83,82,85)           107.6656                                         !
 ! A157  A(84,82,85)           106.0713                                         !
 ! A158  A(82,85,86)           113.7851                                         !
 ! A159  A(82,85,87)           109.1406                                         !
 ! A160  A(82,85,88)           110.4125                                         !
 ! A161  A(86,85,87)           107.5904                                         !
 ! A162  A(86,85,88)           108.7353                                         !
 ! A163  A(87,85,88)           106.9168                                         !
 ! D1    D(2,1,5,6)             24.5516                                         !
 ! D2    D(2,1,5,7)            -94.5972                                         !
 ! D3    D(2,1,5,8)            146.5909                                         !
 ! D4    D(3,1,5,6)            141.6473                                         !
 ! D5    D(3,1,5,7)             22.4985                                         !
 ! D6    D(3,1,5,8)            -96.3134                                         !
 ! D7    D(4,1,5,6)            -98.5167                                         !
 ! D8    D(4,1,5,7)            142.3346                                         !
 ! D9    D(4,1,5,8)             23.5226                                         !
 ! D10   D(1,5,7,11)           -20.1958                                         !
 ! D11   D(1,5,7,22)           159.6956                                         !
 ! D12   D(6,5,7,11)          -136.4168                                         !
 ! D13   D(6,5,7,22)            43.4747                                         !
 ! D14   D(8,5,7,11)            97.5928                                         !
 ! D15   D(8,5,7,22)           -82.5158                                         !
 ! D16   D(1,5,8,9)             60.291                                          !
 ! D17   D(1,5,8,10)           172.4862                                         !
 ! D18   D(1,5,8,12)           -64.6318                                         !
 ! D19   D(6,5,8,9)            179.8897                                         !
 ! D20   D(6,5,8,10)           -67.9151                                         !
 ! D21   D(6,5,8,12)            54.9669                                         !
 ! D22   D(7,5,8,9)            -54.0095                                         !
 ! D23   D(7,5,8,10)            58.1857                                         !
 ! D24   D(7,5,8,12)          -178.9323                                         !
 ! D25   D(5,7,22,23)            7.7542                                         !
 ! D26   D(5,7,22,24)          154.4497                                         !
 ! D27   D(11,7,22,23)        -172.3647                                         !
 ! D28   D(11,7,22,24)         -25.6692                                         !
 ! D29   D(5,8,12,13)           61.0199                                         !
 ! D30   D(5,8,12,14)          177.2719                                         !
 ! D31   D(5,8,12,18)          -59.1174                                         !
 ! D32   D(9,8,12,13)          -62.4184                                         !
 ! D33   D(9,8,12,14)           53.8335                                         !
 ! D34   D(9,8,12,18)          177.4443                                         !
 ! D35   D(10,8,12,13)        -177.7068                                         !
 ! D36   D(10,8,12,14)         -61.4548                                         !
 ! D37   D(10,8,12,18)          62.1559                                         !
 ! D38   D(8,12,14,15)          63.1972                                         !
 ! D39   D(8,12,14,16)         -56.8606                                         !
 ! D40   D(8,12,14,17)        -177.3027                                         !
 ! D41   D(13,12,14,15)       -178.7802                                         !
 ! D42   D(13,12,14,16)         61.1621                                         !
 ! D43   D(13,12,14,17)        -59.28                                           !
 ! D44   D(18,12,14,15)        -61.1949                                         !
 ! D45   D(18,12,14,16)        178.7473                                         !
 ! D46   D(18,12,14,17)         58.3052                                         !
 ! D47   D(8,12,18,19)         -58.0813                                         !
 ! D48   D(8,12,18,20)          63.1016                                         !
 ! D49   D(8,12,18,21)        -177.084                                          !
 ! D50   D(13,12,18,19)       -179.0305                                         !
 ! D51   D(13,12,18,20)        -57.8476                                         !
 ! D52   D(13,12,18,21)         61.9668                                         !
 ! D53   D(14,12,18,19)         64.2194                                         !
 ! D54   D(14,12,18,20)       -174.5977                                         !
 ! D55   D(14,12,18,21)        -54.7834                                         !
 ! D56   D(7,22,24,25)          40.3381                                         !
 ! D57   D(7,22,24,26)         -74.5863                                         !
 ! D58   D(7,22,24,27)         157.1251                                         !
 ! D59   D(23,22,24,25)       -172.5441                                         !
 ! D60   D(23,22,24,26)         72.5315                                         !
 ! D61   D(23,22,24,27)        -55.757                                          !
 ! D62   D(22,24,26,30)          6.3996                                         !
 ! D63   D(22,24,26,46)       -174.9651                                         !
 ! D64   D(25,24,26,30)       -106.9724                                         !
 ! D65   D(25,24,26,46)         71.6629                                         !
 ! D66   D(27,24,26,30)        133.0065                                         !
 ! D67   D(27,24,26,46)        -48.3582                                         !
 ! D68   D(22,24,27,28)        -25.6491                                         !
 ! D69   D(22,24,27,29)         90.7856                                         !
 ! D70   D(22,24,27,31)       -146.0407                                         !
 ! D71   D(25,24,27,28)         90.4631                                         !
 ! D72   D(25,24,27,29)       -153.1022                                         !
 ! D73   D(25,24,27,31)        -29.9285                                         !
 ! D74   D(26,24,27,28)       -148.8999                                         !
 ! D75   D(26,24,27,29)        -32.4652                                         !
 ! D76   D(26,24,27,31)         90.7085                                         !
 ! D77   D(24,26,46,47)          6.5709                                         !
 ! D78   D(24,26,46,48)        179.5526                                         !
 ! D79   D(30,26,46,47)       -174.8712                                         !
 ! D80   D(30,26,46,48)         -1.8895                                         !
 ! D81   D(24,27,31,32)       -112.4542                                         !
 ! D82   D(24,27,31,34)         63.8903                                         !
 ! D83   D(28,27,31,32)        129.0068                                         !
 ! D84   D(28,27,31,34)        -54.6488                                         !
 ! D85   D(29,27,31,32)         10.1914                                         !
 ! D86   D(29,27,31,34)       -173.4641                                         !
 ! D87   D(27,31,32,33)         -1.0197                                         !
 ! D88   D(27,31,32,38)        176.8764                                         !
 ! D89   D(34,31,32,33)       -177.8901                                         !
 ! D90   D(34,31,32,38)          0.006                                          !
 ! D91   D(27,31,34,35)       -176.3447                                         !
 ! D92   D(27,31,34,36)          4.2168                                         !
 ! D93   D(32,31,34,35)          0.7042                                         !
 ! D94   D(32,31,34,36)       -178.7343                                         !
 ! D95   D(31,32,38,35)         -0.7506                                         !
 ! D96   D(31,32,38,39)       -165.3645                                         !
 ! D97   D(33,32,38,35)        177.3695                                         !
 ! D98   D(33,32,38,39)         12.7556                                         !
 ! D99   D(31,34,35,38)         -1.1601                                         !
 ! D100  D(31,34,35,42)        178.5177                                         !
 ! D101  D(36,34,35,38)        178.3827                                         !
 ! D102  D(36,34,35,42)         -1.9396                                         !
 ! D103  D(31,34,36,37)          4.9442                                         !
 ! D104  D(31,34,36,44)        179.9556                                         !
 ! D105  D(35,34,36,37)       -174.4411                                         !
 ! D106  D(35,34,36,44)          0.5703                                         !
 ! D107  D(34,35,38,32)          1.1845                                         !
 ! D108  D(34,35,38,39)        165.8691                                         !
 ! D109  D(42,35,38,32)       -178.4615                                         !
 ! D110  D(42,35,38,39)        -13.7769                                         !
 ! D111  D(34,35,42,40)          1.6204                                         !
 ! D112  D(34,35,42,43)       -174.9217                                         !
 ! D113  D(38,35,42,40)       -178.7787                                         !
 ! D114  D(38,35,42,43)          4.6793                                         !
 ! D115  D(34,36,44,40)          1.0145                                         !
 ! D116  D(34,36,44,45)       -177.3447                                         !
 ! D117  D(37,36,44,40)        176.0472                                         !
 ! D118  D(37,36,44,45)         -2.3121                                         !
 ! D119  D(41,40,42,35)        179.6671                                         !
 ! D120  D(41,40,42,43)         -3.897                                          !
 ! D121  D(44,40,42,35)          0.0225                                         !
 ! D122  D(44,40,42,43)        176.4584                                         !
 ! D123  D(41,40,44,36)        179.0051                                         !
 ! D124  D(41,40,44,45)         -2.6306                                         !
 ! D125  D(42,40,44,36)         -1.3503                                         !
 ! D126  D(42,40,44,45)        177.014                                          !
 ! D127  D(26,46,48,49)        -49.9128                                         !
 ! D128  D(26,46,48,50)       -167.6239                                         !
 ! D129  D(26,46,48,51)         69.6636                                         !
 ! D130  D(47,46,48,49)        123.4782                                         !
 ! D131  D(47,46,48,50)          5.7671                                         !
 ! D132  D(47,46,48,51)       -116.9453                                         !
 ! D133  D(46,48,50,54)          8.7059                                         !
 ! D134  D(46,48,50,57)       -168.3577                                         !
 ! D135  D(49,48,50,54)       -108.7384                                         !
 ! D136  D(49,48,50,57)         74.1981                                         !
 ! D137  D(51,48,50,54)        130.4118                                         !
 ! D138  D(51,48,50,57)        -46.6518                                         !
 ! D139  D(46,48,51,52)        -59.2598                                         !
 ! D140  D(46,48,51,53)       -174.3586                                         !
 ! D141  D(46,48,51,55)         59.4892                                         !
 ! D142  D(49,48,51,52)         61.2419                                         !
 ! D143  D(49,48,51,53)        -53.8569                                         !
 ! D144  D(49,48,51,55)        179.9909                                         !
 ! D145  D(50,48,51,52)       -176.8035                                         !
 ! D146  D(50,48,51,53)         68.0977                                         !
 ! D147  D(50,48,51,55)        -58.0545                                         !
 ! D148  D(48,50,57,58)         10.5191                                         !
 ! D149  D(48,50,57,59)        150.9155                                         !
 ! D150  D(54,50,57,58)       -166.4725                                         !
 ! D151  D(54,50,57,59)        -26.076                                          !
 ! D152  D(48,51,55,56)         80.4847                                         !
 ! D153  D(52,51,55,56)       -161.044                                          !
 ! D154  D(53,51,55,56)        -43.8806                                         !
 ! D155  D(50,57,59,60)         59.1476                                         !
 ! D156  D(50,57,59,61)        -59.3189                                         !
 ! D157  D(50,57,59,62)       -179.5652                                         !
 ! D158  D(58,57,59,60)       -159.1986                                         !
 ! D159  D(58,57,59,61)         82.3349                                         !
 ! D160  D(58,57,59,62)        -37.9114                                         !
 ! D161  D(57,59,61,66)        -58.4981                                         !
 ! D162  D(57,59,61,67)        116.9169                                         !
 ! D163  D(60,59,61,66)       -174.4234                                         !
 ! D164  D(60,59,61,67)          0.9916                                         !
 ! D165  D(62,59,61,66)         60.5709                                         !
 ! D166  D(62,59,61,67)       -124.0141                                         !
 ! D167  D(57,59,62,63)       -177.3491                                         !
 ! D168  D(57,59,62,64)         64.0288                                         !
 ! D169  D(57,59,62,65)        -57.3612                                         !
 ! D170  D(60,59,62,63)        -58.2893                                         !
 ! D171  D(60,59,62,64)       -176.9115                                         !
 ! D172  D(60,59,62,65)         61.6985                                         !
 ! D173  D(61,59,62,63)         66.7318                                         !
 ! D174  D(61,59,62,64)        -51.8903                                         !
 ! D175  D(61,59,62,65)       -173.2803                                         !
 ! D176  D(59,61,67,68)         -7.7313                                         !
 ! D177  D(59,61,67,69)       -166.0467                                         !
 ! D178  D(66,61,67,68)        167.3278                                         !
 ! D179  D(66,61,67,69)          9.0124                                         !
 ! D180  D(61,67,69,70)        -70.3094                                         !
 ! D181  D(61,67,69,71)        167.4403                                         !
 ! D182  D(61,67,69,72)         52.8247                                         !
 ! D183  D(68,67,69,70)        129.2705                                         !
 ! D184  D(68,67,69,71)          7.0202                                         !
 ! D185  D(68,67,69,72)       -107.5954                                         !
 ! D186  D(67,69,71,75)        172.9159                                         !
 ! D187  D(67,69,71,89)        -15.1786                                         !
 ! D188  D(70,69,71,75)         51.6264                                         !
 ! D189  D(70,69,71,89)       -136.468                                          !
 ! D190  D(72,69,71,75)        -68.4649                                         !
 ! D191  D(72,69,71,89)        103.4407                                         !
 ! D192  D(67,69,72,73)        -32.7365                                         !
 ! D193  D(67,69,72,74)         82.9017                                         !
 ! D194  D(67,69,72,76)       -155.4198                                         !
 ! D195  D(70,69,72,73)         90.0777                                         !
 ! D196  D(70,69,72,74)       -154.2841                                         !
 ! D197  D(70,69,72,76)        -32.6056                                         !
 ! D198  D(71,69,72,73)       -149.1709                                         !
 ! D199  D(71,69,72,74)        -33.5327                                         !
 ! D200  D(71,69,72,76)         88.1458                                         !
 ! D201  D(69,72,76,77)        -35.6129                                         !
 ! D202  D(69,72,76,78)         82.4417                                         !
 ! D203  D(69,72,76,79)       -154.2252                                         !
 ! D204  D(73,72,76,77)       -158.5774                                         !
 ! D205  D(73,72,76,78)        -40.5228                                         !
 ! D206  D(73,72,76,79)         82.8103                                         !
 ! D207  D(74,72,76,77)         84.5622                                         !
 ! D208  D(74,72,76,78)       -157.3833                                         !
 ! D209  D(74,72,76,79)        -34.0501                                         !
 ! D210  D(72,76,79,80)       -171.0732                                         !
 ! D211  D(72,76,79,81)         72.1533                                         !
 ! D212  D(72,76,79,82)        -47.4404                                         !
 ! D213  D(77,76,79,80)         69.4621                                         !
 ! D214  D(77,76,79,81)        -47.3114                                         !
 ! D215  D(77,76,79,82)       -166.9051                                         !
 ! D216  D(78,76,79,80)        -48.3733                                         !
 ! D217  D(78,76,79,81)       -165.1469                                         !
 ! D218  D(78,76,79,82)         75.2594                                         !
 ! D219  D(76,79,82,83)        -72.2222                                         !
 ! D220  D(76,79,82,84)         50.9689                                         !
 ! D221  D(76,79,82,85)        167.929                                          !
 ! D222  D(80,79,82,83)         51.979                                          !
 ! D223  D(80,79,82,84)        175.17                                           !
 ! D224  D(80,79,82,85)        -67.8699                                         !
 ! D225  D(81,79,82,83)        168.5054                                         !
 ! D226  D(81,79,82,84)        -68.3036                                         !
 ! D227  D(81,79,82,85)         48.6565                                         !
 ! D228  D(79,82,85,86)       -177.7374                                         !
 ! D229  D(79,82,85,87)        -57.568                                          !
 ! D230  D(79,82,85,88)         59.6778                                         !
 ! D231  D(83,82,85,86)         58.5341                                         !
 ! D232  D(83,82,85,87)        178.7034                                         !
 ! D233  D(83,82,85,88)        -64.0507                                         !
 ! D234  D(84,82,85,86)        -56.7092                                         !
 ! D235  D(84,82,85,87)         63.4601                                         !
 ! D236  D(84,82,85,88)       -179.294                                          !
 --------------------------------------------------------------------------------
 Symmetry turned off by external request.
 Stoichiometry    C29H46N7O7(1+)
 Framework group  C1[X(C29H46N7O7)]
 Deg. of freedom   261
 Full point group                 C1      NOp   1
                          Input orientation:                          
 ---------------------------------------------------------------------
 Center     Atomic      Atomic             Coordinates (Angstroms)
 Number     Number       Type             X           Y           Z
 ---------------------------------------------------------------------
      1          7           0       -3.628958   -3.355534    2.507480
      2          1           0       -4.601745   -3.500264    2.220345
      3          1           0       -3.006296   -3.865515    1.836543
      4          1           0       -3.514179   -3.706107    3.464239
      5          6           0       -3.174177   -1.913665    2.379787
      6          1           0       -4.059384   -1.277478    2.433206
      7          6           0       -2.504694   -1.857432    0.997560
      8          6           0       -2.168244   -1.589986    3.494643
      9          1           0       -1.308006   -2.261713    3.386024
     10          1           0       -1.766342   -0.593850    3.287076
     11          8           0       -2.127851   -2.935502    0.498073
     12          6           0       -2.735832   -1.645033    4.925390
     13          1           0       -3.101382   -2.667207    5.137970
     14          6           0       -1.599919   -1.367380    5.919728
     15          1           0       -1.203899   -0.355498    5.777490
     16          1           0       -0.772765   -2.073671    5.793102
     17          1           0       -1.960549   -1.446346    6.949403
     18          6           0       -3.902098   -0.670600    5.131242
     19          1           0       -3.588828    0.357504    4.914009
     20          1           0       -4.770799   -0.899108    4.500875
     21          1           0       -4.246292   -0.698391    6.169091
     22          7           0       -2.382133   -0.653258    0.439680
     23          1           0       -2.628233    0.141723    1.019916
     24          6           0       -1.321459   -0.405503   -0.538403
     25          1           0       -1.274361   -1.298130   -1.158183
     26          6           0        0.005888   -0.304189    0.266024
     27          6           0       -1.632968    0.785788   -1.482099
     28          1           0       -2.725520    0.889623   -1.531594
     29          1           0       -1.239500    1.717437   -1.061438
     30          8           0        0.018394   -0.547932    1.477408
     31          6           0       -1.068276    0.525016   -2.846566
     32          6           0       -0.031995    1.170745   -3.502427
     33          1           0        0.572885    2.002878   -3.174676
     34          6           0       -1.487306   -0.542138   -3.714826
     35          6           0       -0.645020   -0.484822   -4.866786
     36          6           0       -2.488737   -1.535143   -3.650863
     37          1           0       -3.205689   -1.551330   -2.829959
     38          7           0        0.214311    0.577856   -4.708162
     39          1           0        1.076569    0.735259   -5.287973
     40          6           0       -1.742093   -2.374039   -5.824317
     41          1           0       -1.853422   -3.097607   -6.625849
     42          6           0       -0.749471   -1.402063   -5.918182
     43          1           0       -0.034175   -1.370916   -6.735774
     44          6           0       -2.611966   -2.435569   -4.713984
     45          1           0       -3.405737   -3.178624   -4.699947
     46          7           0        1.074150    0.026762   -0.461229
     47          1           0        0.979006    0.290627   -1.442560
     48          6           0        2.417790    0.189046    0.077334
     49          1           0        2.384491    0.847169    0.956262
     50          6           0        3.207240    0.868538   -1.058273
     51          6           0        3.024942   -1.164903    0.517239
     52          1           0        2.360836   -1.582639    1.278648
     53          1           0        3.993402   -0.979917    1.007908
     54          8           0        2.615105    1.281382   -2.052797
     55          8           0        3.124601   -2.106116   -0.521647
     56          1           0        3.924207   -1.922477   -1.070921
     57          7           0        4.557751    0.933477   -0.943002
     58          1           0        4.984521    0.391285   -0.202140
     59          6           0        5.337766    0.947760   -2.200350
     60          1           0        5.017007    1.816932   -2.776779
     61          6           0        4.958734   -0.367054   -2.912998
     62          6           0        6.826453    1.011712   -1.888706
     63          1           0        7.399395    1.069724   -2.818511
     64          1           0        7.138546    0.105942   -1.358470
     65          1           0        7.059285    1.891193   -1.280887
     66          8           0        5.170916   -1.442724   -2.314817
     67          7           0        4.341816   -0.254296   -4.085559
     68          1           0        4.025041    0.651885   -4.440754
     69          6           0        3.648569   -1.337075   -4.778209
     70          1           0        4.370263   -2.067764   -5.153739
     71          6           0        2.808805   -0.708454   -5.932916
     72          6           0        2.613076   -2.015840   -3.855003
     73          1           0        2.964284   -1.998393   -2.827804
     74          1           0        1.699578   -1.409773   -3.883920
     75          8           0        2.261607   -1.508419   -6.710192
     76          6           0        2.301049   -3.456552   -4.262623
     77          1           0        2.323311   -3.528565   -5.353369
     78          1           0        3.070038   -4.128556   -3.861564
     79          6           0        0.903586   -3.891295   -3.801195
     80          1           0        0.762419   -4.969523   -3.962369
     81          1           0        0.172704   -3.370274   -4.428782
     82          6           0        0.604403   -3.551445   -2.346093
     83          1           0        1.144478   -4.169639   -1.625757
     84          1           0        0.810092   -2.507455   -2.110710
     85          7           0       -0.882695   -3.752531   -2.103118
     86          1           0       -1.185372   -3.508532   -1.145291
     87          1           0       -1.424124   -3.151220   -2.769219
     88          1           0       -1.147976   -4.723222   -2.294767
     89          8           0        2.651155    0.554832   -5.846181
 ---------------------------------------------------------------------
 Rotational constants (GHZ):           0.1147692           0.0568829           0.0453017
 Standard basis: 6-31G(d) (6D, 7F)
   737 basis functions,  1388 primitive gaussians,   737 cartesian basis functions
   162 alpha electrons      162 beta electrons
       nuclear repulsion energy      5957.6857239059 Hartrees.
 NAtoms=   89 NActive=   89 NUniq=   89 SFac= 1.00D+00 NAtFMM=   60 NAOKFM=T Big=T
 Integral buffers will be    131072 words long.
 Raffenetti 2 integral format.
 Two-electron integral symmetry is turned off.
 Nuclear repulsion after empirical dispersion term =     5957.4684481591 Hartrees.
 One-electron integrals computed using PRISM.
 NBasis=   737 RedAO= T EigKep=  3.78D-04  NBF=   737
 NBsUse=   737 1.00D-06 EigRej= -1.00D+00 NBFU=   737
 Initial guess from the checkpoint file:  "conf-112.chk"
 B after Tr=     0.000000    0.000000    0.000000
         Rot=    1.000000    0.000000    0.000000    0.000000 Ang=   0.00 deg.
 Requested convergence on RMS density matrix=1.00D-08 within 128 cycles.
 Requested convergence on MAX density matrix=1.00D-06.
 Requested convergence on             energy=1.00D-06.
 No special actions if energy rises.
 SCF Done:  E(RB3LYP) =  -2042.66523342     A.U. after    3 cycles
            NFock=  3  Conv=0.96D-09     -V/T= 2.0093

 **********************************************************************

            Population analysis using the SCF Density.

 **********************************************************************

 Alpha  occ. eigenvalues --  -19.30935 -19.22902 -19.21428 -19.20906 -19.17009
 Alpha  occ. eigenvalues --  -19.11899 -19.11075 -14.63363 -14.56191 -14.52700
 Alpha  occ. eigenvalues --  -14.46026 -14.44157 -14.42516 -14.40305 -10.47172
 Alpha  occ. eigenvalues --  -10.43323 -10.39954 -10.37709 -10.36242 -10.34696
 Alpha  occ. eigenvalues --  -10.34405 -10.33956 -10.33947 -10.32682 -10.32064
 Alpha  occ. eigenvalues --  -10.30761 -10.30580 -10.29915 -10.29646 -10.29529
 Alpha  occ. eigenvalues --  -10.28949 -10.28624 -10.27667 -10.27352 -10.27083
 Alpha  occ. eigenvalues --  -10.26573 -10.26262 -10.25782 -10.25431 -10.25431
 Alpha  occ. eigenvalues --  -10.24495 -10.23861 -10.22678  -1.22688  -1.17399
 Alpha  occ. eigenvalues --   -1.14847  -1.13135  -1.10881  -1.09378  -1.09207
 Alpha  occ. eigenvalues --   -1.08287  -1.05055  -1.03882  -1.02750  -1.00589
 Alpha  occ. eigenvalues --   -0.97327  -0.97320  -0.95664  -0.92829  -0.91614
 Alpha  occ. eigenvalues --   -0.90263  -0.88671  -0.86402  -0.84860  -0.83037
 Alpha  occ. eigenvalues --   -0.82363  -0.81636  -0.81230  -0.80873  -0.79893
 Alpha  occ. eigenvalues --   -0.77262  -0.76885  -0.76241  -0.75926  -0.75608
 Alpha  occ. eigenvalues --   -0.74344  -0.72809  -0.71212  -0.70708  -0.70006
 Alpha  occ. eigenvalues --   -0.69383  -0.69125  -0.68027  -0.67739  -0.66543
 Alpha  occ. eigenvalues --   -0.66273  -0.65959  -0.64497  -0.63755  -0.63546
 Alpha  occ. eigenvalues --   -0.62149  -0.61633  -0.61267  -0.60511  -0.60155
 Alpha  occ. eigenvalues --   -0.59559  -0.59342  -0.58808  -0.57523  -0.57262
 Alpha  occ. eigenvalues --   -0.56872  -0.55980  -0.55520  -0.55410  -0.55235
 Alpha  occ. eigenvalues --   -0.55016  -0.54644  -0.54156  -0.53468  -0.53314
 Alpha  occ. eigenvalues --   -0.52996  -0.52297  -0.51641  -0.51222  -0.50905
 Alpha  occ. eigenvalues --   -0.50593  -0.50425  -0.50305  -0.50094  -0.49523
 Alpha  occ. eigenvalues --   -0.49107  -0.48565  -0.48205  -0.48097  -0.47752
 Alpha  occ. eigenvalues --   -0.47643  -0.47443  -0.46956  -0.46738  -0.46669
 Alpha  occ. eigenvalues --   -0.46438  -0.45898  -0.45405  -0.45027  -0.44699
 Alpha  occ. eigenvalues --   -0.44602  -0.43527  -0.43475  -0.43177  -0.42715
 Alpha  occ. eigenvalues --   -0.42325  -0.41819  -0.41306  -0.40790  -0.40534
 Alpha  occ. eigenvalues --   -0.40115  -0.39205  -0.38549  -0.38061  -0.37036
 Alpha  occ. eigenvalues --   -0.36870  -0.35456  -0.34848  -0.34308  -0.33998
 Alpha  occ. eigenvalues --   -0.31169  -0.30256  -0.30002  -0.28282  -0.27269
 Alpha  occ. eigenvalues --   -0.26546  -0.25046
 Alpha virt. eigenvalues --   -0.15976  -0.13976  -0.09921  -0.09284  -0.08985
 Alpha virt. eigenvalues --   -0.07875  -0.07422  -0.07186  -0.05728  -0.05315
 Alpha virt. eigenvalues --   -0.04176  -0.03952  -0.03439  -0.02092  -0.01773
 Alpha virt. eigenvalues --   -0.00869  -0.00342   0.00349   0.01157   0.01432
 Alpha virt. eigenvalues --    0.01701   0.02044   0.02673   0.02928   0.03125
 Alpha virt. eigenvalues --    0.03209   0.03893   0.04126   0.04490   0.04569
 Alpha virt. eigenvalues --    0.04897   0.05619   0.05679   0.06394   0.06641
 Alpha virt. eigenvalues --    0.06824   0.07127   0.07704   0.07880   0.08251
 Alpha virt. eigenvalues --    0.08375   0.08534   0.08801   0.09021   0.09077
 Alpha virt. eigenvalues --    0.09460   0.09669   0.09927   0.10143   0.10473
 Alpha virt. eigenvalues --    0.10692   0.11249   0.11390   0.11689   0.11764
 Alpha virt. eigenvalues --    0.12038   0.12207   0.12599   0.13281   0.13567
 Alpha virt. eigenvalues --    0.13880   0.14302   0.14412   0.14751   0.15105
 Alpha virt. eigenvalues --    0.15500   0.15949   0.16321   0.16441   0.17216
 Alpha virt. eigenvalues --    0.17736   0.18128   0.19160   0.19631   0.19705
 Alpha virt. eigenvalues --    0.20003   0.20785   0.21696   0.22385   0.22559
 Alpha virt. eigenvalues --    0.23955   0.24445   0.25013   0.25760   0.26036
 Alpha virt. eigenvalues --    0.26733   0.27289   0.28727   0.29190   0.31703
 Alpha virt. eigenvalues --    0.32066   0.33162   0.33732   0.34372   0.34921
 Alpha virt. eigenvalues --    0.35556   0.36176   0.36468   0.37388   0.38229
 Alpha virt. eigenvalues --    0.38643   0.39283   0.39853   0.40344   0.40927
 Alpha virt. eigenvalues --    0.41100   0.42509   0.42747   0.43319   0.43614
 Alpha virt. eigenvalues --    0.44044   0.44374   0.45030   0.45304   0.45981
 Alpha virt. eigenvalues --    0.46466   0.46643   0.47090   0.47250   0.47824
 Alpha virt. eigenvalues --    0.48172   0.48386   0.49162   0.49430   0.49588
 Alpha virt. eigenvalues --    0.49801   0.50372   0.50797   0.51032   0.51519
 Alpha virt. eigenvalues --    0.51961   0.52752   0.53111   0.53532   0.53675
 Alpha virt. eigenvalues --    0.53959   0.54290   0.54469   0.54632   0.55058
 Alpha virt. eigenvalues --    0.55351   0.55586   0.55906   0.56597   0.56676
 Alpha virt. eigenvalues --    0.57088   0.57591   0.57765   0.58400   0.58488
 Alpha virt. eigenvalues --    0.58897   0.59517   0.59791   0.60068   0.60952
 Alpha virt. eigenvalues --    0.61915   0.62160   0.62581   0.62846   0.63372
 Alpha virt. eigenvalues --    0.63633   0.63781   0.64208   0.64783   0.64878
 Alpha virt. eigenvalues --    0.65125   0.65410   0.66717   0.67196   0.67690
 Alpha virt. eigenvalues --    0.68219   0.68712   0.69187   0.69582   0.69968
 Alpha virt. eigenvalues --    0.70284   0.70677   0.70793   0.71306   0.71636
 Alpha virt. eigenvalues --    0.71840   0.72503   0.72916   0.73202   0.73664
 Alpha virt. eigenvalues --    0.74007   0.74512   0.74933   0.75352   0.75624
 Alpha virt. eigenvalues --    0.76118   0.76229   0.76766   0.77078   0.77241
 Alpha virt. eigenvalues --    0.77473   0.77827   0.78154   0.78633   0.78805
 Alpha virt. eigenvalues --    0.79296   0.79441   0.79634   0.80243   0.80578
 Alpha virt. eigenvalues --    0.80682   0.80931   0.80975   0.81213   0.81559
 Alpha virt. eigenvalues --    0.81936   0.82520   0.82689   0.82930   0.83615
 Alpha virt. eigenvalues --    0.83819   0.83906   0.84449   0.84720   0.85345
 Alpha virt. eigenvalues --    0.85768   0.85913   0.86041   0.86882   0.87194
 Alpha virt. eigenvalues --    0.87506   0.88087   0.88226   0.88829   0.89034
 Alpha virt. eigenvalues --    0.89548   0.90270   0.90597   0.90883   0.91561
 Alpha virt. eigenvalues --    0.92021   0.93293   0.93477   0.94036   0.94303
 Alpha virt. eigenvalues --    0.95305   0.95561   0.95789   0.96759   0.97819
 Alpha virt. eigenvalues --    0.98854   0.99692   1.00625   1.01133   1.01562
 Alpha virt. eigenvalues --    1.02710   1.03458   1.04045   1.04995   1.05363
 Alpha virt. eigenvalues --    1.06210   1.06611   1.07404   1.08509   1.09396
 Alpha virt. eigenvalues --    1.09691   1.10264   1.10550   1.11191   1.11630
 Alpha virt. eigenvalues --    1.12872   1.13347   1.14116   1.14628   1.16060
 Alpha virt. eigenvalues --    1.17238   1.17262   1.18327   1.19084   1.19333
 Alpha virt. eigenvalues --    1.19997   1.20818   1.21637   1.22524   1.22981
 Alpha virt. eigenvalues --    1.23550   1.23946   1.24373   1.24793   1.25265
 Alpha virt. eigenvalues --    1.26194   1.26831   1.27556   1.27924   1.29222
 Alpha virt. eigenvalues --    1.29875   1.30369   1.31222   1.31800   1.32231
 Alpha virt. eigenvalues --    1.32772   1.33266   1.33765   1.34590   1.34923
 Alpha virt. eigenvalues --    1.35768   1.36446   1.37343   1.38764   1.39127
 Alpha virt. eigenvalues --    1.39555   1.40342   1.40814   1.41429   1.42649
 Alpha virt. eigenvalues --    1.42979   1.43720   1.44279   1.44574   1.45419
 Alpha virt. eigenvalues --    1.46445   1.46673   1.47652   1.47848   1.48575
 Alpha virt. eigenvalues --    1.49932   1.50551   1.52658   1.53518   1.54406
 Alpha virt. eigenvalues --    1.54848   1.55414   1.55875   1.56849   1.57290
 Alpha virt. eigenvalues --    1.57725   1.57976   1.58621   1.59319   1.60199
 Alpha virt. eigenvalues --    1.60754   1.62032   1.62234   1.62750   1.63488
 Alpha virt. eigenvalues --    1.63939   1.64872   1.65093   1.66278   1.66958
 Alpha virt. eigenvalues --    1.67386   1.67732   1.68246   1.69052   1.70476
 Alpha virt. eigenvalues --    1.71152   1.71576   1.72132   1.72668   1.73334
 Alpha virt. eigenvalues --    1.73836   1.74064   1.75279   1.75881   1.76089
 Alpha virt. eigenvalues --    1.76435   1.76787   1.76993   1.77682   1.78112
 Alpha virt. eigenvalues --    1.78394   1.78740   1.79197   1.80214   1.80412
 Alpha virt. eigenvalues --    1.81225   1.81611   1.82086   1.82803   1.83075
 Alpha virt. eigenvalues --    1.83728   1.83831   1.84302   1.84787   1.85519
 Alpha virt. eigenvalues --    1.86021   1.86459   1.86616   1.87800   1.88095
 Alpha virt. eigenvalues --    1.88596   1.88726   1.89378   1.89579   1.90320
 Alpha virt. eigenvalues --    1.90484   1.91247   1.91879   1.92436   1.92700
 Alpha virt. eigenvalues --    1.92856   1.93326   1.93727   1.94478   1.95157
 Alpha virt. eigenvalues --    1.96001   1.96279   1.96438   1.96647   1.97093
 Alpha virt. eigenvalues --    1.98070   1.98448   1.99101   1.99289   1.99513
 Alpha virt. eigenvalues --    2.00248   2.02090   2.02547   2.03116   2.04240
 Alpha virt. eigenvalues --    2.04483   2.05078   2.05488   2.06513   2.07361
 Alpha virt. eigenvalues --    2.08346   2.08998   2.09535   2.09864   2.10406
 Alpha virt. eigenvalues --    2.10647   2.11081   2.11558   2.12819   2.13749
 Alpha virt. eigenvalues --    2.13953   2.15133   2.15779   2.16597   2.17324
 Alpha virt. eigenvalues --    2.17525   2.18405   2.18912   2.19329   2.19806
 Alpha virt. eigenvalues --    2.21039   2.21435   2.22253   2.22664   2.22972
 Alpha virt. eigenvalues --    2.23711   2.24552   2.25477   2.26053   2.28072
 Alpha virt. eigenvalues --    2.28989   2.29289   2.29989   2.30284   2.30805
 Alpha virt. eigenvalues --    2.31220   2.32082   2.32271   2.32743   2.33166
 Alpha virt. eigenvalues --    2.33913   2.35446   2.35829   2.37056   2.37719
 Alpha virt. eigenvalues --    2.38315   2.38617   2.39930   2.40220   2.41285
 Alpha virt. eigenvalues --    2.42128   2.43500   2.44544   2.46020   2.46586
 Alpha virt. eigenvalues --    2.46871   2.47210   2.47790   2.48988   2.49499
 Alpha virt. eigenvalues --    2.50665   2.51729   2.52567   2.53220   2.54488
 Alpha virt. eigenvalues --    2.54827   2.55691   2.56673   2.57420   2.58476
 Alpha virt. eigenvalues --    2.59549   2.60829   2.61128   2.61846   2.62179
 Alpha virt. eigenvalues --    2.62386   2.63438   2.65279   2.66183   2.67907
 Alpha virt. eigenvalues --    2.68813   2.69462   2.71700   2.72333   2.73707
 Alpha virt. eigenvalues --    2.74480   2.76282   2.77473   2.77800   2.79675
 Alpha virt. eigenvalues --    2.80419   2.80974   2.82518   2.85067   2.86886
 Alpha virt. eigenvalues --    2.88828   2.89281   2.90292   2.92583   2.94293
 Alpha virt. eigenvalues --    2.94688   2.95700   2.97363   2.99737   3.01658
 Alpha virt. eigenvalues --    3.05743   3.06207   3.11218   3.12652   3.17154
 Alpha virt. eigenvalues --    3.19231   3.35791   3.61654   3.80405   3.81203
 Alpha virt. eigenvalues --    3.86719   3.93577   3.98682   4.00399   4.01317
 Alpha virt. eigenvalues --    4.02242   4.05457   4.06343   4.08907   4.09740
 Alpha virt. eigenvalues --    4.10317   4.14417   4.14816   4.15726   4.16937
 Alpha virt. eigenvalues --    4.18455   4.21271   4.22375   4.22629   4.24826
 Alpha virt. eigenvalues --    4.25450   4.26537   4.29992   4.32048   4.33014
 Alpha virt. eigenvalues --    4.34807   4.35520   4.37328   4.38661   4.40816
 Alpha virt. eigenvalues --    4.45497   4.48688   4.49725   4.52461   4.54638
 Alpha virt. eigenvalues --    4.57983   4.61133   4.65486   4.70888   4.73475
          Condensed to atoms (all electrons):
 Mulliken charges:
               1
     1  N   -0.747126
     2  H    0.420999
     3  H    0.426331
     4  H    0.419694
     5  C   -0.148926
     6  H    0.216179
     7  C    0.687154
     8  C   -0.279581
     9  H    0.186802
    10  H    0.211297
    11  O   -0.580715
    12  C   -0.109930
    13  H    0.111575
    14  C   -0.446368
    15  H    0.171447
    16  H    0.163547
    17  H    0.176835
    18  C   -0.455531
    19  H    0.169330
    20  H    0.128722
    21  H    0.189665
    22  N   -0.560019
    23  H    0.358394
    24  C   -0.094287
    25  H    0.172210
    26  C    0.625532
    27  C   -0.379060
    28  H    0.171254
    29  H    0.176299
    30  O   -0.557994
    31  C    0.003555
    32  C    0.015224
    33  H    0.192018
    34  C    0.123113
    35  C    0.268013
    36  C   -0.337268
    37  H    0.112455
    38  N   -0.665625
    39  H    0.416244
    40  C   -0.171150
    41  H    0.150060
    42  C   -0.145656
    43  H    0.222396
    44  C   -0.148773
    45  H    0.127256
    46  N   -0.625879
    47  H    0.403010
    48  C   -0.053498
    49  H    0.184359
    50  C    0.607471
    51  C   -0.064773
    52  H    0.168349
    53  H    0.133640
    54  O   -0.524368
    55  O   -0.651106
    56  H    0.456109
    57  N   -0.588832
    58  H    0.336262
    59  C   -0.042631
    60  H    0.181544
    61  C    0.619711
    62  C   -0.477401
    63  H    0.182064
    64  H    0.171358
    65  H    0.166514
    66  O   -0.600218
    67  N   -0.585251
    68  H    0.365626
    69  C   -0.023385
    70  H    0.164641
    71  C    0.571131
    72  C   -0.319426
    73  H    0.156466
    74  H    0.142925
    75  O   -0.558886
    76  C   -0.262576
    77  H    0.199215
    78  H    0.143614
    79  C   -0.315875
    80  H    0.138221
    81  H    0.187498
    82  C   -0.197493
    83  H    0.205622
    84  H    0.222508
    85  N   -0.796481
    86  H    0.426397
    87  H    0.400399
    88  H    0.390309
    89  O   -0.622477
 Sum of Mulliken charges =   1.00000
 Mulliken charges with hydrogens summed into heavy atoms:
               1
     1  N    0.519898
     5  C    0.067252
     7  C    0.687154
     8  C    0.118519
    11  O   -0.580715
    12  C    0.001645
    14  C    0.065462
    18  C    0.032186
    22  N   -0.201625
    24  C    0.077922
    26  C    0.625532
    27  C   -0.031506
    30  O   -0.557994
    31  C    0.003555
    32  C    0.207242
    34  C    0.123113
    35  C    0.268013
    36  C   -0.224813
    38  N   -0.249381
    40  C   -0.021089
    42  C    0.076740
    44  C   -0.021517
    46  N   -0.222869
    48  C    0.130861
    50  C    0.607471
    51  C    0.237216
    54  O   -0.524368
    55  O   -0.194996
    57  N   -0.252570
    59  C    0.138914
    61  C    0.619711
    62  C    0.042536
    66  O   -0.600218
    67  N   -0.219626
    69  C    0.141257
    71  C    0.571131
    72  C   -0.020035
    75  O   -0.558886
    76  C    0.080253
    79  C    0.009844
    82  C    0.230637
    85  N    0.420623
    89  O   -0.622477
 Electronic spatial extent (au):  <R**2>=          29046.9743
 Charge=              1.0000 electrons
 Dipole moment (field-independent basis, Debye):
    X=            -17.4207    Y=            -14.4918    Z=             17.8758  Tot=             28.8623
 Quadrupole moment (field-independent basis, Debye-Ang):
   XX=           -181.9508   YY=           -184.8720   ZZ=           -270.1283
   XY=             62.0417   XZ=            -15.3599   YZ=            -15.9169
 Traceless Quadrupole moment (field-independent basis, Debye-Ang):
   XX=             30.3662   YY=             27.4451   ZZ=            -57.8113
   XY=             62.0417   XZ=            -15.3599   YZ=            -15.9169
 Octapole moment (field-independent basis, Debye-Ang**2):
  XXX=           -544.0994  YYY=            491.0691  ZZZ=           1847.3279  XYY=           -349.1682
  XXY=            165.9511  XXZ=            587.0542  XZZ=           -454.6063  YZZ=            140.4387
  YYZ=            414.0319  XYZ=             48.6512
 Hexadecapole moment (field-independent basis, Debye-Ang**3):
 XXXX=         -11349.7540 YYYY=          -3972.5787 ZZZZ=         -22041.7039 XXXY=            449.7877
 XXXZ=           2777.1607 YYYX=             27.9039 YYYZ=          -1039.9792 ZZZX=           4133.2925
 ZZZY=          -1522.8574 XXYY=          -2532.2671 XXZZ=          -5253.5698 YYZZ=          -3656.1299
 XXYZ=           -907.6442 YYXZ=            941.2083 ZZXY=            353.9431
 N-N= 5.957468448159D+03 E-N=-1.664211861811D+04  KE= 2.023803438030D+03
 Unable to Open any file for archive entry.
 1\1\GINC-SKL-148\SP\RB3LYP\6-31G(d)\C29H46N7O7(1+)\KENGMITH\04-Jul-202
 2\0\\# B3LYP/6-31G* empiricaldispersion=gd3bj guess=read geom=check no
 symm integral(ultrafinegrid)\\Candidate Structure: Conf:112 Charge cal
 c in gas phase\\1,1\N,0,-3.628958305,-3.3555344909,2.5074795345\H,0,-4
 .601744852,-3.5002637735,2.2203452859\H,0,-3.0062960244,-3.8655147332,
 1.8365432438\H,0,-3.5141786865,-3.7061071519,3.4642393743\C,0,-3.17417
 67287,-1.9136653398,2.3797870234\H,0,-4.0593844732,-1.2774775956,2.433
 2060255\C,0,-2.5046941169,-1.8574321647,0.9975598105\C,0,-2.1682440204
 ,-1.5899856712,3.494642512\H,0,-1.3080063285,-2.2617128517,3.386024379
 4\H,0,-1.7663424288,-0.5938495851,3.2870757263\O,0,-2.1278514862,-2.93
 55020479,0.4980730757\C,0,-2.7358324079,-1.6450330529,4.9253902012\H,0
 ,-3.1013822029,-2.6672074844,5.1379701178\C,0,-1.5999192495,-1.3673802
 16,5.91972844\H,0,-1.2038989175,-0.3554981993,5.777489679\H,0,-0.77276
 49922,-2.0736705716,5.7931018399\H,0,-1.9605491411,-1.4463460593,6.949
 4029188\C,0,-3.9020982585,-0.6705997223,5.1312420476\H,0,-3.5888279322
 ,0.3575035455,4.914008754\H,0,-4.7707986108,-0.8991078827,4.5008746031
 \H,0,-4.2462921201,-0.6983907687,6.1690905291\N,0,-2.3821326809,-0.653
 2578897,0.4396799177\H,0,-2.6282329819,0.1417231636,1.0199155847\C,0,-
 1.3214590678,-0.4055031285,-0.5384034765\H,0,-1.2743605159,-1.29813012
 25,-1.1581834212\C,0,0.005888431,-0.3041891244,0.2660240708\C,0,-1.632
 9678745,0.7857883582,-1.4820991217\H,0,-2.7255200759,0.8896227351,-1.5
 315942477\H,0,-1.2395002967,1.7174368723,-1.0614379115\O,0,0.018394318
 4,-0.5479323489,1.4774075771\C,0,-1.0682763292,0.5250160374,-2.8465656
 71\C,0,-0.0319947673,1.1707445543,-3.5024269245\H,0,0.572885069,2.0028
 784452,-3.174675957\C,0,-1.4873064826,-0.5421375801,-3.714826244\C,0,-
 0.6450200202,-0.4848217483,-4.8667859207\C,0,-2.4887366902,-1.53514287
 97,-3.6508633608\H,0,-3.2056886531,-1.5513296522,-2.8299586619\N,0,0.2
 143108638,0.5778555662,-4.7081623879\H,0,1.0765692986,0.7352585704,-5.
 2879734262\C,0,-1.7420932877,-2.3740389444,-5.8243172536\H,0,-1.853421
 9201,-3.0976072697,-6.6258493533\C,0,-0.7494708236,-1.4020634185,-5.91
 81815165\H,0,-0.0341749977,-1.370915872,-6.7357743561\C,0,-2.611965823
 ,-2.4355685367,-4.71398433\H,0,-3.4057366884,-3.1786243118,-4.69994654
 66\N,0,1.0741496245,0.0267616053,-0.4612292404\H,0,0.9790063346,0.2906
 269924,-1.4425600477\C,0,2.4177898227,0.1890455653,0.0773340487\H,0,2.
 3844911112,0.8471685948,0.9562622163\C,0,3.2072397668,0.8685376883,-1.
 0582726035\C,0,3.024942246,-1.1649026397,0.5172388626\H,0,2.3608360382
 ,-1.5826394326,1.2786476076\H,0,3.9934021006,-0.9799169154,1.007908137
 \O,0,2.6151050662,1.2813822289,-2.052796682\O,0,3.1246012697,-2.106115
 9705,-0.5216474637\H,0,3.9242073504,-1.9224771834,-1.0709210933\N,0,4.
 5577511576,0.9334766339,-0.9430017021\H,0,4.984521229,0.3912852783,-0.
 2021403601\C,0,5.3377656704,0.9477599025,-2.2003496546\H,0,5.017007124
 6,1.8169321714,-2.7767791899\C,0,4.9587335373,-0.3670538959,-2.9129975
 44\C,0,6.8264530224,1.0117122532,-1.8887058306\H,0,7.3993945221,1.0697
 235673,-2.8185114734\H,0,7.13854605,0.1059416477,-1.3584699007\H,0,7.0
 592853663,1.8911933788,-1.2808873801\O,0,5.1709155983,-1.4427242526,-2
 .3148170393\N,0,4.3418161124,-0.2542957407,-4.0855586852\H,0,4.0250413
 095,0.651885091,-4.44075398\C,0,3.6485686313,-1.3370750054,-4.77820938
 12\H,0,4.3702627616,-2.0677640512,-5.1537387408\C,0,2.8088053262,-0.70
 84539989,-5.9329164655\C,0,2.6130755275,-2.0158400899,-3.8550033745\H,
 0,2.9642841893,-1.998392733,-2.8278038028\H,0,1.699578047,-1.409772622
 5,-3.883920119\O,0,2.2616073933,-1.5084189693,-6.7101922165\C,0,2.3010
 48537,-3.4565523993,-4.2626234554\H,0,2.3233109043,-3.5285649543,-5.35
 33685542\H,0,3.0700379554,-4.1285555383,-3.8615640472\C,0,0.9035863908
 ,-3.8912951691,-3.8011951371\H,0,0.7624188862,-4.9695227669,-3.9623693
 171\H,0,0.1727043819,-3.3702744095,-4.4287819037\C,0,0.6044027519,-3.5
 514454754,-2.3460931145\H,0,1.1444775042,-4.1696388049,-1.6257574312\H
 ,0,0.8100921494,-2.507454913,-2.1107100948\N,0,-0.8826954069,-3.752531
 1925,-2.1031177547\H,0,-1.1853722236,-3.5085315171,-1.145290994\H,0,-1
 .4241239568,-3.1512201152,-2.7692192388\H,0,-1.1479755735,-4.723221776
 6,-2.2947668289\O,0,2.6511549418,0.5548319556,-5.846181453\\Version=ES
 64L-G16RevC.01\HF=-2042.6652334\RMSD=9.578e-10\Dipole=-7.991982,-3.718
 3945,9.9130233\Quadrupole=22.5765165,20.4047372,-42.9812537,46.1264915
 ,-11.4196756,-11.8338318\PG=C01 [X(C29H46N7O7)]\\@
 The archive entry for this job was punched.


 THERE'S NOTHING WRONG WITH FOLLOWING A TRAIN OF THOUGHT...
 AS LONG AS IT ULTIMATELY PULLS INTO THE STATION.
 Job cpu time:       0 days  0 hours  5 minutes 52.4 seconds.
 Elapsed time:       0 days  0 hours  1 minutes 29.2 seconds.
 File lengths (MBytes):  RWF=    400 Int=      0 D2E=      0 Chk=     64 Scr=     16
 Normal termination of Gaussian 16 at Mon Jul  4 15:05:24 2022.
