 Entering Gaussian System, Link 0=/opt/software/Gaussian/g16-AVX2-C.01/g16/g16
 Input=charge-conf-197.com
 Output=charge-conf-197.log
 Initial command:
 /opt/software/Gaussian/g16-AVX2-C.01/g16/l1.exe "/mnt/gs18/scratch/users/kengmith/Gau-32751.inp" -scrdir="/mnt/gs18/scratch/users/kengmith/"
 Entering Link 1 = /opt/software/Gaussian/g16-AVX2-C.01/g16/l1.exe PID=     32761.
  
 Copyright (c) 1988-2019, Gaussian, Inc.  All Rights Reserved.
  
 This is part of the Gaussian(R) 16 program.  It is based on
 the Gaussian(R) 09 system (copyright 2009, Gaussian, Inc.),
 the Gaussian(R) 03 system (copyright 2003, Gaussian, Inc.),
 the Gaussian(R) 98 system (copyright 1998, Gaussian, Inc.),
 the Gaussian(R) 94 system (copyright 1995, Gaussian, Inc.),
 the Gaussian 92(TM) system (copyright 1992, Gaussian, Inc.),
 the Gaussian 90(TM) system (copyright 1990, Gaussian, Inc.),
 the Gaussian 88(TM) system (copyright 1988, Gaussian, Inc.),
 the Gaussian 86(TM) system (copyright 1986, Carnegie Mellon
 University), and the Gaussian 82(TM) system (copyright 1983,
 Carnegie Mellon University). Gaussian is a federally registered
 trademark of Gaussian, Inc.
  
 This software contains proprietary and confidential information,
 including trade secrets, belonging to Gaussian, Inc.
  
 This software is provided under written license and may be
 used, copied, transmitted, or stored only in accord with that
 written license.
  
 The following legend is applicable only to US Government
 contracts under FAR:
  
                    RESTRICTED RIGHTS LEGEND
  
 Use, reproduction and disclosure by the US Government is
 subject to restrictions as set forth in subparagraphs (a)
 and (c) of the Commercial Computer Software - Restricted
 Rights clause in FAR 52.227-19.
  
 Gaussian, Inc.
 340 Quinnipiac St., Bldg. 40, Wallingford CT 06492
  
  
 ---------------------------------------------------------------
 Warning -- This program may not be used in any manner that
 competes with the business of Gaussian, Inc. or will provide
 assistance to any competitor of Gaussian, Inc.  The licensee
 of this program is prohibited from giving any competitor of
 Gaussian, Inc. access to this program.  By using this program,
 the user acknowledges that Gaussian, Inc. is engaged in the
 business of creating and licensing software in the field of
 computational chemistry and represents and warrants to the
 licensee that it is not a competitor of Gaussian, Inc. and that
 it will not use this program in any manner prohibited above.
 ---------------------------------------------------------------
  

 Cite this work as:
 Gaussian 16, Revision C.01,
 M. J. Frisch, G. W. Trucks, H. B. Schlegel, G. E. Scuseria, 
 M. A. Robb, J. R. Cheeseman, G. Scalmani, V. Barone, 
 G. A. Petersson, H. Nakatsuji, X. Li, M. Caricato, A. V. Marenich, 
 J. Bloino, B. G. Janesko, R. Gomperts, B. Mennucci, H. P. Hratchian, 
 J. V. Ortiz, A. F. Izmaylov, J. L. Sonnenberg, D. Williams-Young, 
 F. Ding, F. Lipparini, F. Egidi, J. Goings, B. Peng, A. Petrone, 
 T. Henderson, D. Ranasinghe, V. G. Zakrzewski, J. Gao, N. Rega, 
 G. Zheng, W. Liang, M. Hada, M. Ehara, K. Toyota, R. Fukuda, 
 J. Hasegawa, M. Ishida, T. Nakajima, Y. Honda, O. Kitao, H. Nakai, 
 T. Vreven, K. Throssell, J. A. Montgomery, Jr., J. E. Peralta, 
 F. Ogliaro, M. J. Bearpark, J. J. Heyd, E. N. Brothers, K. N. Kudin, 
 V. N. Staroverov, T. A. Keith, R. Kobayashi, J. Normand, 
 K. Raghavachari, A. P. Rendell, J. C. Burant, S. S. Iyengar, 
 J. Tomasi, M. Cossi, J. M. Millam, M. Klene, C. Adamo, R. Cammi, 
 J. W. Ochterski, R. L. Martin, K. Morokuma, O. Farkas, 
 J. B. Foresman, and D. J. Fox, Gaussian, Inc., Wallingford CT, 2019.
 
 ******************************************
 Gaussian 16:  ES64L-G16RevC.01  3-Jul-2019
                25-May-2022 
 ******************************************
 %mem=8gb
 %nproc=4
 Will use up to    4 processors via shared memory.
 %chk=conf-197.chk
 -------------------------------------------------------------------
 # B3LYP/6-31G* guess=read geom=check nosymm integral(ultrafinegrid)
 -------------------------------------------------------------------
 1/29=2,38=1,172=1/1;
 2/12=2,15=1,40=1/2;
 3/5=1,6=6,7=1,11=2,14=-4,25=1,30=1,74=-5,75=-5,116=-2/1,2,3;
 4/5=1/1;
 5/5=2,38=6/2;
 6/7=2,8=2,9=2,10=2,28=1/1;
 99/5=1,9=1/99;
 ------------------------------------------------------
 Candidate Structure: Conf:197 Charge calc in gas phase
 ------------------------------------------------------
 Structure from the checkpoint file:  "conf-197.chk"
 Charge =  1 Multiplicity = 1
 Redundant internal coordinates found in file.  (old form).
 N,0,-6.3604800233,-1.1276396952,3.2026872776
 H,0,-7.1259049962,-1.3436658999,2.568801757
 H,0,-6.7492316853,-0.7173145768,4.0475619014
 C,0,-5.3868488471,-0.2359113973,2.6098986978
 H,0,-5.795198224,0.7498857292,2.2964587538
 C,0,-4.8831552366,-0.8716813061,1.3286983515
 C,0,-4.223205651,0.0618332066,3.6033469836
 H,0,-3.7243459789,0.9906494539,3.3037015217
 H,0,-4.7087531924,0.294511382,4.5609632596
 O,0,-5.2122497583,-1.9061940646,0.834242481
 C,0,-3.1761343213,-1.027195411,3.785233763
 C,0,-3.4975914431,-2.3944455875,3.8023767617
 H,0,-4.5309141475,-2.7032230004,3.6810940505
 C,0,-1.8395963576,-0.6462666629,3.9846442918
 H,0,-1.5773893904,0.4089619669,3.9855264813
 C,0,-2.4982880288,-3.3516135594,3.9955650284
 H,0,-2.7637452553,-4.404985436,4.0091059734
 C,0,-0.8465406026,-1.6044499618,4.193071125
 H,0,0.179099343,-1.2882933028,4.3639922813
 C,0,-1.1725336224,-2.9621754712,4.1937148336
 H,0,-0.4024079383,-3.7099768014,4.3602600539
 N,0,-3.8968413548,-0.0010153903,0.5363549588
 C,0,-2.5944609383,-0.7130146892,0.1831725804
 H,0,-2.5797219663,-1.6679919773,0.7117197969
 C,0,-1.4888575833,0.2321574252,0.7014664971
 C,0,-2.5992454954,-0.8781107169,-1.3600079494
 H,0,-1.9061122231,-0.1608408047,-1.8117308698
 H,0,-2.2784258124,-1.8822089047,-1.6477460013
 O,0,-1.8118905928,1.3158336537,1.200578969
 C,0,-4.0476251662,-0.5876884962,-1.7912376355
 H,0,-4.1122935068,-0.2101736832,-2.8150929169
 H,0,-4.6657829244,-1.4856922815,-1.7148104152
 C,0,-4.5140664932,0.4593907159,-0.7859872181
 H,0,-5.5960573697,0.5426683346,-0.6701728148
 H,0,-4.0933215671,1.4482947629,-0.9865460167
 N,0,-0.2270898179,-0.1864491378,0.5431031843
 H,0,-0.0515870609,-1.0539374526,0.0507983028
 C,0,0.9256653744,0.6699702041,0.8334191718
 H,0,0.7036743157,1.2234177229,1.7473810038
 C,0,1.1551954085,1.7199582939,-0.2556952396
 C,0,2.176085434,-0.2171849179,1.0382245653
 H,0,2.3601575256,-0.7770389003,0.1098862312
 H,0,1.9143010235,-0.9527983008,1.8100904433
 O,0,1.7518090484,2.7518770018,-0.0736313632
 C,0,3.4573130882,0.5258253412,1.4495405181
 H,0,4.2512320448,-0.2292412598,1.5133369434
 H,0,3.7559358475,1.2236087976,0.6582335944
 C,0,3.3671389984,1.2784752518,2.7829777934
 H,0,2.9973484137,0.5987577371,3.5674438645
 H,0,2.6393356099,2.0968109932,2.6992361393
 C,0,4.7138130137,1.8833841924,3.2379499073
 H,0,5.0688476787,2.5851339458,2.4723431069
 H,0,4.5369009897,2.480898884,4.1403803781
 N,0,5.8046800203,0.9568038658,3.5289953891
 H,0,6.0912325274,0.4428350878,2.6992325861
 H,0,5.5244060049,0.2703325062,4.2271608191
 O,0,0.6600304186,1.3429656614,-1.4622453791
 H,0,0.9056700595,2.0507083221,-2.0898439604
 H,0,-3.5693272256,0.8273397977,1.0821847163
 Recover connectivity data from disk.
                           ----------------------------
                           !    Current Parameters    !
                           ! (Angstroms and Degrees)  !
 --------------------------                            --------------------------
 ! Name  Definition              Value                                          !
 --------------------------------------------------------------------------------
 ! R1    R(1,2)                  1.017                                          !
 ! R2    R(1,3)                  1.0165                                         !
 ! R3    R(1,4)                  1.4473                                         !
 ! R4    R(4,5)                  1.1121                                         !
 ! R5    R(4,6)                  1.5164                                         !
 ! R6    R(4,7)                  1.5587                                         !
 ! R7    R(6,10)                 1.1929                                         !
 ! R8    R(6,22)                 1.5358                                         !
 ! R9    R(7,8)                  1.0961                                         !
 ! R10   R(7,9)                  1.0986                                         !
 ! R11   R(7,11)                 1.5217                                         !
 ! R12   R(11,12)                1.4046                                         !
 ! R13   R(11,14)                1.404                                          !
 ! R14   R(12,13)                1.0853                                         !
 ! R15   R(12,16)                1.3972                                         !
 ! R16   R(14,15)                1.0873                                         !
 ! R17   R(14,18)                1.3956                                         !
 ! R18   R(16,17)                1.0864                                         !
 ! R19   R(16,20)                1.3959                                         !
 ! R20   R(18,19)                1.0868                                         !
 ! R21   R(18,20)                1.3963                                         !
 ! R22   R(20,21)                1.0863                                         !
 ! R23   R(22,23)                1.5257                                         !
 ! R24   R(22,33)                1.5302                                         !
 ! R25   R(22,59)                1.0447                                         !
 ! R26   R(23,24)                1.0916                                         !
 ! R27   R(23,25)                1.5441                                         !
 ! R28   R(23,26)                1.552                                          !
 ! R29   R(25,29)                1.236                                          !
 ! R30   R(25,36)                1.3388                                         !
 ! R31   R(26,27)                1.095                                          !
 ! R32   R(26,28)                1.0927                                         !
 ! R33   R(26,30)                1.5389                                         !
 ! R34   R(30,31)                1.0932                                         !
 ! R35   R(30,32)                1.0929                                         !
 ! R36   R(30,33)                1.5246                                         !
 ! R37   R(33,34)                1.0914                                         !
 ! R38   R(33,35)                1.0932                                         !
 ! R39   R(36,37)                1.0128                                         !
 ! R40   R(36,38)                1.4651                                         !
 ! R41   R(38,39)                1.0913                                         !
 ! R42   R(38,40)                1.5301                                         !
 ! R43   R(38,41)                1.5468                                         !
 ! R44   R(40,44)                1.2058                                         !
 ! R45   R(40,57)                1.3576                                         !
 ! R46   R(41,42)                1.0996                                         !
 ! R47   R(41,43)                1.0979                                         !
 ! R48   R(41,45)                1.5371                                         !
 ! R49   R(45,46)                1.0975                                         !
 ! R50   R(45,47)                1.0965                                         !
 ! R51   R(45,48)                1.5338                                         !
 ! R52   R(48,49)                1.1019                                         !
 ! R53   R(48,50)                1.0984                                         !
 ! R54   R(48,51)                1.5448                                         !
 ! R55   R(51,52)                1.0976                                         !
 ! R56   R(51,53)                1.0967                                         !
 ! R57   R(51,54)                1.4606                                         !
 ! R58   R(54,55)                1.0172                                         !
 ! R59   R(54,56)                1.0184                                         !
 ! R60   R(57,58)                0.9773                                         !
 ! A1    A(2,1,3)              108.4179                                         !
 ! A2    A(2,1,4)              112.4514                                         !
 ! A3    A(3,1,4)              110.4262                                         !
 ! A4    A(1,4,5)              114.4935                                         !
 ! A5    A(1,4,6)              108.1318                                         !
 ! A6    A(1,4,7)              111.0306                                         !
 ! A7    A(5,4,6)              104.8023                                         !
 ! A8    A(5,4,7)              106.5244                                         !
 ! A9    A(6,4,7)              111.7533                                         !
 ! A10   A(4,6,10)             128.4754                                         !
 ! A11   A(4,6,22)             114.3015                                         !
 ! A12   A(10,6,22)            117.0629                                         !
 ! A13   A(4,7,8)              109.1114                                         !
 ! A14   A(4,7,9)              105.4302                                         !
 ! A15   A(4,7,11)             116.9475                                         !
 ! A16   A(8,7,9)              105.0689                                         !
 ! A17   A(8,7,11)             109.0246                                         !
 ! A18   A(9,7,11)             110.5798                                         !
 ! A19   A(7,11,12)            122.7259                                         !
 ! A20   A(7,11,14)            118.5452                                         !
 ! A21   A(12,11,14)           118.6999                                         !
 ! A22   A(11,12,13)           119.5696                                         !
 ! A23   A(11,12,16)           120.321                                          !
 ! A24   A(13,12,16)           120.1015                                         !
 ! A25   A(11,14,15)           119.5372                                         !
 ! A26   A(11,14,18)           120.8174                                         !
 ! A27   A(15,14,18)           119.6431                                         !
 ! A28   A(12,16,17)           119.4202                                         !
 ! A29   A(12,16,20)           120.5167                                         !
 ! A30   A(17,16,20)           120.0534                                         !
 ! A31   A(14,18,19)           119.6883                                         !
 ! A32   A(14,18,20)           120.102                                          !
 ! A33   A(19,18,20)           120.2072                                         !
 ! A34   A(16,20,18)           119.5343                                         !
 ! A35   A(16,20,21)           120.2006                                         !
 ! A36   A(18,20,21)           120.2601                                         !
 ! A37   A(6,22,23)            113.7702                                         !
 ! A38   A(6,22,33)            110.9382                                         !
 ! A39   A(6,22,59)            112.4142                                         !
 ! A40   A(23,22,33)           106.5398                                         !
 ! A41   A(23,22,59)           102.9065                                         !
 ! A42   A(33,22,59)           109.8397                                         !
 ! A43   A(22,23,24)           107.9206                                         !
 ! A44   A(22,23,25)           104.3499                                         !
 ! A45   A(22,23,26)           106.0919                                         !
 ! A46   A(24,23,25)           111.3037                                         !
 ! A47   A(24,23,26)           112.8568                                         !
 ! A48   A(25,23,26)           113.645                                          !
 ! A49   A(23,25,29)           119.0166                                         !
 ! A50   A(23,25,36)           116.3412                                         !
 ! A51   A(29,25,36)           124.6249                                         !
 ! A52   A(23,26,27)           109.7895                                         !
 ! A53   A(23,26,28)           111.0196                                         !
 ! A54   A(23,26,30)           105.1567                                         !
 ! A55   A(27,26,28)           107.9063                                         !
 ! A56   A(27,26,30)           110.8892                                         !
 ! A57   A(28,26,30)           112.0849                                         !
 ! A58   A(26,30,31)           112.5393                                         !
 ! A59   A(26,30,32)           110.9588                                         !
 ! A60   A(26,30,33)           103.4618                                         !
 ! A61   A(31,30,32)           108.4094                                         !
 ! A62   A(31,30,33)           111.2398                                         !
 ! A63   A(32,30,33)           110.1918                                         !
 ! A64   A(22,33,30)           103.8711                                         !
 ! A65   A(22,33,34)           109.3389                                         !
 ! A66   A(22,33,35)           105.9893                                         !
 ! A67   A(30,33,34)           115.1943                                         !
 ! A68   A(30,33,35)           112.4906                                         !
 ! A69   A(34,33,35)           109.3903                                         !
 ! A70   A(25,36,37)           119.2513                                         !
 ! A71   A(25,36,38)           122.3657                                         !
 ! A72   A(37,36,38)           117.4299                                         !
 ! A73   A(36,38,39)           107.5988                                         !
 ! A74   A(36,38,40)           112.2159                                         !
 ! A75   A(36,38,41)           109.0882                                         !
 ! A76   A(39,38,40)           106.178                                          !
 ! A77   A(39,38,41)           110.1469                                         !
 ! A78   A(40,38,41)           111.503                                          !
 ! A79   A(38,40,44)           123.6419                                         !
 ! A80   A(38,40,57)           112.7876                                         !
 ! A81   A(44,40,57)           123.5252                                         !
 ! A82   A(38,41,42)           108.3945                                         !
 ! A83   A(38,41,43)           106.5358                                         !
 ! A84   A(38,41,45)           115.595                                          !
 ! A85   A(42,41,43)           106.9965                                         !
 ! A86   A(42,41,45)           109.4196                                         !
 ! A87   A(43,41,45)           109.5411                                         !
 ! A88   A(41,45,46)           106.616                                          !
 ! A89   A(41,45,47)           109.9688                                         !
 ! A90   A(41,45,48)           114.8858                                         !
 ! A91   A(46,45,47)           106.4254                                         !
 ! A92   A(46,45,48)           109.2437                                         !
 ! A93   A(47,45,48)           109.3375                                         !
 ! A94   A(45,48,49)           109.6303                                         !
 ! A95   A(45,48,50)           109.7715                                         !
 ! A96   A(45,48,51)           113.3865                                         !
 ! A97   A(49,48,50)           106.948                                          !
 ! A98   A(49,48,51)           108.931                                          !
 ! A99   A(50,48,51)           107.9599                                         !
 ! A100  A(48,51,52)           109.0811                                         !
 ! A101  A(48,51,53)           108.3651                                         !
 ! A102  A(48,51,54)           117.4748                                         !
 ! A103  A(52,51,53)           106.1304                                         !
 ! A104  A(52,51,54)           107.6389                                         !
 ! A105  A(53,51,54)           107.5872                                         !
 ! A106  A(51,54,55)           111.616                                          !
 ! A107  A(51,54,56)           111.0187                                         !
 ! A108  A(55,54,56)           107.2257                                         !
 ! A109  A(40,57,58)           106.1381                                         !
 ! D1    D(2,1,4,5)             59.8786                                         !
 ! D2    D(2,1,4,6)            -56.5197                                         !
 ! D3    D(2,1,4,7)           -179.4562                                         !
 ! D4    D(3,1,4,5)            -61.3655                                         !
 ! D5    D(3,1,4,6)           -177.7638                                         !
 ! D6    D(3,1,4,7)             59.2997                                         !
 ! D7    D(1,4,6,10)             1.3707                                         !
 ! D8    D(1,4,6,22)           176.5848                                         !
 ! D9    D(5,4,6,10)          -121.1607                                         !
 ! D10   D(5,4,6,22)            54.0533                                         !
 ! D11   D(7,4,6,10)           123.8666                                         !
 ! D12   D(7,4,6,22)           -60.9194                                         !
 ! D13   D(1,4,7,8)           -158.8997                                         !
 ! D14   D(1,4,7,9)            -46.4996                                         !
 ! D15   D(1,4,7,11)            76.8255                                         !
 ! D16   D(5,4,7,8)            -33.6333                                         !
 ! D17   D(5,4,7,9)             78.7668                                         !
 ! D18   D(5,4,7,11)          -157.9081                                         !
 ! D19   D(6,4,7,8)             80.277                                          !
 ! D20   D(6,4,7,9)           -167.3229                                         !
 ! D21   D(6,4,7,11)           -43.9978                                         !
 ! D22   D(4,6,22,23)          127.5995                                         !
 ! D23   D(4,6,22,33)         -112.2956                                         !
 ! D24   D(4,6,22,59)           11.1332                                         !
 ! D25   D(10,6,22,23)         -56.6069                                         !
 ! D26   D(10,6,22,33)          63.498                                          !
 ! D27   D(10,6,22,59)        -173.0731                                         !
 ! D28   D(4,7,11,12)          -37.6202                                         !
 ! D29   D(4,7,11,14)          144.3689                                         !
 ! D30   D(8,7,11,12)         -161.9389                                         !
 ! D31   D(8,7,11,14)           20.0502                                         !
 ! D32   D(9,7,11,12)           83.0235                                         !
 ! D33   D(9,7,11,14)          -94.9874                                         !
 ! D34   D(7,11,12,13)           0.0676                                         !
 ! D35   D(7,11,12,16)        -178.9114                                         !
 ! D36   D(14,11,12,13)        178.0756                                         !
 ! D37   D(14,11,12,16)         -0.9034                                         !
 ! D38   D(7,11,14,15)          -1.2031                                         !
 ! D39   D(7,11,14,18)         178.2376                                         !
 ! D40   D(12,11,14,15)       -179.2954                                         !
 ! D41   D(12,11,14,18)          0.1453                                         !
 ! D42   D(11,12,16,17)        179.8225                                         !
 ! D43   D(11,12,16,20)          0.9599                                         !
 ! D44   D(13,12,16,17)          0.8489                                         !
 ! D45   D(13,12,16,20)       -178.0137                                         !
 ! D46   D(11,14,18,19)       -178.86                                           !
 ! D47   D(11,14,18,20)          0.5671                                         !
 ! D48   D(15,14,18,19)          0.5802                                         !
 ! D49   D(15,14,18,20)       -179.9928                                         !
 ! D50   D(12,16,20,18)         -0.2393                                         !
 ! D51   D(12,16,20,21)        178.9576                                         !
 ! D52   D(17,16,20,18)       -179.0947                                         !
 ! D53   D(17,16,20,21)          0.1023                                         !
 ! D54   D(14,18,20,16)         -0.52                                           !
 ! D55   D(14,18,20,21)       -179.7165                                         !
 ! D56   D(19,18,20,16)        178.904                                          !
 ! D57   D(19,18,20,21)         -0.2924                                         !
 ! D58   D(6,22,23,24)          -8.5349                                         !
 ! D59   D(6,22,23,25)        -127.0157                                         !
 ! D60   D(6,22,23,26)         112.675                                          !
 ! D61   D(33,22,23,24)       -131.0917                                         !
 ! D62   D(33,22,23,25)        110.4275                                         !
 ! D63   D(33,22,23,26)         -9.8819                                         !
 ! D64   D(59,22,23,24)        113.3603                                         !
 ! D65   D(59,22,23,25)         -5.1205                                         !
 ! D66   D(59,22,23,26)       -125.4298                                         !
 ! D67   D(6,22,33,30)         -93.8972                                         !
 ! D68   D(6,22,33,34)          29.5633                                         !
 ! D69   D(6,22,33,35)         147.3758                                         !
 ! D70   D(23,22,33,30)         30.4235                                         !
 ! D71   D(23,22,33,34)        153.884                                          !
 ! D72   D(23,22,33,35)        -88.3035                                         !
 ! D73   D(59,22,33,30)        141.2079                                         !
 ! D74   D(59,22,33,34)        -95.3316                                         !
 ! D75   D(59,22,33,35)         22.4808                                         !
 ! D76   D(22,23,25,29)         -3.1598                                         !
 ! D77   D(22,23,25,36)        178.2841                                         !
 ! D78   D(24,23,25,29)       -119.3061                                         !
 ! D79   D(24,23,25,36)         62.1379                                         !
 ! D80   D(26,23,25,29)        111.9486                                         !
 ! D81   D(26,23,25,36)        -66.6075                                         !
 ! D82   D(22,23,26,27)        105.1522                                         !
 ! D83   D(22,23,26,28)       -135.618                                          !
 ! D84   D(22,23,26,30)        -14.1927                                         !
 ! D85   D(24,23,26,27)       -136.8694                                         !
 ! D86   D(24,23,26,28)        -17.6396                                         !
 ! D87   D(24,23,26,30)        103.7857                                         !
 ! D88   D(25,23,26,27)         -8.9204                                         !
 ! D89   D(25,23,26,28)        110.3094                                         !
 ! D90   D(25,23,26,30)       -128.2654                                         !
 ! D91   D(23,25,36,37)          3.7679                                         !
 ! D92   D(23,25,36,38)        172.3049                                         !
 ! D93   D(29,25,36,37)       -174.6977                                         !
 ! D94   D(29,25,36,38)         -6.1606                                         !
 ! D95   D(23,26,30,31)        153.0272                                         !
 ! D96   D(23,26,30,32)        -85.2968                                         !
 ! D97   D(23,26,30,33)         32.8512                                         !
 ! D98   D(27,26,30,31)         34.4184                                         !
 ! D99   D(27,26,30,32)        156.0944                                         !
 ! D100  D(27,26,30,33)        -85.7576                                         !
 ! D101  D(28,26,30,31)        -86.2457                                         !
 ! D102  D(28,26,30,32)         35.4304                                         !
 ! D103  D(28,26,30,33)        153.5783                                         !
 ! D104  D(26,30,33,22)        -38.938                                          !
 ! D105  D(26,30,33,34)       -158.4848                                         !
 ! D106  D(26,30,33,35)         75.2246                                         !
 ! D107  D(31,30,33,22)       -159.9962                                         !
 ! D108  D(31,30,33,34)         80.457                                          !
 ! D109  D(31,30,33,35)        -45.8337                                         !
 ! D110  D(32,30,33,22)         79.7422                                         !
 ! D111  D(32,30,33,34)        -39.8046                                         !
 ! D112  D(32,30,33,35)       -166.0953                                         !
 ! D113  D(25,36,38,39)         40.6097                                         !
 ! D114  D(25,36,38,40)        -75.8321                                         !
 ! D115  D(25,36,38,41)        160.0905                                         !
 ! D116  D(37,36,38,39)       -150.6557                                         !
 ! D117  D(37,36,38,40)         92.9024                                         !
 ! D118  D(37,36,38,41)        -31.175                                          !
 ! D119  D(36,38,40,44)        157.1047                                         !
 ! D120  D(36,38,40,57)        -25.2683                                         !
 ! D121  D(39,38,40,44)         39.8113                                         !
 ! D122  D(39,38,40,57)       -142.5617                                         !
 ! D123  D(41,38,40,44)        -80.1724                                         !
 ! D124  D(41,38,40,57)         97.4546                                         !
 ! D125  D(36,38,41,42)         60.8799                                         !
 ! D126  D(36,38,41,43)        -53.9593                                         !
 ! D127  D(36,38,41,45)       -175.9035                                         !
 ! D128  D(39,38,41,42)        178.7685                                         !
 ! D129  D(39,38,41,43)         63.9292                                         !
 ! D130  D(39,38,41,45)        -58.0149                                         !
 ! D131  D(40,38,41,42)        -63.6169                                         !
 ! D132  D(40,38,41,43)       -178.4562                                         !
 ! D133  D(40,38,41,45)         59.5997                                         !
 ! D134  D(38,40,57,58)       -176.6086                                         !
 ! D135  D(44,40,57,58)          1.0216                                         !
 ! D136  D(38,41,45,46)       -177.7505                                         !
 ! D137  D(38,41,45,47)        -62.7646                                         !
 ! D138  D(38,41,45,48)         61.0791                                         !
 ! D139  D(42,41,45,46)        -55.0757                                         !
 ! D140  D(42,41,45,47)         59.9102                                         !
 ! D141  D(42,41,45,48)       -176.2461                                         !
 ! D142  D(43,41,45,46)         61.9259                                         !
 ! D143  D(43,41,45,47)        176.9118                                         !
 ! D144  D(43,41,45,48)        -59.2445                                         !
 ! D145  D(41,45,48,49)         51.7668                                         !
 ! D146  D(41,45,48,50)        -65.4328                                         !
 ! D147  D(41,45,48,51)        173.7403                                         !
 ! D148  D(46,45,48,49)        -67.957                                          !
 ! D149  D(46,45,48,50)        174.8434                                         !
 ! D150  D(46,45,48,51)         54.0165                                         !
 ! D151  D(47,45,48,49)        175.9446                                         !
 ! D152  D(47,45,48,50)         58.745                                          !
 ! D153  D(47,45,48,51)        -62.0819                                         !
 ! D154  D(45,48,51,52)         59.4078                                         !
 ! D155  D(45,48,51,53)        174.5323                                         !
 ! D156  D(45,48,51,54)        -63.3625                                         !
 ! D157  D(49,48,51,52)       -178.2298                                         !
 ! D158  D(49,48,51,53)        -63.1053                                         !
 ! D159  D(49,48,51,54)         59.0                                            !
 ! D160  D(50,48,51,52)        -62.436                                          !
 ! D161  D(50,48,51,53)         52.6886                                         !
 ! D162  D(50,48,51,54)        174.7938                                         !
 ! D163  D(48,51,54,55)         63.9307                                         !
 ! D164  D(48,51,54,56)        -55.6401                                         !
 ! D165  D(52,51,54,55)        -59.5728                                         !
 ! D166  D(52,51,54,56)       -179.1435                                         !
 ! D167  D(53,51,54,55)       -173.5649                                         !
 ! D168  D(53,51,54,56)         66.8643                                         !
 --------------------------------------------------------------------------------
 Symmetry turned off by external request.
 Stoichiometry    C20H31N4O4(1+)
 Framework group  C1[X(C20H31N4O4)]
 Deg. of freedom   171
 Full point group                 C1      NOp   1
                          Input orientation:                          
 ---------------------------------------------------------------------
 Center     Atomic      Atomic             Coordinates (Angstroms)
 Number     Number       Type             X           Y           Z
 ---------------------------------------------------------------------
      1          7           0       -6.360480   -1.127640    3.202687
      2          1           0       -7.125905   -1.343666    2.568802
      3          1           0       -6.749232   -0.717315    4.047562
      4          6           0       -5.386849   -0.235911    2.609899
      5          1           0       -5.795198    0.749886    2.296459
      6          6           0       -4.883155   -0.871681    1.328698
      7          6           0       -4.223206    0.061833    3.603347
      8          1           0       -3.724346    0.990649    3.303702
      9          1           0       -4.708753    0.294511    4.560963
     10          8           0       -5.212250   -1.906194    0.834242
     11          6           0       -3.176134   -1.027195    3.785234
     12          6           0       -3.497591   -2.394446    3.802377
     13          1           0       -4.530914   -2.703223    3.681094
     14          6           0       -1.839596   -0.646267    3.984644
     15          1           0       -1.577389    0.408962    3.985526
     16          6           0       -2.498288   -3.351614    3.995565
     17          1           0       -2.763745   -4.404985    4.009106
     18          6           0       -0.846541   -1.604450    4.193071
     19          1           0        0.179099   -1.288293    4.363992
     20          6           0       -1.172534   -2.962175    4.193715
     21          1           0       -0.402408   -3.709977    4.360260
     22          7           0       -3.896841   -0.001015    0.536355
     23          6           0       -2.594461   -0.713015    0.183173
     24          1           0       -2.579722   -1.667992    0.711720
     25          6           0       -1.488858    0.232157    0.701466
     26          6           0       -2.599245   -0.878111   -1.360008
     27          1           0       -1.906112   -0.160841   -1.811731
     28          1           0       -2.278426   -1.882209   -1.647746
     29          8           0       -1.811891    1.315834    1.200579
     30          6           0       -4.047625   -0.587688   -1.791238
     31          1           0       -4.112294   -0.210174   -2.815093
     32          1           0       -4.665783   -1.485692   -1.714810
     33          6           0       -4.514066    0.459391   -0.785987
     34          1           0       -5.596057    0.542668   -0.670173
     35          1           0       -4.093322    1.448295   -0.986546
     36          7           0       -0.227090   -0.186449    0.543103
     37          1           0       -0.051587   -1.053937    0.050798
     38          6           0        0.925665    0.669970    0.833419
     39          1           0        0.703674    1.223418    1.747381
     40          6           0        1.155195    1.719958   -0.255695
     41          6           0        2.176085   -0.217185    1.038225
     42          1           0        2.360158   -0.777039    0.109886
     43          1           0        1.914301   -0.952798    1.810090
     44          8           0        1.751809    2.751877   -0.073631
     45          6           0        3.457313    0.525825    1.449541
     46          1           0        4.251232   -0.229241    1.513337
     47          1           0        3.755936    1.223609    0.658234
     48          6           0        3.367139    1.278475    2.782978
     49          1           0        2.997348    0.598758    3.567444
     50          1           0        2.639336    2.096811    2.699236
     51          6           0        4.713813    1.883384    3.237950
     52          1           0        5.068848    2.585134    2.472343
     53          1           0        4.536901    2.480899    4.140380
     54          7           0        5.804680    0.956804    3.528995
     55          1           0        6.091233    0.442835    2.699233
     56          1           0        5.524406    0.270333    4.227161
     57          8           0        0.660030    1.342966   -1.462245
     58          1           0        0.905670    2.050708   -2.089844
     59          1           0       -3.569327    0.827340    1.082185
 ---------------------------------------------------------------------
 Rotational constants (GHZ):           0.2580830           0.1042798           0.0833150
 Standard basis: 6-31G(d) (6D, 7F)
   482 basis functions,   908 primitive gaussians,   482 cartesian basis functions
   105 alpha electrons      105 beta electrons
       nuclear repulsion energy      2815.5065624611 Hartrees.
 NAtoms=   59 NActive=   59 NUniq=   59 SFac= 1.00D+00 NAtFMM=   60 NAOKFM=F Big=F
 Integral buffers will be    131072 words long.
 Raffenetti 2 integral format.
 Two-electron integral symmetry is turned off.
 One-electron integrals computed using PRISM.
 NBasis=   482 RedAO= T EigKep=  4.64D-04  NBF=   482
 NBsUse=   482 1.00D-06 EigRej= -1.00D+00 NBFU=   482
 Initial guess from the checkpoint file:  "conf-197.chk"
 B after Tr=     0.000000    0.000000    0.000000
         Rot=    1.000000    0.000000    0.000000    0.000000 Ang=   0.00 deg.
 Requested convergence on RMS density matrix=1.00D-08 within 128 cycles.
 Requested convergence on MAX density matrix=1.00D-06.
 Requested convergence on             energy=1.00D-06.
 No special actions if energy rises.
 SCF Done:  E(RB3LYP) =  -1300.48979066     A.U. after    3 cycles
            NFock=  3  Conv=0.10D-08     -V/T= 2.0095

 **********************************************************************

            Population analysis using the SCF Density.

 **********************************************************************

 Alpha  occ. eigenvalues --  -19.32528 -19.30842 -19.27505 -19.24722 -14.59078
 Alpha  occ. eigenvalues --  -14.50911 -14.44856 -14.37354 -10.47693 -10.44350
 Alpha  occ. eigenvalues --  -10.42905 -10.40316 -10.39416 -10.38262 -10.35896
 Alpha  occ. eigenvalues --  -10.34555 -10.33924 -10.32599 -10.30582 -10.30402
 Alpha  occ. eigenvalues --  -10.29153 -10.28986 -10.28756 -10.28694 -10.28602
 Alpha  occ. eigenvalues --  -10.27323 -10.27080 -10.25752  -1.24277  -1.21468
 Alpha  occ. eigenvalues --   -1.19547  -1.13607  -1.12502  -1.07440  -1.03246
 Alpha  occ. eigenvalues --   -0.95882  -0.95485  -0.94237  -0.92679  -0.90212
 Alpha  occ. eigenvalues --   -0.89872  -0.85174  -0.84723  -0.84234  -0.80563
 Alpha  occ. eigenvalues --   -0.78807  -0.77973  -0.76069  -0.74998  -0.74340
 Alpha  occ. eigenvalues --   -0.72489  -0.71259  -0.70439  -0.69587  -0.68832
 Alpha  occ. eigenvalues --   -0.65826  -0.65770  -0.65129  -0.63771  -0.62933
 Alpha  occ. eigenvalues --   -0.62052  -0.61173  -0.60039  -0.59432  -0.59106
 Alpha  occ. eigenvalues --   -0.58533  -0.58150  -0.57409  -0.56905  -0.55709
 Alpha  occ. eigenvalues --   -0.55662  -0.55391  -0.55112  -0.54978  -0.54628
 Alpha  occ. eigenvalues --   -0.53494  -0.53348  -0.52555  -0.51640  -0.51363
 Alpha  occ. eigenvalues --   -0.51146  -0.50951  -0.50601  -0.49885  -0.49770
 Alpha  occ. eigenvalues --   -0.49553  -0.49134  -0.48535  -0.47008  -0.45894
 Alpha  occ. eigenvalues --   -0.44743  -0.44475  -0.43937  -0.43783  -0.43289
 Alpha  occ. eigenvalues --   -0.42495  -0.41984  -0.41487  -0.41018  -0.40120
 Alpha  occ. eigenvalues --   -0.37323  -0.37085  -0.34973  -0.34612  -0.29243
 Alpha virt. eigenvalues --   -0.18741  -0.12929  -0.10715  -0.10155  -0.10055
 Alpha virt. eigenvalues --   -0.07682  -0.06921  -0.06148  -0.04280  -0.04016
 Alpha virt. eigenvalues --   -0.02845  -0.02085  -0.01596  -0.01283  -0.00112
 Alpha virt. eigenvalues --    0.00282   0.00398   0.01486   0.01860   0.02232
 Alpha virt. eigenvalues --    0.02743   0.03149   0.03605   0.04292   0.04460
 Alpha virt. eigenvalues --    0.04850   0.05329   0.05515   0.05940   0.06062
 Alpha virt. eigenvalues --    0.06959   0.07279   0.07818   0.08164   0.08653
 Alpha virt. eigenvalues --    0.09033   0.09508   0.09902   0.10265   0.10721
 Alpha virt. eigenvalues --    0.11059   0.11711   0.11927   0.12255   0.12891
 Alpha virt. eigenvalues --    0.12983   0.13508   0.13936   0.14579   0.15607
 Alpha virt. eigenvalues --    0.17160   0.17541   0.18175   0.18887   0.19946
 Alpha virt. eigenvalues --    0.20650   0.21299   0.22362   0.22667   0.22754
 Alpha virt. eigenvalues --    0.24178   0.25549   0.27036   0.28311   0.31871
 Alpha virt. eigenvalues --    0.35690   0.36177   0.36532   0.37537   0.38174
 Alpha virt. eigenvalues --    0.38795   0.40715   0.41096   0.42320   0.42598
 Alpha virt. eigenvalues --    0.42989   0.43357   0.44090   0.44417   0.44861
 Alpha virt. eigenvalues --    0.45607   0.45779   0.46171   0.46671   0.47072
 Alpha virt. eigenvalues --    0.47457   0.49225   0.49505   0.50273   0.50716
 Alpha virt. eigenvalues --    0.50927   0.51330   0.51632   0.51662   0.52348
 Alpha virt. eigenvalues --    0.52622   0.52978   0.53650   0.54154   0.54932
 Alpha virt. eigenvalues --    0.55614   0.55843   0.56652   0.57601   0.58446
 Alpha virt. eigenvalues --    0.59165   0.59514   0.60556   0.61335   0.61928
 Alpha virt. eigenvalues --    0.62407   0.62865   0.63979   0.64529   0.65241
 Alpha virt. eigenvalues --    0.65591   0.65773   0.66676   0.66992   0.68675
 Alpha virt. eigenvalues --    0.69584   0.70370   0.70633   0.71439   0.71908
 Alpha virt. eigenvalues --    0.72883   0.73066   0.73630   0.74318   0.74578
 Alpha virt. eigenvalues --    0.74979   0.75136   0.75561   0.75933   0.76783
 Alpha virt. eigenvalues --    0.76936   0.77125   0.77588   0.78163   0.78340
 Alpha virt. eigenvalues --    0.78744   0.78914   0.79843   0.80104   0.80358
 Alpha virt. eigenvalues --    0.80832   0.81367   0.81668   0.82083   0.83216
 Alpha virt. eigenvalues --    0.83894   0.84139   0.84895   0.86004   0.86118
 Alpha virt. eigenvalues --    0.86830   0.87460   0.87746   0.88073   0.88768
 Alpha virt. eigenvalues --    0.90092   0.90469   0.90780   0.91563   0.92670
 Alpha virt. eigenvalues --    0.93214   0.93895   0.94306   0.94979   0.96074
 Alpha virt. eigenvalues --    0.96529   0.98098   0.98251   0.98977   1.00859
 Alpha virt. eigenvalues --    1.01890   1.02520   1.02967   1.03631   1.05644
 Alpha virt. eigenvalues --    1.06069   1.06489   1.08852   1.09464   1.09754
 Alpha virt. eigenvalues --    1.11971   1.13441   1.15492   1.16513   1.18665
 Alpha virt. eigenvalues --    1.20807   1.22569   1.24386   1.25771   1.26291
 Alpha virt. eigenvalues --    1.28704   1.30316   1.31859   1.33028   1.33117
 Alpha virt. eigenvalues --    1.34765   1.35488   1.36828   1.37269   1.37842
 Alpha virt. eigenvalues --    1.38180   1.39476   1.40963   1.41291   1.41853
 Alpha virt. eigenvalues --    1.42283   1.43538   1.45950   1.46134   1.46981
 Alpha virt. eigenvalues --    1.48120   1.50680   1.51725   1.52840   1.53722
 Alpha virt. eigenvalues --    1.55106   1.57106   1.57560   1.58794   1.60218
 Alpha virt. eigenvalues --    1.61125   1.61399   1.62866   1.64051   1.64434
 Alpha virt. eigenvalues --    1.66294   1.67076   1.67814   1.68168   1.69084
 Alpha virt. eigenvalues --    1.69845   1.70640   1.70963   1.71334   1.72174
 Alpha virt. eigenvalues --    1.72766   1.74073   1.74683   1.75834   1.77433
 Alpha virt. eigenvalues --    1.77874   1.78569   1.79145   1.80717   1.81212
 Alpha virt. eigenvalues --    1.81859   1.82502   1.82992   1.83634   1.85659
 Alpha virt. eigenvalues --    1.86100   1.87489   1.88167   1.89167   1.89661
 Alpha virt. eigenvalues --    1.89999   1.90753   1.91582   1.92155   1.92287
 Alpha virt. eigenvalues --    1.93017   1.94496   1.94977   1.96179   1.97376
 Alpha virt. eigenvalues --    1.98342   1.98588   1.99752   2.00202   2.01163
 Alpha virt. eigenvalues --    2.01903   2.02754   2.03525   2.04308   2.04997
 Alpha virt. eigenvalues --    2.06301   2.06636   2.08859   2.10079   2.11812
 Alpha virt. eigenvalues --    2.13258   2.14013   2.16058   2.17817   2.19580
 Alpha virt. eigenvalues --    2.20147   2.20315   2.21201   2.21771   2.22754
 Alpha virt. eigenvalues --    2.23549   2.25238   2.25848   2.26414   2.27002
 Alpha virt. eigenvalues --    2.29151   2.29592   2.31877   2.32889   2.34024
 Alpha virt. eigenvalues --    2.34384   2.34991   2.37114   2.38052   2.38371
 Alpha virt. eigenvalues --    2.38560   2.40994   2.42858   2.43575   2.44715
 Alpha virt. eigenvalues --    2.47502   2.48708   2.48906   2.49385   2.51684
 Alpha virt. eigenvalues --    2.51924   2.53807   2.55330   2.55665   2.56961
 Alpha virt. eigenvalues --    2.59295   2.59941   2.61962   2.63198   2.64258
 Alpha virt. eigenvalues --    2.64616   2.65015   2.66428   2.67668   2.68643
 Alpha virt. eigenvalues --    2.71149   2.72255   2.74181   2.75877   2.80421
 Alpha virt. eigenvalues --    2.81731   2.84902   2.88322   2.89509   2.91166
 Alpha virt. eigenvalues --    2.96607   2.99335   3.05259   3.30754   3.70959
 Alpha virt. eigenvalues --    3.71507   3.72517   3.89347   3.96300   3.98406
 Alpha virt. eigenvalues --    3.99757   4.00520   4.04367   4.05697   4.08538
 Alpha virt. eigenvalues --    4.10089   4.12777   4.15466   4.17786   4.19845
 Alpha virt. eigenvalues --    4.26513   4.27972   4.31956   4.32669   4.34455
 Alpha virt. eigenvalues --    4.37007   4.43392   4.46197   4.47518   4.51271
 Alpha virt. eigenvalues --    4.58774   4.62866
          Condensed to atoms (all electrons):
 Mulliken charges:
               1
     1  N   -0.704788
     2  H    0.331988
     3  H    0.334777
     4  C   -0.078415
     5  H    0.167072
     6  C    0.600471
     7  C   -0.370312
     8  H    0.172896
     9  H    0.199612
    10  O   -0.366370
    11  C    0.110474
    12  C   -0.192840
    13  H    0.187399
    14  C   -0.198991
    15  H    0.149404
    16  C   -0.135181
    17  H    0.157258
    18  C   -0.136412
    19  H    0.146786
    20  C   -0.130124
    21  H    0.154026
    22  N   -0.604878
    23  C   -0.088881
    24  H    0.239970
    25  C    0.663986
    26  C   -0.315134
    27  H    0.201244
    28  H    0.198530
    29  O   -0.539017
    30  C   -0.288283
    31  H    0.203425
    32  H    0.208388
    33  C   -0.178635
    34  H    0.213484
    35  H    0.217647
    36  N   -0.600304
    37  H    0.353499
    38  C   -0.035954
    39  H    0.216888
    40  C    0.605119
    41  C   -0.312871
    42  H    0.152304
    43  H    0.163787
    44  O   -0.430963
    45  C   -0.264925
    46  H    0.139324
    47  H    0.166679
    48  C   -0.272883
    49  H    0.117630
    50  H    0.145876
    51  C   -0.146504
    52  H    0.154883
    53  H    0.153966
    54  N   -0.700546
    55  H    0.300110
    56  H    0.295165
    57  O   -0.582923
    58  H    0.428419
    59  H    0.423645
 Sum of Mulliken charges =   1.00000
 Mulliken charges with hydrogens summed into heavy atoms:
               1
     1  N   -0.038023
     4  C    0.088657
     6  C    0.600471
     7  C    0.002196
    10  O   -0.366370
    11  C    0.110474
    12  C   -0.005441
    14  C   -0.049587
    16  C    0.022077
    18  C    0.010374
    20  C    0.023902
    22  N   -0.181233
    23  C    0.151089
    25  C    0.663986
    26  C    0.084640
    29  O   -0.539017
    30  C    0.123530
    33  C    0.252496
    36  N   -0.246805
    38  C    0.180935
    40  C    0.605119
    41  C    0.003221
    44  O   -0.430963
    45  C    0.041079
    48  C   -0.009377
    51  C    0.162345
    54  N   -0.105272
    57  O   -0.154504
 Electronic spatial extent (au):  <R**2>=          16083.5133
 Charge=              1.0000 electrons
 Dipole moment (field-independent basis, Debye):
    X=            -15.2316    Y=             -2.6899    Z=              2.0316  Tot=             15.6001
 Quadrupole moment (field-independent basis, Debye-Ang):
   XX=            -81.9559   YY=           -163.0674   ZZ=           -137.6267
   XY=            -13.4862   XZ=            -20.0647   YZ=             -8.8949
 Traceless Quadrupole moment (field-independent basis, Debye-Ang):
   XX=             45.5941   YY=            -35.5174   ZZ=            -10.0767
   XY=            -13.4862   XZ=            -20.0647   YZ=             -8.8949
 Octapole moment (field-independent basis, Debye-Ang**2):
  XXX=              9.2921  YYY=             43.2481  ZZZ=           -777.5355  XYY=            188.8799
  XXY=             16.4563  XXZ=           -182.0128  XZZ=             86.8620  YZZ=             22.1359
  YYZ=           -267.4380  XYZ=            -35.7093
 Hexadecapole moment (field-independent basis, Debye-Ang**3):
 XXXX=          -9788.9806 YYYY=          -2212.3345 ZZZZ=          -6262.3835 XXXY=          -1812.6572
 XXXZ=           -719.6697 YYYX=          -1376.7438 YYYZ=            492.1211 ZZZX=            442.1367
 ZZZY=            579.1158 XXYY=          -2559.3981 XXZZ=          -2671.9131 YYZZ=          -1344.0540
 XXYZ=             53.6426 YYXZ=            232.2884 ZZXY=           -567.1975
 N-N= 2.815506562461D+03 E-N=-8.631376401950D+03  KE= 1.288254531350D+03
 Unable to Open any file for archive entry.
 1\1\GINC-LAC-313\SP\RB3LYP\6-31G(d)\C20H31N4O4(1+)\KENGMITH\25-May-202
 2\0\\# B3LYP/6-31G* guess=read geom=check nosymm integral(ultrafinegri
 d)\\Candidate Structure: Conf:197 Charge calc in gas phase\\1,1\N,0,-6
 .3604800233,-1.1276396952,3.2026872776\H,0,-7.1259049962,-1.3436658999
 ,2.568801757\H,0,-6.7492316853,-0.7173145768,4.0475619014\C,0,-5.38684
 88471,-0.2359113973,2.6098986978\H,0,-5.795198224,0.7498857292,2.29645
 87538\C,0,-4.8831552366,-0.8716813061,1.3286983515\C,0,-4.223205651,0.
 0618332066,3.6033469836\H,0,-3.7243459789,0.9906494539,3.3037015217\H,
 0,-4.7087531924,0.294511382,4.5609632596\O,0,-5.2122497583,-1.90619406
 46,0.834242481\C,0,-3.1761343213,-1.027195411,3.785233763\C,0,-3.49759
 14431,-2.3944455875,3.8023767617\H,0,-4.5309141475,-2.7032230004,3.681
 0940505\C,0,-1.8395963576,-0.6462666629,3.9846442918\H,0,-1.5773893904
 ,0.4089619669,3.9855264813\C,0,-2.4982880288,-3.3516135594,3.995565028
 4\H,0,-2.7637452553,-4.404985436,4.0091059734\C,0,-0.8465406026,-1.604
 4499618,4.193071125\H,0,0.179099343,-1.2882933028,4.3639922813\C,0,-1.
 1725336224,-2.9621754712,4.1937148336\H,0,-0.4024079383,-3.7099768014,
 4.3602600539\N,0,-3.8968413548,-0.0010153903,0.5363549588\C,0,-2.59446
 09383,-0.7130146892,0.1831725804\H,0,-2.5797219663,-1.6679919773,0.711
 7197969\C,0,-1.4888575833,0.2321574252,0.7014664971\C,0,-2.5992454954,
 -0.8781107169,-1.3600079494\H,0,-1.9061122231,-0.1608408047,-1.8117308
 698\H,0,-2.2784258124,-1.8822089047,-1.6477460013\O,0,-1.8118905928,1.
 3158336537,1.200578969\C,0,-4.0476251662,-0.5876884962,-1.7912376355\H
 ,0,-4.1122935068,-0.2101736832,-2.8150929169\H,0,-4.6657829244,-1.4856
 922815,-1.7148104152\C,0,-4.5140664932,0.4593907159,-0.7859872181\H,0,
 -5.5960573697,0.5426683346,-0.6701728148\H,0,-4.0933215671,1.448294762
 9,-0.9865460167\N,0,-0.2270898179,-0.1864491378,0.5431031843\H,0,-0.05
 15870609,-1.0539374526,0.0507983028\C,0,0.9256653744,0.6699702041,0.83
 34191718\H,0,0.7036743157,1.2234177229,1.7473810038\C,0,1.1551954085,1
 .7199582939,-0.2556952396\C,0,2.176085434,-0.2171849179,1.0382245653\H
 ,0,2.3601575256,-0.7770389003,0.1098862312\H,0,1.9143010235,-0.9527983
 008,1.8100904433\O,0,1.7518090484,2.7518770018,-0.0736313632\C,0,3.457
 3130882,0.5258253412,1.4495405181\H,0,4.2512320448,-0.2292412598,1.513
 3369434\H,0,3.7559358475,1.2236087976,0.6582335944\C,0,3.3671389984,1.
 2784752518,2.7829777934\H,0,2.9973484137,0.5987577371,3.5674438645\H,0
 ,2.6393356099,2.0968109932,2.6992361393\C,0,4.7138130137,1.8833841924,
 3.2379499073\H,0,5.0688476787,2.5851339458,2.4723431069\H,0,4.53690098
 97,2.480898884,4.1403803781\N,0,5.8046800203,0.9568038658,3.5289953891
 \H,0,6.0912325274,0.4428350878,2.6992325861\H,0,5.5244060049,0.2703325
 062,4.2271608191\O,0,0.6600304186,1.3429656614,-1.4622453791\H,0,0.905
 6700595,2.0507083221,-2.0898439604\H,0,-3.5693272256,0.8273397977,1.08
 21847163\\Version=ES64L-G16RevC.01\HF=-1300.4897907\RMSD=1.048e-09\Dip
 ole=-3.6926824,-0.7826523,-2.2169572\Quadrupole=33.8980823,-26.4063259
 ,-7.4917564,-10.0266808,-14.9175892,-6.6131506\PG=C01 [X(C20H31N4O4)]\
 \@
 The archive entry for this job was punched.


 A leading authority is anyone who has guessed right more than once.
 -- Frank A. Clark
 Job cpu time:       0 days  0 hours  2 minutes 49.7 seconds.
 Elapsed time:       0 days  0 hours  0 minutes 42.9 seconds.
 File lengths (MBytes):  RWF=    240 Int=      0 D2E=      0 Chk=     32 Scr=     16
 Normal termination of Gaussian 16 at Wed May 25 20:22:21 2022.
