 Entering Gaussian System, Link 0=/opt/software/Gaussian/g16-AVX2-C.01/g16/g16
 Input=charge-conf-34.com
 Output=charge-conf-34.log
 Initial command:
 /opt/software/Gaussian/g16-AVX2-C.01/g16/l1.exe "/mnt/gs18/scratch/users/kengmith/Gau-7930.inp" -scrdir="/mnt/gs18/scratch/users/kengmith/"
 Entering Link 1 = /opt/software/Gaussian/g16-AVX2-C.01/g16/l1.exe PID=      7940.
  
 Copyright (c) 1988-2019, Gaussian, Inc.  All Rights Reserved.
  
 This is part of the Gaussian(R) 16 program.  It is based on
 the Gaussian(R) 09 system (copyright 2009, Gaussian, Inc.),
 the Gaussian(R) 03 system (copyright 2003, Gaussian, Inc.),
 the Gaussian(R) 98 system (copyright 1998, Gaussian, Inc.),
 the Gaussian(R) 94 system (copyright 1995, Gaussian, Inc.),
 the Gaussian 92(TM) system (copyright 1992, Gaussian, Inc.),
 the Gaussian 90(TM) system (copyright 1990, Gaussian, Inc.),
 the Gaussian 88(TM) system (copyright 1988, Gaussian, Inc.),
 the Gaussian 86(TM) system (copyright 1986, Carnegie Mellon
 University), and the Gaussian 82(TM) system (copyright 1983,
 Carnegie Mellon University). Gaussian is a federally registered
 trademark of Gaussian, Inc.
  
 This software contains proprietary and confidential information,
 including trade secrets, belonging to Gaussian, Inc.
  
 This software is provided under written license and may be
 used, copied, transmitted, or stored only in accord with that
 written license.
  
 The following legend is applicable only to US Government
 contracts under FAR:
  
                    RESTRICTED RIGHTS LEGEND
  
 Use, reproduction and disclosure by the US Government is
 subject to restrictions as set forth in subparagraphs (a)
 and (c) of the Commercial Computer Software - Restricted
 Rights clause in FAR 52.227-19.
  
 Gaussian, Inc.
 340 Quinnipiac St., Bldg. 40, Wallingford CT 06492
  
  
 ---------------------------------------------------------------
 Warning -- This program may not be used in any manner that
 competes with the business of Gaussian, Inc. or will provide
 assistance to any competitor of Gaussian, Inc.  The licensee
 of this program is prohibited from giving any competitor of
 Gaussian, Inc. access to this program.  By using this program,
 the user acknowledges that Gaussian, Inc. is engaged in the
 business of creating and licensing software in the field of
 computational chemistry and represents and warrants to the
 licensee that it is not a competitor of Gaussian, Inc. and that
 it will not use this program in any manner prohibited above.
 ---------------------------------------------------------------
  

 Cite this work as:
 Gaussian 16, Revision C.01,
 M. J. Frisch, G. W. Trucks, H. B. Schlegel, G. E. Scuseria, 
 M. A. Robb, J. R. Cheeseman, G. Scalmani, V. Barone, 
 G. A. Petersson, H. Nakatsuji, X. Li, M. Caricato, A. V. Marenich, 
 J. Bloino, B. G. Janesko, R. Gomperts, B. Mennucci, H. P. Hratchian, 
 J. V. Ortiz, A. F. Izmaylov, J. L. Sonnenberg, D. Williams-Young, 
 F. Ding, F. Lipparini, F. Egidi, J. Goings, B. Peng, A. Petrone, 
 T. Henderson, D. Ranasinghe, V. G. Zakrzewski, J. Gao, N. Rega, 
 G. Zheng, W. Liang, M. Hada, M. Ehara, K. Toyota, R. Fukuda, 
 J. Hasegawa, M. Ishida, T. Nakajima, Y. Honda, O. Kitao, H. Nakai, 
 T. Vreven, K. Throssell, J. A. Montgomery, Jr., J. E. Peralta, 
 F. Ogliaro, M. J. Bearpark, J. J. Heyd, E. N. Brothers, K. N. Kudin, 
 V. N. Staroverov, T. A. Keith, R. Kobayashi, J. Normand, 
 K. Raghavachari, A. P. Rendell, J. C. Burant, S. S. Iyengar, 
 J. Tomasi, M. Cossi, J. M. Millam, M. Klene, C. Adamo, R. Cammi, 
 J. W. Ochterski, R. L. Martin, K. Morokuma, O. Farkas, 
 J. B. Foresman, and D. J. Fox, Gaussian, Inc., Wallingford CT, 2019.
 
 ******************************************
 Gaussian 16:  ES64L-G16RevC.01  3-Jul-2019
                25-May-2022 
 ******************************************
 %mem=8gb
 %nproc=4
 Will use up to    4 processors via shared memory.
 %chk=conf-34.chk
 -------------------------------------------------------------------
 # B3LYP/6-31G* guess=read geom=check nosymm integral(ultrafinegrid)
 -------------------------------------------------------------------
 1/29=2,38=1,172=1/1;
 2/12=2,15=1,40=1/2;
 3/5=1,6=6,7=1,11=2,14=-4,25=1,30=1,74=-5,75=-5,116=-2/1,2,3;
 4/5=1/1;
 5/5=2,38=6/2;
 6/7=2,8=2,9=2,10=2,28=1/1;
 99/5=1,9=1/99;
 -----------------------------------------------------
 Candidate Structure: Conf:34 Charge calc in gas phase
 -----------------------------------------------------
 Structure from the checkpoint file:  "conf-34.chk"
 Charge =  1 Multiplicity = 1
 Redundant internal coordinates found in file.  (old form).
 N,0,-3.4040333902,4.2631415801,0.800355202
 H,0,-2.7046179375,5.00084785,0.823416413
 H,0,-4.3116684517,4.7240267038,0.8565087234
 C,0,-3.2181345849,3.3562077167,1.9361431112
 H,0,-2.1318417289,3.2425102641,2.0709528331
 C,0,-3.6623083108,1.9623272063,1.5102125701
 C,0,-3.8414476448,3.7807991215,3.2841596534
 H,0,-4.9236194789,3.9058565172,3.1512697812
 H,0,-3.7062968699,2.9641149244,4.002076015
 O,0,-4.1345816046,1.077365839,2.15415119
 C,0,-3.211951747,5.0609237009,3.795298238
 C,0,-1.9191190204,5.0402592027,4.3374737692
 H,0,-1.3783178043,4.1019899409,4.44145459
 C,0,-3.8846769744,6.2853455669,3.7026138338
 H,0,-4.896297128,6.3181452058,3.3023904814
 C,0,-1.3083633254,6.2154944096,4.7724711576
 H,0,-0.3059126922,6.163687977,5.1863777529
 C,0,-3.2786734104,7.4642454557,4.143693802
 H,0,-3.8174938607,8.4050808326,4.0754944551
 C,0,-1.9888154138,7.431920653,4.6756913805
 H,0,-1.5193130996,8.3488456283,5.0201858475
 N,0,-3.3897469839,1.7057547844,0.0124936116
 C,0,-2.4951685986,0.5141209572,-0.235055392
 H,0,-2.7625259161,-0.2481825137,0.5032139935
 C,0,-1.0443951485,0.9979287635,-0.0652241116
 C,0,-2.8904713726,0.0701162483,-1.6525232255
 H,0,-2.4069247916,0.7171234808,-2.3937408932
 H,0,-2.585573443,-0.9599423846,-1.8538887594
 O,0,-0.8157522488,2.2088230129,-0.0229454598
 C,0,-4.4158529729,0.2550518839,-1.6595406274
 H,0,-4.8213057345,0.360591724,-2.6686566828
 H,0,-4.9047955041,-0.6040529314,-1.1902257574
 C,0,-4.6607894637,1.5227802479,-0.820611891
 H,0,-5.5098129092,1.4269299529,-0.1429984004
 H,0,-4.7746410189,2.4304260806,-1.4156029588
 N,0,-0.1196238587,0.0283996784,0.0210828652
 H,0,-0.3707473716,-0.9399671963,-0.1604837953
 C,0,1.3218578823,0.2850620278,0.0125237245
 H,0,1.492095794,1.2558652522,-0.4631892904
 C,0,1.9400561346,-0.8173291968,-0.8445920911
 C,0,1.9544042829,0.2891306721,1.4260092784
 H,0,3.0313351204,0.4484488815,1.2989751691
 H,0,1.8310447423,-0.7069483457,1.8718420482
 O,0,1.3399544473,-1.8130230627,-1.1926085997
 C,0,1.3712980669,1.3547260112,2.361201269
 H,0,1.4435327584,2.3366744278,1.8753767622
 H,0,0.299608394,1.1592328939,2.5087825082
 C,0,2.0593700256,1.3909083112,3.7330601174
 H,0,3.1189807222,1.6577365242,3.6109293883
 H,0,2.0417657719,0.3845279412,4.175485796
 C,0,1.3907237277,2.3680544732,4.7196135987
 H,0,0.3376381689,2.0771607561,4.8454686149
 H,0,1.8535531139,2.2593140181,5.7066101553
 N,0,1.4240763975,3.7942518485,4.3780227466
 H,0,1.0917674746,3.9482297238,3.4276867298
 H,0,2.3831268316,4.1377738594,4.4035635024
 O,0,3.2235904289,-0.5660827267,-1.1294194753
 H,0,3.5690511307,-1.3224490521,-1.6428447397
 H,0,-2.8930135917,2.5675857965,-0.2909526888
 Recover connectivity data from disk.
                           ----------------------------
                           !    Current Parameters    !
                           ! (Angstroms and Degrees)  !
 --------------------------                            --------------------------
 ! Name  Definition              Value                                          !
 --------------------------------------------------------------------------------
 ! R1    R(1,2)                  1.0168                                         !
 ! R2    R(1,3)                  1.0195                                         !
 ! R3    R(1,4)                  1.4653                                         !
 ! R4    R(4,5)                  1.1005                                         !
 ! R5    R(4,6)                  1.5237                                         !
 ! R6    R(4,7)                  1.5447                                         !
 ! R7    R(6,10)                 1.192                                          !
 ! R8    R(6,22)                 1.5438                                         !
 ! R9    R(7,8)                  1.0974                                         !
 ! R10   R(7,9)                  1.0957                                         !
 ! R11   R(7,11)                 1.5153                                         !
 ! R12   R(11,12)                1.4021                                         !
 ! R13   R(11,14)                1.4001                                         !
 ! R14   R(12,13)                1.0879                                         !
 ! R15   R(12,16)                1.3941                                         !
 ! R16   R(14,15)                1.0884                                         !
 ! R17   R(14,18)                1.397                                          !
 ! R18   R(16,17)                1.0858                                         !
 ! R19   R(16,20)                1.3972                                         !
 ! R20   R(18,19)                1.0863                                         !
 ! R21   R(18,20)                1.3956                                         !
 ! R22   R(20,21)                1.0862                                         !
 ! R23   R(22,23)                1.5105                                         !
 ! R24   R(22,33)                1.5307                                         !
 ! R25   R(22,59)                1.04                                           !
 ! R26   R(23,24)                1.0944                                         !
 ! R27   R(23,25)                1.5387                                         !
 ! R28   R(23,26)                1.5371                                         !
 ! R29   R(25,29)                1.233                                          !
 ! R30   R(25,36)                1.3426                                         !
 ! R31   R(26,27)                1.0963                                         !
 ! R32   R(26,28)                1.0929                                         !
 ! R33   R(26,30)                1.5366                                         !
 ! R34   R(30,31)                1.0926                                         !
 ! R35   R(30,32)                1.0942                                         !
 ! R36   R(30,33)                1.5398                                         !
 ! R37   R(33,34)                1.0905                                         !
 ! R38   R(33,35)                1.0912                                         !
 ! R39   R(36,37)                1.0167                                         !
 ! R40   R(36,38)                1.4642                                         !
 ! R41   R(38,39)                1.0944                                         !
 ! R42   R(38,40)                1.5271                                         !
 ! R43   R(38,41)                1.5486                                         !
 ! R44   R(40,44)                1.2135                                         !
 ! R45   R(40,57)                1.3385                                         !
 ! R46   R(41,42)                1.096                                          !
 ! R47   R(41,43)                1.0983                                         !
 ! R48   R(41,45)                1.533                                          !
 ! R49   R(45,46)                1.0979                                         !
 ! R50   R(45,47)                1.0993                                         !
 ! R51   R(45,48)                1.5352                                         !
 ! R52   R(48,49)                1.0995                                         !
 ! R53   R(48,50)                1.0995                                         !
 ! R54   R(48,51)                1.5412                                         !
 ! R55   R(51,52)                1.0997                                         !
 ! R56   R(51,53)                1.0955                                         !
 ! R57   R(51,54)                1.4669                                         !
 ! R58   R(54,55)                1.0185                                         !
 ! R59   R(54,56)                1.019                                          !
 ! R60   R(57,58)                0.9773                                         !
 ! A1    A(2,1,3)              106.448                                          !
 ! A2    A(2,1,4)              110.1329                                         !
 ! A3    A(3,1,4)              110.491                                          !
 ! A4    A(1,4,5)              106.5064                                         !
 ! A5    A(1,4,6)              108.2131                                         !
 ! A6    A(1,4,7)              117.0728                                         !
 ! A7    A(5,4,6)              103.1486                                         !
 ! A8    A(5,4,7)              108.6515                                         !
 ! A9    A(6,4,7)              112.1964                                         !
 ! A10   A(4,6,10)             130.0652                                         !
 ! A11   A(4,6,22)             111.8248                                         !
 ! A12   A(10,6,22)            118.0772                                         !
 ! A13   A(4,7,8)              108.8784                                         !
 ! A14   A(4,7,9)              108.4899                                         !
 ! A15   A(4,7,11)             111.0357                                         !
 ! A16   A(8,7,9)              106.6123                                         !
 ! A17   A(8,7,11)             110.7452                                         !
 ! A18   A(9,7,11)             110.9404                                         !
 ! A19   A(7,11,12)            120.0686                                         !
 ! A20   A(7,11,14)            121.1205                                         !
 ! A21   A(12,11,14)           118.7852                                         !
 ! A22   A(11,12,13)           120.5324                                         !
 ! A23   A(11,12,16)           120.8115                                         !
 ! A24   A(13,12,16)           118.6491                                         !
 ! A25   A(11,14,15)           119.8197                                         !
 ! A26   A(11,14,18)           120.5743                                         !
 ! A27   A(15,14,18)           119.5944                                         !
 ! A28   A(12,16,17)           118.8956                                         !
 ! A29   A(12,16,20)           119.933                                          !
 ! A30   A(17,16,20)           121.171                                          !
 ! A31   A(14,18,19)           119.7271                                         !
 ! A32   A(14,18,20)           120.1139                                         !
 ! A33   A(19,18,20)           120.1582                                         !
 ! A34   A(16,20,18)           119.7806                                         !
 ! A35   A(16,20,21)           120.1635                                         !
 ! A36   A(18,20,21)           120.0542                                         !
 ! A37   A(6,22,23)            113.2457                                         !
 ! A38   A(6,22,33)            113.6583                                         !
 ! A39   A(6,22,59)            103.2778                                         !
 ! A40   A(23,22,33)           107.9555                                         !
 ! A41   A(23,22,59)           108.8486                                         !
 ! A42   A(33,22,59)           109.6858                                         !
 ! A43   A(22,23,24)           107.1147                                         !
 ! A44   A(22,23,25)           106.9932                                         !
 ! A45   A(22,23,26)           103.1033                                         !
 ! A46   A(24,23,25)           112.0182                                         !
 ! A47   A(24,23,26)           110.9818                                         !
 ! A48   A(25,23,26)           115.7908                                         !
 ! A49   A(23,25,29)           119.1699                                         !
 ! A50   A(23,25,36)           115.4332                                         !
 ! A51   A(29,25,36)           125.3966                                         !
 ! A52   A(23,26,27)           109.8517                                         !
 ! A53   A(23,26,28)           111.7403                                         !
 ! A54   A(23,26,30)           102.9882                                         !
 ! A55   A(27,26,28)           107.9753                                         !
 ! A56   A(27,26,30)           111.3305                                         !
 ! A57   A(28,26,30)           112.9251                                         !
 ! A58   A(26,30,31)           112.5954                                         !
 ! A59   A(26,30,32)           110.3116                                         !
 ! A60   A(26,30,33)           104.745                                          !
 ! A61   A(31,30,32)           107.8265                                         !
 ! A62   A(31,30,33)           111.3852                                         !
 ! A63   A(32,30,33)           109.9768                                         !
 ! A64   A(22,33,30)           105.2398                                         !
 ! A65   A(22,33,34)           108.5905                                         !
 ! A66   A(22,33,35)           106.4969                                         !
 ! A67   A(30,33,34)           112.9565                                         !
 ! A68   A(30,33,35)           113.849                                          !
 ! A69   A(34,33,35)           109.3102                                         !
 ! A70   A(25,36,37)           120.4083                                         !
 ! A71   A(25,36,38)           123.4455                                         !
 ! A72   A(37,36,38)           114.1464                                         !
 ! A73   A(36,38,39)           108.1302                                         !
 ! A74   A(36,38,40)           105.9786                                         !
 ! A75   A(36,38,41)           113.4072                                         !
 ! A76   A(39,38,40)           109.4757                                         !
 ! A77   A(39,38,41)           109.3226                                         !
 ! A78   A(40,38,41)           110.4167                                         !
 ! A79   A(38,40,44)           123.5781                                         !
 ! A80   A(38,40,57)           111.8458                                         !
 ! A81   A(44,40,57)           124.5532                                         !
 ! A82   A(38,41,42)           107.2139                                         !
 ! A83   A(38,41,43)           108.8004                                         !
 ! A84   A(38,41,45)           113.7835                                         !
 ! A85   A(42,41,43)           106.8131                                         !
 ! A86   A(42,41,45)           110.0844                                         !
 ! A87   A(43,41,45)           109.881                                          !
 ! A88   A(41,45,46)           109.0693                                         !
 ! A89   A(41,45,47)           109.2137                                         !
 ! A90   A(41,45,48)           113.0194                                         !
 ! A91   A(46,45,47)           106.4145                                         !
 ! A92   A(46,45,48)           110.1726                                         !
 ! A93   A(47,45,48)           108.7333                                         !
 ! A94   A(45,48,49)           109.7797                                         !
 ! A95   A(45,48,50)           109.3197                                         !
 ! A96   A(45,48,51)           113.1116                                         !
 ! A97   A(49,48,50)           106.3953                                         !
 ! A98   A(49,48,51)           109.5942                                         !
 ! A99   A(50,48,51)           108.4097                                         !
 ! A100  A(48,51,52)           108.7233                                         !
 ! A101  A(48,51,53)           109.2985                                         !
 ! A102  A(48,51,54)           117.2261                                         !
 ! A103  A(52,51,53)           105.9731                                         !
 ! A104  A(52,51,54)           107.7935                                         !
 ! A105  A(53,51,54)           107.2589                                         !
 ! A106  A(51,54,55)           110.9073                                         !
 ! A107  A(51,54,56)           110.0786                                         !
 ! A108  A(55,54,56)           106.2302                                         !
 ! A109  A(40,57,58)           107.7876                                         !
 ! D1    D(2,1,4,5)            -38.4929                                         !
 ! D2    D(2,1,4,6)           -148.8135                                         !
 ! D3    D(2,1,4,7)             83.2472                                         !
 ! D4    D(3,1,4,5)           -155.8118                                         !
 ! D5    D(3,1,4,6)             93.8675                                         !
 ! D6    D(3,1,4,7)            -34.0717                                         !
 ! D7    D(1,4,6,10)          -149.5666                                         !
 ! D8    D(1,4,6,22)            32.5956                                         !
 ! D9    D(5,4,6,10)            97.8502                                         !
 ! D10   D(5,4,6,22)           -79.9875                                         !
 ! D11   D(7,4,6,10)           -18.8947                                         !
 ! D12   D(7,4,6,22)           163.2675                                         !
 ! D13   D(1,4,7,8)             58.7764                                         !
 ! D14   D(1,4,7,9)            174.4309                                         !
 ! D15   D(1,4,7,11)           -63.4041                                         !
 ! D16   D(5,4,7,8)            179.3934                                         !
 ! D17   D(5,4,7,9)            -64.9522                                         !
 ! D18   D(5,4,7,11)            57.2129                                         !
 ! D19   D(6,4,7,8)            -67.2144                                         !
 ! D20   D(6,4,7,9)             48.4401                                         !
 ! D21   D(6,4,7,11)           170.6051                                         !
 ! D22   D(4,6,22,23)          121.6947                                         !
 ! D23   D(4,6,22,33)         -114.63                                           !
 ! D24   D(4,6,22,59)            4.1374                                         !
 ! D25   D(10,6,22,23)         -56.4299                                         !
 ! D26   D(10,6,22,33)          67.2454                                         !
 ! D27   D(10,6,22,59)        -173.9872                                         !
 ! D28   D(4,7,11,12)          -74.3044                                         !
 ! D29   D(4,7,11,14)          103.8284                                         !
 ! D30   D(8,7,11,12)          164.6069                                         !
 ! D31   D(8,7,11,14)          -17.2604                                         !
 ! D32   D(9,7,11,12)           46.4245                                         !
 ! D33   D(9,7,11,14)         -135.4427                                         !
 ! D34   D(7,11,12,13)          -3.0667                                         !
 ! D35   D(7,11,12,16)         177.91                                           !
 ! D36   D(14,11,12,13)        178.7572                                         !
 ! D37   D(14,11,12,16)         -0.2661                                         !
 ! D38   D(7,11,14,15)           3.0294                                         !
 ! D39   D(7,11,14,18)        -178.2178                                         !
 ! D40   D(12,11,14,15)       -178.8144                                         !
 ! D41   D(12,11,14,18)         -0.0616                                         !
 ! D42   D(11,12,16,17)       -179.94                                           !
 ! D43   D(11,12,16,20)          0.2857                                         !
 ! D44   D(13,12,16,17)          1.0186                                         !
 ! D45   D(13,12,16,20)       -178.7557                                         !
 ! D46   D(11,14,18,19)       -179.3199                                         !
 ! D47   D(11,14,18,20)          0.3696                                         !
 ! D48   D(15,14,18,19)         -0.5644                                         !
 ! D49   D(15,14,18,20)        179.1251                                         !
 ! D50   D(12,16,20,18)          0.025                                          !
 ! D51   D(12,16,20,21)        179.5523                                         !
 ! D52   D(17,16,20,18)       -179.7441                                         !
 ! D53   D(17,16,20,21)         -0.2168                                         !
 ! D54   D(14,18,20,16)         -0.35                                           !
 ! D55   D(14,18,20,21)       -179.8778                                         !
 ! D56   D(19,18,20,16)        179.3381                                         !
 ! D57   D(19,18,20,21)         -0.1897                                         !
 ! D58   D(6,22,23,24)          37.358                                          !
 ! D59   D(6,22,23,25)         -82.9257                                         !
 ! D60   D(6,22,23,26)         154.51                                           !
 ! D61   D(33,22,23,24)        -89.3897                                         !
 ! D62   D(33,22,23,25)        150.3266                                         !
 ! D63   D(33,22,23,26)         27.7623                                         !
 ! D64   D(59,22,23,24)        151.611                                          !
 ! D65   D(59,22,23,25)         31.3273                                         !
 ! D66   D(59,22,23,26)        -91.2371                                         !
 ! D67   D(6,22,33,30)        -131.7104                                         !
 ! D68   D(6,22,33,34)         -10.503                                          !
 ! D69   D(6,22,33,35)         107.1087                                         !
 ! D70   D(23,22,33,30)         -5.2034                                         !
 ! D71   D(23,22,33,34)        116.004                                          !
 ! D72   D(23,22,33,35)       -126.3842                                         !
 ! D73   D(59,22,33,30)        113.2621                                         !
 ! D74   D(59,22,33,34)       -125.5304                                         !
 ! D75   D(59,22,33,35)         -7.9187                                         !
 ! D76   D(22,23,25,29)        -13.1971                                         !
 ! D77   D(22,23,25,36)        167.0131                                         !
 ! D78   D(24,23,25,29)       -130.2951                                         !
 ! D79   D(24,23,25,36)         49.9151                                         !
 ! D80   D(26,23,25,29)        101.0679                                         !
 ! D81   D(26,23,25,36)        -78.7219                                         !
 ! D82   D(22,23,26,27)         79.2703                                         !
 ! D83   D(22,23,26,28)       -160.9148                                         !
 ! D84   D(22,23,26,30)        -39.4254                                         !
 ! D85   D(24,23,26,27)       -166.3441                                         !
 ! D86   D(24,23,26,28)        -46.5291                                         !
 ! D87   D(24,23,26,30)         74.9603                                         !
 ! D88   D(25,23,26,27)        -37.2009                                         !
 ! D89   D(25,23,26,28)         82.614                                          !
 ! D90   D(25,23,26,30)       -155.8965                                         !
 ! D91   D(23,25,36,37)          8.9299                                         !
 ! D92   D(23,25,36,38)        171.8895                                         !
 ! D93   D(29,25,36,37)       -170.8449                                         !
 ! D94   D(29,25,36,38)         -7.8853                                         !
 ! D95   D(23,26,30,31)        157.7895                                         !
 ! D96   D(23,26,30,32)        -81.7055                                         !
 ! D97   D(23,26,30,33)         36.596                                          !
 ! D98   D(27,26,30,31)         40.1311                                         !
 ! D99   D(27,26,30,32)        160.636                                          !
 ! D100  D(27,26,30,33)        -81.0624                                         !
 ! D101  D(28,26,30,31)        -81.5283                                         !
 ! D102  D(28,26,30,32)         38.9766                                         !
 ! D103  D(28,26,30,33)        157.2782                                         !
 ! D104  D(26,30,33,22)        -19.5417                                         !
 ! D105  D(26,30,33,34)       -137.8517                                         !
 ! D106  D(26,30,33,35)         96.7044                                         !
 ! D107  D(31,30,33,22)       -141.5299                                         !
 ! D108  D(31,30,33,34)        100.1601                                         !
 ! D109  D(31,30,33,35)        -25.2838                                         !
 ! D110  D(32,30,33,22)         98.9868                                         !
 ! D111  D(32,30,33,34)        -19.3232                                         !
 ! D112  D(32,30,33,35)       -144.7671                                         !
 ! D113  D(25,36,38,39)        -22.4551                                         !
 ! D114  D(25,36,38,40)       -139.7572                                         !
 ! D115  D(25,36,38,41)         98.9535                                         !
 ! D116  D(37,36,38,39)        141.4655                                         !
 ! D117  D(37,36,38,40)         24.1634                                         !
 ! D118  D(37,36,38,41)        -97.1259                                         !
 ! D119  D(36,38,40,44)        -12.7329                                         !
 ! D120  D(36,38,40,57)        168.9382                                         !
 ! D121  D(39,38,40,44)       -129.1299                                         !
 ! D122  D(39,38,40,57)         52.5411                                         !
 ! D123  D(41,38,40,44)        110.4637                                         !
 ! D124  D(41,38,40,57)        -67.8652                                         !
 ! D125  D(36,38,41,42)        177.7602                                         !
 ! D126  D(36,38,41,43)         62.5871                                         !
 ! D127  D(36,38,41,45)        -60.2741                                         !
 ! D128  D(39,38,41,42)        -61.502                                          !
 ! D129  D(39,38,41,43)       -176.6751                                         !
 ! D130  D(39,38,41,45)         60.4636                                         !
 ! D131  D(40,38,41,42)         58.996                                          !
 ! D132  D(40,38,41,43)        -56.1771                                         !
 ! D133  D(40,38,41,45)       -179.0383                                         !
 ! D134  D(38,40,57,58)        177.5468                                         !
 ! D135  D(44,40,57,58)         -0.7628                                         !
 ! D136  D(38,41,45,46)        -54.1579                                         !
 ! D137  D(38,41,45,47)         61.7611                                         !
 ! D138  D(38,41,45,48)       -177.0672                                         !
 ! D139  D(42,41,45,46)         66.2057                                         !
 ! D140  D(42,41,45,47)       -177.8754                                         !
 ! D141  D(42,41,45,48)        -56.7036                                         !
 ! D142  D(43,41,45,46)       -176.4252                                         !
 ! D143  D(43,41,45,47)        -60.5062                                         !
 ! D144  D(43,41,45,48)         60.6655                                         !
 ! D145  D(41,45,48,49)         62.644                                          !
 ! D146  D(41,45,48,50)        -53.7113                                         !
 ! D147  D(41,45,48,51)       -174.607                                          !
 ! D148  D(46,45,48,49)        -59.6503                                         !
 ! D149  D(46,45,48,50)       -176.0056                                         !
 ! D150  D(46,45,48,51)         63.0987                                         !
 ! D151  D(47,45,48,49)       -175.9127                                         !
 ! D152  D(47,45,48,50)         67.732                                          !
 ! D153  D(47,45,48,51)        -53.1637                                         !
 ! D154  D(45,48,51,52)         58.1891                                         !
 ! D155  D(45,48,51,53)        173.4377                                         !
 ! D156  D(45,48,51,54)        -64.3076                                         !
 ! D157  D(49,48,51,52)       -178.959                                          !
 ! D158  D(49,48,51,53)        -63.7104                                         !
 ! D159  D(49,48,51,54)         58.5443                                         !
 ! D160  D(50,48,51,52)        -63.221                                          !
 ! D161  D(50,48,51,53)         52.0275                                         !
 ! D162  D(50,48,51,54)        174.2823                                         !
 ! D163  D(48,51,54,55)         50.9639                                         !
 ! D164  D(48,51,54,56)        -66.3066                                         !
 ! D165  D(52,51,54,55)        -72.0099                                         !
 ! D166  D(52,51,54,56)        170.7196                                         !
 ! D167  D(53,51,54,55)        174.265                                          !
 ! D168  D(53,51,54,56)         56.9945                                         !
 --------------------------------------------------------------------------------
 Symmetry turned off by external request.
 Stoichiometry    C20H31N4O4(1+)
 Framework group  C1[X(C20H31N4O4)]
 Deg. of freedom   171
 Full point group                 C1      NOp   1
                          Input orientation:                          
 ---------------------------------------------------------------------
 Center     Atomic      Atomic             Coordinates (Angstroms)
 Number     Number       Type             X           Y           Z
 ---------------------------------------------------------------------
      1          7           0       -3.404033    4.263142    0.800355
      2          1           0       -2.704618    5.000848    0.823416
      3          1           0       -4.311668    4.724027    0.856509
      4          6           0       -3.218135    3.356208    1.936143
      5          1           0       -2.131842    3.242510    2.070953
      6          6           0       -3.662308    1.962327    1.510213
      7          6           0       -3.841448    3.780799    3.284160
      8          1           0       -4.923619    3.905857    3.151270
      9          1           0       -3.706297    2.964115    4.002076
     10          8           0       -4.134582    1.077366    2.154151
     11          6           0       -3.211952    5.060924    3.795298
     12          6           0       -1.919119    5.040259    4.337474
     13          1           0       -1.378318    4.101990    4.441455
     14          6           0       -3.884677    6.285346    3.702614
     15          1           0       -4.896297    6.318145    3.302390
     16          6           0       -1.308363    6.215494    4.772471
     17          1           0       -0.305913    6.163688    5.186378
     18          6           0       -3.278673    7.464245    4.143694
     19          1           0       -3.817494    8.405081    4.075494
     20          6           0       -1.988815    7.431921    4.675691
     21          1           0       -1.519313    8.348846    5.020186
     22          7           0       -3.389747    1.705755    0.012494
     23          6           0       -2.495169    0.514121   -0.235055
     24          1           0       -2.762526   -0.248183    0.503214
     25          6           0       -1.044395    0.997929   -0.065224
     26          6           0       -2.890471    0.070116   -1.652523
     27          1           0       -2.406925    0.717123   -2.393741
     28          1           0       -2.585573   -0.959942   -1.853889
     29          8           0       -0.815752    2.208823   -0.022945
     30          6           0       -4.415853    0.255052   -1.659541
     31          1           0       -4.821306    0.360592   -2.668657
     32          1           0       -4.904796   -0.604053   -1.190226
     33          6           0       -4.660789    1.522780   -0.820612
     34          1           0       -5.509813    1.426930   -0.142998
     35          1           0       -4.774641    2.430426   -1.415603
     36          7           0       -0.119624    0.028400    0.021083
     37          1           0       -0.370747   -0.939967   -0.160484
     38          6           0        1.321858    0.285062    0.012524
     39          1           0        1.492096    1.255865   -0.463189
     40          6           0        1.940056   -0.817329   -0.844592
     41          6           0        1.954404    0.289131    1.426009
     42          1           0        3.031335    0.448449    1.298975
     43          1           0        1.831045   -0.706948    1.871842
     44          8           0        1.339954   -1.813023   -1.192609
     45          6           0        1.371298    1.354726    2.361201
     46          1           0        1.443533    2.336674    1.875377
     47          1           0        0.299608    1.159233    2.508783
     48          6           0        2.059370    1.390908    3.733060
     49          1           0        3.118981    1.657737    3.610929
     50          1           0        2.041766    0.384528    4.175486
     51          6           0        1.390724    2.368054    4.719614
     52          1           0        0.337638    2.077161    4.845469
     53          1           0        1.853553    2.259314    5.706610
     54          7           0        1.424076    3.794252    4.378023
     55          1           0        1.091767    3.948230    3.427687
     56          1           0        2.383127    4.137774    4.403564
     57          8           0        3.223590   -0.566083   -1.129419
     58          1           0        3.569051   -1.322449   -1.642845
     59          1           0       -2.893014    2.567586   -0.290953
 ---------------------------------------------------------------------
 Rotational constants (GHZ):           0.2026312           0.1122217           0.0785653
 Standard basis: 6-31G(d) (6D, 7F)
   482 basis functions,   908 primitive gaussians,   482 cartesian basis functions
   105 alpha electrons      105 beta electrons
       nuclear repulsion energy      2752.0778128296 Hartrees.
 NAtoms=   59 NActive=   59 NUniq=   59 SFac= 1.00D+00 NAtFMM=   60 NAOKFM=F Big=F
 Integral buffers will be    131072 words long.
 Raffenetti 2 integral format.
 Two-electron integral symmetry is turned off.
 One-electron integrals computed using PRISM.
 NBasis=   482 RedAO= T EigKep=  4.57D-04  NBF=   482
 NBsUse=   482 1.00D-06 EigRej= -1.00D+00 NBFU=   482
 Initial guess from the checkpoint file:  "conf-34.chk"
 B after Tr=     0.000000    0.000000    0.000000
         Rot=    1.000000    0.000000    0.000000    0.000000 Ang=   0.00 deg.
 Requested convergence on RMS density matrix=1.00D-08 within 128 cycles.
 Requested convergence on MAX density matrix=1.00D-06.
 Requested convergence on             energy=1.00D-06.
 No special actions if energy rises.
 SCF Done:  E(RB3LYP) =  -1300.51202351     A.U. after    1 cycles
            NFock=  1  Conv=0.52D-08     -V/T= 2.0095

 **********************************************************************

            Population analysis using the SCF Density.

 **********************************************************************

 Alpha  occ. eigenvalues --  -19.32455 -19.30982 -19.26100 -19.25637 -14.57905
 Alpha  occ. eigenvalues --  -14.49769 -14.46479 -14.39662 -10.47076 -10.43665
 Alpha  occ. eigenvalues --  -10.43484 -10.39533 -10.38502 -10.37290 -10.35753
 Alpha  occ. eigenvalues --  -10.34263 -10.33664 -10.30695 -10.29710 -10.28911
 Alpha  occ. eigenvalues --  -10.28676 -10.28251 -10.27473 -10.27100 -10.27014
 Alpha  occ. eigenvalues --  -10.26805 -10.26734 -10.26641  -1.23883  -1.22131
 Alpha  occ. eigenvalues --   -1.18229  -1.13380  -1.12983  -1.06296  -1.03791
 Alpha  occ. eigenvalues --   -0.96213  -0.95062  -0.93966  -0.92163  -0.89909
 Alpha  occ. eigenvalues --   -0.88768  -0.85829  -0.84208  -0.82459  -0.79954
 Alpha  occ. eigenvalues --   -0.79004  -0.77194  -0.75244  -0.74195  -0.73397
 Alpha  occ. eigenvalues --   -0.72414  -0.71156  -0.69327  -0.68689  -0.67283
 Alpha  occ. eigenvalues --   -0.67060  -0.65460  -0.64332  -0.63010  -0.62168
 Alpha  occ. eigenvalues --   -0.60921  -0.60387  -0.59723  -0.59273  -0.58953
 Alpha  occ. eigenvalues --   -0.58550  -0.57928  -0.57573  -0.57188  -0.56321
 Alpha  occ. eigenvalues --   -0.56096  -0.55649  -0.54504  -0.53980  -0.53686
 Alpha  occ. eigenvalues --   -0.53495  -0.52122  -0.51781  -0.51629  -0.51317
 Alpha  occ. eigenvalues --   -0.50576  -0.50248  -0.49963  -0.49479  -0.49258
 Alpha  occ. eigenvalues --   -0.49153  -0.48501  -0.47751  -0.47238  -0.45274
 Alpha  occ. eigenvalues --   -0.44455  -0.44305  -0.43979  -0.43118  -0.42575
 Alpha  occ. eigenvalues --   -0.42427  -0.42177  -0.41935  -0.40307  -0.39339
 Alpha  occ. eigenvalues --   -0.39281  -0.38708  -0.33122  -0.32828  -0.31664
 Alpha virt. eigenvalues --   -0.18740  -0.12167  -0.10340  -0.09028  -0.08356
 Alpha virt. eigenvalues --   -0.06853  -0.05555  -0.04333  -0.03299  -0.03046
 Alpha virt. eigenvalues --   -0.02654  -0.01978  -0.00622  -0.00150   0.00359
 Alpha virt. eigenvalues --    0.00810   0.00998   0.01356   0.01943   0.02345
 Alpha virt. eigenvalues --    0.03009   0.03262   0.03971   0.04086   0.04213
 Alpha virt. eigenvalues --    0.05154   0.05441   0.05735   0.06889   0.07030
 Alpha virt. eigenvalues --    0.07215   0.07807   0.08323   0.08639   0.08868
 Alpha virt. eigenvalues --    0.09545   0.09719   0.10195   0.10454   0.10666
 Alpha virt. eigenvalues --    0.11013   0.11290   0.11880   0.12307   0.12580
 Alpha virt. eigenvalues --    0.13224   0.13619   0.14240   0.15223   0.16101
 Alpha virt. eigenvalues --    0.16688   0.17055   0.17836   0.18286   0.21186
 Alpha virt. eigenvalues --    0.21671   0.22295   0.22899   0.23223   0.24644
 Alpha virt. eigenvalues --    0.25246   0.26526   0.27247   0.29251   0.34829
 Alpha virt. eigenvalues --    0.35982   0.36338   0.37325   0.37826   0.38889
 Alpha virt. eigenvalues --    0.40404   0.41318   0.41622   0.42340   0.42663
 Alpha virt. eigenvalues --    0.43595   0.44213   0.44763   0.45717   0.46112
 Alpha virt. eigenvalues --    0.46240   0.47143   0.47229   0.47713   0.48384
 Alpha virt. eigenvalues --    0.48790   0.49250   0.49829   0.50435   0.50825
 Alpha virt. eigenvalues --    0.51473   0.52064   0.52523   0.53168   0.53532
 Alpha virt. eigenvalues --    0.53747   0.54124   0.54699   0.54719   0.55657
 Alpha virt. eigenvalues --    0.55866   0.56272   0.56730   0.57037   0.57899
 Alpha virt. eigenvalues --    0.58673   0.58822   0.60064   0.60645   0.61914
 Alpha virt. eigenvalues --    0.62917   0.63557   0.64481   0.64896   0.66111
 Alpha virt. eigenvalues --    0.66743   0.67056   0.68036   0.68465   0.68973
 Alpha virt. eigenvalues --    0.70126   0.70760   0.71225   0.71841   0.72109
 Alpha virt. eigenvalues --    0.72209   0.72579   0.73231   0.73826   0.74474
 Alpha virt. eigenvalues --    0.74591   0.74946   0.75211   0.76212   0.76490
 Alpha virt. eigenvalues --    0.76836   0.77114   0.77856   0.78733   0.79171
 Alpha virt. eigenvalues --    0.79610   0.79850   0.80397   0.80758   0.81093
 Alpha virt. eigenvalues --    0.81214   0.81920   0.82378   0.82595   0.83010
 Alpha virt. eigenvalues --    0.83585   0.83986   0.84323   0.84954   0.85537
 Alpha virt. eigenvalues --    0.86149   0.86614   0.87134   0.87810   0.88238
 Alpha virt. eigenvalues --    0.88767   0.89084   0.90853   0.91126   0.91872
 Alpha virt. eigenvalues --    0.93880   0.94109   0.94889   0.96284   0.96886
 Alpha virt. eigenvalues --    0.97935   0.98825   0.99664   1.00553   1.01234
 Alpha virt. eigenvalues --    1.01528   1.03491   1.04459   1.05401   1.06482
 Alpha virt. eigenvalues --    1.07236   1.08028   1.09957   1.10218   1.10769
 Alpha virt. eigenvalues --    1.11189   1.14885   1.16384   1.17869   1.18761
 Alpha virt. eigenvalues --    1.19996   1.22188   1.23783   1.24500   1.27261
 Alpha virt. eigenvalues --    1.28475   1.28620   1.30291   1.32788   1.34272
 Alpha virt. eigenvalues --    1.35019   1.36753   1.37460   1.37867   1.39852
 Alpha virt. eigenvalues --    1.40240   1.40696   1.41285   1.41607   1.43167
 Alpha virt. eigenvalues --    1.43604   1.44656   1.45906   1.46761   1.47346
 Alpha virt. eigenvalues --    1.48841   1.50250   1.51109   1.51981   1.54346
 Alpha virt. eigenvalues --    1.54593   1.56439   1.57300   1.57788   1.58602
 Alpha virt. eigenvalues --    1.60640   1.60812   1.62490   1.63654   1.64085
 Alpha virt. eigenvalues --    1.66051   1.66957   1.67733   1.68445   1.69094
 Alpha virt. eigenvalues --    1.70800   1.71135   1.71924   1.72517   1.72837
 Alpha virt. eigenvalues --    1.73756   1.75314   1.76347   1.76859   1.77977
 Alpha virt. eigenvalues --    1.78697   1.79543   1.80330   1.81144   1.81791
 Alpha virt. eigenvalues --    1.82461   1.82935   1.83286   1.83753   1.85106
 Alpha virt. eigenvalues --    1.85617   1.86416   1.87260   1.87273   1.88952
 Alpha virt. eigenvalues --    1.89577   1.90448   1.90693   1.91160   1.92898
 Alpha virt. eigenvalues --    1.93593   1.94390   1.95200   1.95935   1.96472
 Alpha virt. eigenvalues --    1.96633   1.97208   1.97667   1.99167   1.99724
 Alpha virt. eigenvalues --    2.00304   2.01609   2.04136   2.05864   2.06340
 Alpha virt. eigenvalues --    2.06675   2.08442   2.08782   2.09281   2.11534
 Alpha virt. eigenvalues --    2.13206   2.14687   2.15778   2.16799   2.17715
 Alpha virt. eigenvalues --    2.19261   2.20098   2.21428   2.22663   2.22791
 Alpha virt. eigenvalues --    2.23066   2.23321   2.24972   2.26094   2.27195
 Alpha virt. eigenvalues --    2.28291   2.29036   2.30115   2.32408   2.33418
 Alpha virt. eigenvalues --    2.33861   2.34314   2.36690   2.37523   2.39452
 Alpha virt. eigenvalues --    2.41934   2.43282   2.44088   2.46205   2.47399
 Alpha virt. eigenvalues --    2.48768   2.49224   2.49836   2.51514   2.52572
 Alpha virt. eigenvalues --    2.53008   2.53373   2.54203   2.57211   2.58470
 Alpha virt. eigenvalues --    2.59008   2.60771   2.62608   2.63646   2.64829
 Alpha virt. eigenvalues --    2.66168   2.66492   2.67419   2.68350   2.69864
 Alpha virt. eigenvalues --    2.70159   2.72642   2.73476   2.76369   2.81729
 Alpha virt. eigenvalues --    2.82539   2.85297   2.86801   2.90256   2.91316
 Alpha virt. eigenvalues --    2.97549   2.98976   3.06449   3.32720   3.71152
 Alpha virt. eigenvalues --    3.72904   3.75916   3.88553   3.94111   3.97597
 Alpha virt. eigenvalues --    4.01181   4.02434   4.04002   4.04309   4.07666
 Alpha virt. eigenvalues --    4.08593   4.09336   4.15349   4.18331   4.21461
 Alpha virt. eigenvalues --    4.24207   4.25461   4.31251   4.31506   4.32973
 Alpha virt. eigenvalues --    4.33413   4.41809   4.45982   4.49999   4.51322
 Alpha virt. eigenvalues --    4.57834   4.62150
          Condensed to atoms (all electrons):
 Mulliken charges:
               1
     1  N   -0.762730
     2  H    0.358517
     3  H    0.332642
     4  C   -0.089555
     5  H    0.224817
     6  C    0.594926
     7  C   -0.367754
     8  H    0.162213
     9  H    0.188777
    10  O   -0.370922
    11  C    0.167160
    12  C   -0.199987
    13  H    0.142671
    14  C   -0.197502
    15  H    0.125490
    16  C   -0.132442
    17  H    0.167170
    18  C   -0.125754
    19  H    0.150295
    20  C   -0.127614
    21  H    0.152215
    22  N   -0.580661
    23  C   -0.092871
    24  H    0.220900
    25  C    0.642545
    26  C   -0.303070
    27  H    0.190208
    28  H    0.204381
    29  O   -0.531752
    30  C   -0.302782
    31  H    0.203697
    32  H    0.193951
    33  C   -0.155578
    34  H    0.217334
    35  H    0.215210
    36  N   -0.601642
    37  H    0.363544
    38  C   -0.061925
    39  H    0.209952
    40  C    0.594876
    41  C   -0.267644
    42  H    0.181646
    43  H    0.155978
    44  O   -0.463768
    45  C   -0.261755
    46  H    0.142753
    47  H    0.121879
    48  C   -0.266254
    49  H    0.142129
    50  H    0.142090
    51  C   -0.152084
    52  H    0.134258
    53  H    0.163676
    54  N   -0.712088
    55  H    0.295967
    56  H    0.308373
    57  O   -0.550061
    58  H    0.435578
    59  H    0.430381
 Sum of Mulliken charges =   1.00000
 Mulliken charges with hydrogens summed into heavy atoms:
               1
     1  N   -0.071571
     4  C    0.135261
     6  C    0.594926
     7  C   -0.016764
    10  O   -0.370922
    11  C    0.167160
    12  C   -0.057317
    14  C   -0.072012
    16  C    0.034728
    18  C    0.024541
    20  C    0.024602
    22  N   -0.150280
    23  C    0.128028
    25  C    0.642545
    26  C    0.091519
    29  O   -0.531752
    30  C    0.094865
    33  C    0.276966
    36  N   -0.238098
    38  C    0.148027
    40  C    0.594876
    41  C    0.069980
    44  O   -0.463768
    45  C    0.002876
    48  C    0.017965
    51  C    0.145850
    54  N   -0.107748
    57  O   -0.114483
 Electronic spatial extent (au):  <R**2>=          20328.0482
 Charge=              1.0000 electrons
 Dipole moment (field-independent basis, Debye):
    X=             -9.6260    Y=              8.5107    Z=              0.7930  Tot=             12.8733
 Quadrupole moment (field-independent basis, Debye-Ang):
   XX=            -90.9636   YY=           -118.9111   ZZ=           -150.0671
   XY=            -32.3309   XZ=              8.4085   YZ=             16.7183
 Traceless Quadrupole moment (field-independent basis, Debye-Ang):
   XX=             29.0170   YY=              1.0695   ZZ=            -30.0865
   XY=            -32.3309   XZ=              8.4085   YZ=             16.7183
 Octapole moment (field-independent basis, Debye-Ang**2):
  XXX=            440.5982  YYY=           -845.1441  ZZZ=           -807.3123  XYY=             74.8935
  XXY=           -233.7068  XXZ=           -286.6108  XZZ=            238.8483  YZZ=           -347.7865
  YYZ=           -141.3392  XYZ=            -10.6920
 Hexadecapole moment (field-independent basis, Debye-Ang**3):
 XXXX=          -6452.5820 YYYY=          -9404.0559 ZZZZ=          -7671.4885 XXXY=           1976.8345
 XXXZ=           1071.5616 YYYX=           1820.9882 YYYZ=          -2926.2247 ZZZX=           1221.6250
 ZZZY=          -3975.2680 XXYY=          -2452.5876 XXZZ=          -2377.2297 YYZZ=          -2857.4111
 XXYZ=          -1057.5569 YYXZ=             89.4398 ZZXY=            917.1817
 N-N= 2.752077812830D+03 E-N=-8.505334893344D+03  KE= 1.288270578077D+03
 Unable to Open any file for archive entry.
 1\1\GINC-LAC-311\SP\RB3LYP\6-31G(d)\C20H31N4O4(1+)\KENGMITH\25-May-202
 2\0\\# B3LYP/6-31G* guess=read geom=check nosymm integral(ultrafinegri
 d)\\Candidate Structure: Conf:34 Charge calc in gas phase\\1,1\N,0,-3.
 4040333902,4.2631415801,0.800355202\H,0,-2.7046179375,5.00084785,0.823
 416413\H,0,-4.3116684517,4.7240267038,0.8565087234\C,0,-3.2181345849,3
 .3562077167,1.9361431112\H,0,-2.1318417289,3.2425102641,2.0709528331\C
 ,0,-3.6623083108,1.9623272063,1.5102125701\C,0,-3.8414476448,3.7807991
 215,3.2841596534\H,0,-4.9236194789,3.9058565172,3.1512697812\H,0,-3.70
 62968699,2.9641149244,4.002076015\O,0,-4.1345816046,1.077365839,2.1541
 5119\C,0,-3.211951747,5.0609237009,3.795298238\C,0,-1.9191190204,5.040
 2592027,4.3374737692\H,0,-1.3783178043,4.1019899409,4.44145459\C,0,-3.
 8846769744,6.2853455669,3.7026138338\H,0,-4.896297128,6.3181452058,3.3
 023904814\C,0,-1.3083633254,6.2154944096,4.7724711576\H,0,-0.305912692
 2,6.163687977,5.1863777529\C,0,-3.2786734104,7.4642454557,4.143693802\
 H,0,-3.8174938607,8.4050808326,4.0754944551\C,0,-1.9888154138,7.431920
 653,4.6756913805\H,0,-1.5193130996,8.3488456283,5.0201858475\N,0,-3.38
 97469839,1.7057547844,0.0124936116\C,0,-2.4951685986,0.5141209572,-0.2
 35055392\H,0,-2.7625259161,-0.2481825137,0.5032139935\C,0,-1.044395148
 5,0.9979287635,-0.0652241116\C,0,-2.8904713726,0.0701162483,-1.6525232
 255\H,0,-2.4069247916,0.7171234808,-2.3937408932\H,0,-2.585573443,-0.9
 599423846,-1.8538887594\O,0,-0.8157522488,2.2088230129,-0.0229454598\C
 ,0,-4.4158529729,0.2550518839,-1.6595406274\H,0,-4.8213057345,0.360591
 724,-2.6686566828\H,0,-4.9047955041,-0.6040529314,-1.1902257574\C,0,-4
 .6607894637,1.5227802479,-0.820611891\H,0,-5.5098129092,1.4269299529,-
 0.1429984004\H,0,-4.7746410189,2.4304260806,-1.4156029588\N,0,-0.11962
 38587,0.0283996784,0.0210828652\H,0,-0.3707473716,-0.9399671963,-0.160
 4837953\C,0,1.3218578823,0.2850620278,0.0125237245\H,0,1.492095794,1.2
 558652522,-0.4631892904\C,0,1.9400561346,-0.8173291968,-0.8445920911\C
 ,0,1.9544042829,0.2891306721,1.4260092784\H,0,3.0313351204,0.448448881
 5,1.2989751691\H,0,1.8310447423,-0.7069483457,1.8718420482\O,0,1.33995
 44473,-1.8130230627,-1.1926085997\C,0,1.3712980669,1.3547260112,2.3612
 01269\H,0,1.4435327584,2.3366744278,1.8753767622\H,0,0.299608394,1.159
 2328939,2.5087825082\C,0,2.0593700256,1.3909083112,3.7330601174\H,0,3.
 1189807222,1.6577365242,3.6109293883\H,0,2.0417657719,0.3845279412,4.1
 75485796\C,0,1.3907237277,2.3680544732,4.7196135987\H,0,0.3376381689,2
 .0771607561,4.8454686149\H,0,1.8535531139,2.2593140181,5.7066101553\N,
 0,1.4240763975,3.7942518485,4.3780227466\H,0,1.0917674746,3.9482297238
 ,3.4276867298\H,0,2.3831268316,4.1377738594,4.4035635024\O,0,3.2235904
 289,-0.5660827267,-1.1294194753\H,0,3.5690511307,-1.3224490521,-1.6428
 447397\H,0,-2.8930135917,2.5675857965,-0.2909526888\\Version=ES64L-G16
 RevC.01\HF=-1300.5120235\RMSD=5.159e-09\Dipole=-1.365048,-0.9534737,-2
 .5959453\Quadrupole=21.5734389,0.7951221,-22.3685611,-24.0372158,6.251
 4847,12.4296234\PG=C01 [X(C20H31N4O4)]\\@
 The archive entry for this job was punched.


 K N O W I N G  IS A BARRIER WHICH PREVENTS LEARNING

                     -- TEACHING OF THE BENE GESSERIT
 Job cpu time:       0 days  0 hours  1 minutes  8.0 seconds.
 Elapsed time:       0 days  0 hours  0 minutes 17.4 seconds.
 File lengths (MBytes):  RWF=    240 Int=      0 D2E=      0 Chk=     32 Scr=     16
 Normal termination of Gaussian 16 at Wed May 25 20:21:56 2022.
