 Entering Gaussian System, Link 0=/opt/software/Gaussian/g16-AVX2-C.01/g16/g16
 Input=charge-conf-607.com
 Output=charge-conf-607.log
 Initial command:
 /opt/software/Gaussian/g16-AVX2-C.01/g16/l1.exe "/mnt/gs18/scratch/users/kengmith/Gau-37665.inp" -scrdir="/mnt/gs18/scratch/users/kengmith/"
 Entering Link 1 = /opt/software/Gaussian/g16-AVX2-C.01/g16/l1.exe PID=     37689.
  
 Copyright (c) 1988-2019, Gaussian, Inc.  All Rights Reserved.
  
 This is part of the Gaussian(R) 16 program.  It is based on
 the Gaussian(R) 09 system (copyright 2009, Gaussian, Inc.),
 the Gaussian(R) 03 system (copyright 2003, Gaussian, Inc.),
 the Gaussian(R) 98 system (copyright 1998, Gaussian, Inc.),
 the Gaussian(R) 94 system (copyright 1995, Gaussian, Inc.),
 the Gaussian 92(TM) system (copyright 1992, Gaussian, Inc.),
 the Gaussian 90(TM) system (copyright 1990, Gaussian, Inc.),
 the Gaussian 88(TM) system (copyright 1988, Gaussian, Inc.),
 the Gaussian 86(TM) system (copyright 1986, Carnegie Mellon
 University), and the Gaussian 82(TM) system (copyright 1983,
 Carnegie Mellon University). Gaussian is a federally registered
 trademark of Gaussian, Inc.
  
 This software contains proprietary and confidential information,
 including trade secrets, belonging to Gaussian, Inc.
  
 This software is provided under written license and may be
 used, copied, transmitted, or stored only in accord with that
 written license.
  
 The following legend is applicable only to US Government
 contracts under FAR:
  
                    RESTRICTED RIGHTS LEGEND
  
 Use, reproduction and disclosure by the US Government is
 subject to restrictions as set forth in subparagraphs (a)
 and (c) of the Commercial Computer Software - Restricted
 Rights clause in FAR 52.227-19.
  
 Gaussian, Inc.
 340 Quinnipiac St., Bldg. 40, Wallingford CT 06492
  
  
 ---------------------------------------------------------------
 Warning -- This program may not be used in any manner that
 competes with the business of Gaussian, Inc. or will provide
 assistance to any competitor of Gaussian, Inc.  The licensee
 of this program is prohibited from giving any competitor of
 Gaussian, Inc. access to this program.  By using this program,
 the user acknowledges that Gaussian, Inc. is engaged in the
 business of creating and licensing software in the field of
 computational chemistry and represents and warrants to the
 licensee that it is not a competitor of Gaussian, Inc. and that
 it will not use this program in any manner prohibited above.
 ---------------------------------------------------------------
  

 Cite this work as:
 Gaussian 16, Revision C.01,
 M. J. Frisch, G. W. Trucks, H. B. Schlegel, G. E. Scuseria, 
 M. A. Robb, J. R. Cheeseman, G. Scalmani, V. Barone, 
 G. A. Petersson, H. Nakatsuji, X. Li, M. Caricato, A. V. Marenich, 
 J. Bloino, B. G. Janesko, R. Gomperts, B. Mennucci, H. P. Hratchian, 
 J. V. Ortiz, A. F. Izmaylov, J. L. Sonnenberg, D. Williams-Young, 
 F. Ding, F. Lipparini, F. Egidi, J. Goings, B. Peng, A. Petrone, 
 T. Henderson, D. Ranasinghe, V. G. Zakrzewski, J. Gao, N. Rega, 
 G. Zheng, W. Liang, M. Hada, M. Ehara, K. Toyota, R. Fukuda, 
 J. Hasegawa, M. Ishida, T. Nakajima, Y. Honda, O. Kitao, H. Nakai, 
 T. Vreven, K. Throssell, J. A. Montgomery, Jr., J. E. Peralta, 
 F. Ogliaro, M. J. Bearpark, J. J. Heyd, E. N. Brothers, K. N. Kudin, 
 V. N. Staroverov, T. A. Keith, R. Kobayashi, J. Normand, 
 K. Raghavachari, A. P. Rendell, J. C. Burant, S. S. Iyengar, 
 J. Tomasi, M. Cossi, J. M. Millam, M. Klene, C. Adamo, R. Cammi, 
 J. W. Ochterski, R. L. Martin, K. Morokuma, O. Farkas, 
 J. B. Foresman, and D. J. Fox, Gaussian, Inc., Wallingford CT, 2019.
 
 ******************************************
 Gaussian 16:  ES64L-G16RevC.01  3-Jul-2019
                25-May-2022 
 ******************************************
 %mem=8gb
 %nproc=4
 Will use up to    4 processors via shared memory.
 %chk=conf-607.chk
 -------------------------------------------------------------------
 # B3LYP/6-31G* guess=read geom=check nosymm integral(ultrafinegrid)
 -------------------------------------------------------------------
 1/29=2,38=1,172=1/1;
 2/12=2,15=1,40=1/2;
 3/5=1,6=6,7=1,11=2,14=-4,25=1,30=1,74=-5,75=-5,116=-2/1,2,3;
 4/5=1/1;
 5/5=2,38=6/2;
 6/7=2,8=2,9=2,10=2,28=1/1;
 99/5=1,9=1/99;
 ------------------------------------------------------
 Candidate Structure: Conf:607 Charge calc in gas phase
 ------------------------------------------------------
 Structure from the checkpoint file:  "conf-607.chk"
 Charge =  1 Multiplicity = 1
 Redundant internal coordinates found in file.  (old form).
 N,0,-1.5499788628,-0.7632260201,-3.9526379589
 H,0,-2.1188428129,-0.9186432795,-4.7830301855
 H,0,-0.5802623346,-0.9713351238,-4.1698445013
 C,0,-1.7137014767,0.5997144035,-3.4397660772
 H,0,-0.7308740581,1.0158872846,-3.190341586
 C,0,-2.4298912375,0.551095638,-2.0854047681
 C,0,-2.4278483966,1.5917845283,-4.4025999603
 H,0,-2.5532110685,2.5403139943,-3.8706081389
 H,0,-1.7390561401,1.7772761387,-5.2335288779
 O,0,-2.8061459134,1.4589356567,-1.4087871645
 C,0,-3.7567850892,1.085800772,-4.9244774217
 C,0,-3.8254607641,0.3764176482,-6.1333872499
 H,0,-2.9271247616,0.2488977648,-6.7350110871
 C,0,-4.9425733587,1.2958108935,-4.2017260243
 H,0,-4.9181051424,1.8831287189,-3.2867296567
 C,0,-5.0416833136,-0.1292926645,-6.5996296795
 H,0,-5.0764261935,-0.6661584154,-7.543184961
 C,0,-6.1587879103,0.7943677638,-4.6686987334
 H,0,-7.0704364819,0.9836209957,-4.1086726731
 C,0,-6.2101798765,0.0741168115,-5.8649856575
 H,0,-7.1585652451,-0.3072050681,-6.231735524
 N,0,-2.6575333796,-0.8795428641,-1.5890300531
 C,0,-2.2162757356,-1.1066652873,-0.169256988
 H,0,-2.5903636349,-0.2450184077,0.3948046719
 C,0,-0.6821217999,-1.0938586284,-0.1598670869
 C,0,-2.9394017774,-2.4085859675,0.2568041062
 H,0,-2.2471041983,-3.2552041283,0.2506629241
 H,0,-3.3293311702,-2.3065500524,1.2728416742
 O,0,-0.0803870814,-0.7368470124,-1.1733258512
 C,0,-4.0804891751,-2.6108380569,-0.7816095504
 H,0,-3.8710652445,-3.477249326,-1.4154270534
 H,0,-5.0515674987,-2.778886109,-0.3104269428
 C,0,-4.0989610244,-1.3289725367,-1.6237396445
 H,0,-4.6895968312,-0.5308493821,-1.1668077238
 H,0,-4.4106485199,-1.4575011365,-2.6614746386
 N,0,-0.0987583355,-1.4501734631,1.0009573162
 H,0,-0.6773417437,-1.8254243488,1.7425746399
 C,0,1.3470931968,-1.614429145,1.1427068342
 H,0,1.8035216524,-1.04422664,0.3283514224
 C,0,1.7941701839,-3.0682006568,0.9498508907
 C,0,1.857463274,-1.0754181094,2.4942700267
 H,0,2.9136099618,-1.3537424746,2.5691490615
 H,0,1.3408182423,-1.6016451632,3.3107980558
 O,0,2.9494298387,-3.4118156432,0.9774473471
 C,0,1.6953853223,0.4404312296,2.6544469611
 H,0,2.2336292049,0.9417966749,1.8375083838
 H,0,0.6371703547,0.7181973402,2.5445046488
 C,0,2.2140091371,0.9529192184,4.0043717838
 H,0,3.2704655898,0.6704897264,4.1222324244
 H,0,1.668350558,0.4510516487,4.8169736002
 C,0,2.074686405,2.4788743066,4.1839668327
 H,0,1.0175899455,2.7602590723,4.0806428809
 H,0,2.3595387534,2.7377493282,5.2105282148
 N,0,2.8496406308,3.3335509627,3.2858629441
 H,0,2.6009845621,3.1683913577,2.3128352239
 H,0,3.8449366098,3.1348020365,3.3736868716
 O,0,0.7610872897,-3.9283614271,0.7629186252
 H,0,1.1623777277,-4.814823391,0.6713719973
 H,0,-2.0940489324,-1.4206380957,-2.2936773141
 Recover connectivity data from disk.
                           ----------------------------
                           !    Current Parameters    !
                           ! (Angstroms and Degrees)  !
 --------------------------                            --------------------------
 ! Name  Definition              Value                                          !
 --------------------------------------------------------------------------------
 ! R1    R(1,2)                  1.0185                                         !
 ! R2    R(1,3)                  1.0153                                         !
 ! R3    R(1,4)                  1.4654                                         !
 ! R4    R(4,5)                  1.0961                                         !
 ! R5    R(4,6)                  1.5328                                         !
 ! R6    R(4,7)                  1.556                                          !
 ! R7    R(6,10)                 1.1931                                         !
 ! R8    R(6,22)                 1.5313                                         !
 ! R9    R(7,8)                  1.0947                                         !
 ! R10   R(7,9)                  1.0951                                         !
 ! R11   R(7,11)                 1.5147                                         !
 ! R12   R(11,12)                1.4034                                         !
 ! R13   R(11,14)                1.4045                                         !
 ! R14   R(12,13)                1.0887                                         !
 ! R15   R(12,16)                1.3973                                         !
 ! R16   R(14,15)                1.0875                                         !
 ! R17   R(14,18)                1.396                                          !
 ! R18   R(16,17)                1.0862                                         !
 ! R19   R(16,20)                1.3952                                         !
 ! R20   R(18,19)                1.0865                                         !
 ! R21   R(18,20)                1.3973                                         !
 ! R22   R(20,21)                1.086                                          !
 ! R23   R(22,23)                1.504                                          !
 ! R24   R(22,33)                1.5103                                         !
 ! R25   R(22,59)                1.0521                                         !
 ! R26   R(23,24)                1.0957                                         !
 ! R27   R(23,25)                1.5342                                         !
 ! R28   R(23,26)                1.549                                          !
 ! R29   R(25,29)                1.2315                                         !
 ! R30   R(25,36)                1.3471                                         !
 ! R31   R(26,27)                1.0937                                         !
 ! R32   R(26,28)                1.0931                                         !
 ! R33   R(26,30)                1.556                                          !
 ! R34   R(30,31)                1.0937                                         !
 ! R35   R(30,32)                1.0924                                         !
 ! R36   R(30,33)                1.5339                                         !
 ! R37   R(33,34)                1.093                                          !
 ! R38   R(33,35)                1.0911                                         !
 ! R39   R(36,37)                1.0127                                         !
 ! R40   R(36,38)                1.462                                          !
 ! R41   R(38,39)                1.0939                                         !
 ! R42   R(38,40)                1.5331                                         !
 ! R43   R(38,41)                1.542                                          !
 ! R44   R(40,44)                1.2056                                         !
 ! R45   R(40,57)                1.3572                                         !
 ! R46   R(41,42)                1.0948                                         !
 ! R47   R(41,43)                1.1003                                         !
 ! R48   R(41,45)                1.5329                                         !
 ! R49   R(45,46)                1.0993                                         !
 ! R50   R(45,47)                1.0996                                         !
 ! R51   R(45,48)                1.5342                                         !
 ! R52   R(48,49)                1.0999                                         !
 ! R53   R(48,50)                1.1                                            !
 ! R54   R(48,51)                1.5428                                         !
 ! R55   R(51,52)                1.0988                                         !
 ! R56   R(51,53)                1.0964                                         !
 ! R57   R(51,54)                1.4621                                         !
 ! R58   R(54,55)                1.0178                                         !
 ! R59   R(54,56)                1.0187                                         !
 ! R60   R(57,58)                0.9774                                         !
 ! A1    A(2,1,3)              109.1329                                         !
 ! A2    A(2,1,4)              111.3997                                         !
 ! A3    A(3,1,4)              111.8526                                         !
 ! A4    A(1,4,5)              109.427                                          !
 ! A5    A(1,4,6)              109.3862                                         !
 ! A6    A(1,4,7)              115.3212                                         !
 ! A7    A(5,4,6)              103.2933                                         !
 ! A8    A(5,4,7)              108.0752                                         !
 ! A9    A(6,4,7)              110.641                                          !
 ! A10   A(4,6,10)             128.629                                          !
 ! A11   A(4,6,22)             112.6746                                         !
 ! A12   A(10,6,22)            118.696                                          !
 ! A13   A(4,7,8)              107.7145                                         !
 ! A14   A(4,7,9)              106.7875                                         !
 ! A15   A(4,7,11)             113.7578                                         !
 ! A16   A(8,7,9)              107.0969                                         !
 ! A17   A(8,7,11)             110.8785                                         !
 ! A18   A(9,7,11)             110.3025                                         !
 ! A19   A(7,11,12)            120.5694                                         !
 ! A20   A(7,11,14)            120.8958                                         !
 ! A21   A(12,11,14)           118.5268                                         !
 ! A22   A(11,12,13)           119.6617                                         !
 ! A23   A(11,12,16)           120.8638                                         !
 ! A24   A(13,12,16)           119.4364                                         !
 ! A25   A(11,14,15)           119.6508                                         !
 ! A26   A(11,14,18)           120.6454                                         !
 ! A27   A(15,14,18)           119.672                                          !
 ! A28   A(12,16,17)           119.7763                                         !
 ! A29   A(12,16,20)           120.0363                                         !
 ! A30   A(17,16,20)           120.1795                                         !
 ! A31   A(14,18,19)           119.7373                                         !
 ! A32   A(14,18,20)           120.2379                                         !
 ! A33   A(19,18,20)           120.0128                                         !
 ! A34   A(16,20,18)           119.6801                                         !
 ! A35   A(16,20,21)           120.1589                                         !
 ! A36   A(18,20,21)           120.1482                                         !
 ! A37   A(6,22,23)            113.7948                                         !
 ! A38   A(6,22,33)            114.3588                                         !
 ! A39   A(6,22,59)            100.5898                                         !
 ! A40   A(23,22,33)           104.8786                                         !
 ! A41   A(23,22,59)           113.4194                                         !
 ! A42   A(33,22,59)           110.0441                                         !
 ! A43   A(22,23,24)           105.4885                                         !
 ! A44   A(22,23,25)           107.3308                                         !
 ! A45   A(22,23,26)           104.4543                                         !
 ! A46   A(24,23,25)           109.371                                          !
 ! A47   A(24,23,26)           111.0985                                         !
 ! A48   A(25,23,26)           118.1732                                         !
 ! A49   A(23,25,29)           119.076                                          !
 ! A50   A(23,25,36)           115.8541                                         !
 ! A51   A(29,25,36)           125.0441                                         !
 ! A52   A(23,26,27)           110.7065                                         !
 ! A53   A(23,26,28)           110.1053                                         !
 ! A54   A(23,26,30)           105.547                                          !
 ! A55   A(27,26,28)           107.6558                                         !
 ! A56   A(27,26,30)           111.0903                                         !
 ! A57   A(28,26,30)           111.7679                                         !
 ! A58   A(26,30,31)           110.4428                                         !
 ! A59   A(26,30,32)           112.5847                                         !
 ! A60   A(26,30,33)           105.4618                                         !
 ! A61   A(31,30,32)           107.3565                                         !
 ! A62   A(31,30,33)           110.2529                                         !
 ! A63   A(32,30,33)           110.7739                                         !
 ! A64   A(22,33,30)           102.9784                                         !
 ! A65   A(22,33,34)           106.7888                                         !
 ! A66   A(22,33,35)           109.2413                                         !
 ! A67   A(30,33,34)           112.7827                                         !
 ! A68   A(30,33,35)           115.2875                                         !
 ! A69   A(34,33,35)           109.2232                                         !
 ! A70   A(25,36,37)           118.7922                                         !
 ! A71   A(25,36,38)           122.786                                          !
 ! A72   A(37,36,38)           116.8958                                         !
 ! A73   A(36,38,39)           106.373                                          !
 ! A74   A(36,38,40)           112.5019                                         !
 ! A75   A(36,38,41)           111.9023                                         !
 ! A76   A(39,38,40)           106.1976                                         !
 ! A77   A(39,38,41)           109.4026                                         !
 ! A78   A(40,38,41)           110.1939                                         !
 ! A79   A(38,40,44)           123.1489                                         !
 ! A80   A(38,40,57)           113.3479                                         !
 ! A81   A(44,40,57)           123.4981                                         !
 ! A82   A(38,41,42)           106.8812                                         !
 ! A83   A(38,41,43)           109.1399                                         !
 ! A84   A(38,41,45)           113.7199                                         !
 ! A85   A(42,41,43)           106.2991                                         !
 ! A86   A(42,41,45)           110.2589                                         !
 ! A87   A(43,41,45)           110.2286                                         !
 ! A88   A(41,45,46)           108.7588                                         !
 ! A89   A(41,45,47)           109.9448                                         !
 ! A90   A(41,45,48)           112.7381                                         !
 ! A91   A(46,45,47)           106.3613                                         !
 ! A92   A(46,45,48)           109.634                                          !
 ! A93   A(47,45,48)           109.2027                                         !
 ! A94   A(45,48,49)           109.4627                                         !
 ! A95   A(45,48,50)           109.2631                                         !
 ! A96   A(45,48,51)           113.7211                                         !
 ! A97   A(49,48,50)           106.2696                                         !
 ! A98   A(49,48,51)           109.1622                                         !
 ! A99   A(50,48,51)           108.6921                                         !
 ! A100  A(48,51,52)           109.222                                          !
 ! A101  A(48,51,53)           108.6075                                         !
 ! A102  A(48,51,54)           117.3109                                         !
 ! A103  A(52,51,53)           106.1137                                         !
 ! A104  A(52,51,54)           107.6061                                         !
 ! A105  A(53,51,54)           107.4231                                         !
 ! A106  A(51,54,55)           111.2787                                         !
 ! A107  A(51,54,56)           110.539                                          !
 ! A108  A(55,54,56)           106.8249                                         !
 ! A109  A(40,57,58)           105.9736                                         !
 ! D1    D(2,1,4,5)           -135.1922                                         !
 ! D2    D(2,1,4,6)            112.3144                                         !
 ! D3    D(2,1,4,7)            -13.1301                                         !
 ! D4    D(3,1,4,5)            -12.7502                                         !
 ! D5    D(3,1,4,6)           -125.2437                                         !
 ! D6    D(3,1,4,7)            109.3119                                         !
 ! D7    D(1,4,6,10)          -175.0555                                         !
 ! D8    D(1,4,6,22)             5.1906                                         !
 ! D9    D(5,4,6,10)            68.4928                                         !
 ! D10   D(5,4,6,22)          -111.2612                                         !
 ! D11   D(7,4,6,10)           -46.9543                                         !
 ! D12   D(7,4,6,22)           133.2918                                         !
 ! D13   D(1,4,7,8)            175.6573                                         !
 ! D14   D(1,4,7,9)            -69.5887                                         !
 ! D15   D(1,4,7,11)            52.3337                                         !
 ! D16   D(5,4,7,8)            -61.5581                                         !
 ! D17   D(5,4,7,9)             53.1959                                         !
 ! D18   D(5,4,7,11)           175.1183                                         !
 ! D19   D(6,4,7,8)             50.8627                                         !
 ! D20   D(6,4,7,9)            165.6167                                         !
 ! D21   D(6,4,7,11)           -72.4609                                         !
 ! D22   D(4,6,22,23)          130.3166                                         !
 ! D23   D(4,6,22,33)         -109.1736                                         !
 ! D24   D(4,6,22,59)            8.6921                                         !
 ! D25   D(10,6,22,23)         -49.4643                                         !
 ! D26   D(10,6,22,33)          71.0455                                         !
 ! D27   D(10,6,22,59)        -171.0888                                         !
 ! D28   D(4,7,11,12)          -92.0596                                         !
 ! D29   D(4,7,11,14)           86.9005                                         !
 ! D30   D(8,7,11,12)          146.3592                                         !
 ! D31   D(8,7,11,14)          -34.6807                                         !
 ! D32   D(9,7,11,12)           27.8951                                         !
 ! D33   D(9,7,11,14)         -153.1448                                         !
 ! D34   D(7,11,12,13)          -4.2738                                         !
 ! D35   D(7,11,12,16)         177.9819                                         !
 ! D36   D(14,11,12,13)        176.7418                                         !
 ! D37   D(14,11,12,16)         -1.0025                                         !
 ! D38   D(7,11,14,15)           3.8864                                         !
 ! D39   D(7,11,14,18)        -178.1714                                         !
 ! D40   D(12,11,14,15)       -177.1326                                         !
 ! D41   D(12,11,14,18)          0.8096                                         !
 ! D42   D(11,12,16,17)        179.3181                                         !
 ! D43   D(11,12,16,20)          0.3423                                         !
 ! D44   D(13,12,16,17)          1.5688                                         !
 ! D45   D(13,12,16,20)       -177.4071                                         !
 ! D46   D(11,14,18,19)       -178.6997                                         !
 ! D47   D(11,14,18,20)          0.0418                                         !
 ! D48   D(15,14,18,19)         -0.7579                                         !
 ! D49   D(15,14,18,20)        177.9835                                         !
 ! D50   D(12,16,20,18)          0.5272                                         !
 ! D51   D(12,16,20,21)        179.2263                                         !
 ! D52   D(17,16,20,18)       -178.4445                                         !
 ! D53   D(17,16,20,21)          0.2546                                         !
 ! D54   D(14,18,20,16)         -0.718                                          !
 ! D55   D(14,18,20,21)       -179.4173                                         !
 ! D56   D(19,18,20,16)        178.02                                           !
 ! D57   D(19,18,20,21)         -0.6793                                         !
 ! D58   D(6,22,23,24)          44.88                                           !
 ! D59   D(6,22,23,25)         -71.6729                                         !
 ! D60   D(6,22,23,26)         162.0851                                         !
 ! D61   D(33,22,23,24)        -80.8208                                         !
 ! D62   D(33,22,23,25)        162.6262                                         !
 ! D63   D(33,22,23,26)         36.3842                                         !
 ! D64   D(59,22,23,24)        159.0768                                         !
 ! D65   D(59,22,23,25)         42.5239                                         !
 ! D66   D(59,22,23,26)        -83.7182                                         !
 ! D67   D(6,22,33,30)        -166.8178                                         !
 ! D68   D(6,22,33,34)         -47.8306                                         !
 ! D69   D(6,22,33,35)          70.1754                                         !
 ! D70   D(23,22,33,30)        -41.47                                           !
 ! D71   D(23,22,33,34)         77.5173                                         !
 ! D72   D(23,22,33,35)       -164.4768                                         !
 ! D73   D(59,22,33,30)         80.8532                                         !
 ! D74   D(59,22,33,34)       -160.1596                                         !
 ! D75   D(59,22,33,35)        -42.1536                                         !
 ! D76   D(22,23,25,29)          9.8373                                         !
 ! D77   D(22,23,25,36)       -171.9177                                         !
 ! D78   D(24,23,25,29)       -104.1319                                         !
 ! D79   D(24,23,25,36)         74.1131                                         !
 ! D80   D(26,23,25,29)        127.4671                                         !
 ! D81   D(26,23,25,36)        -54.288                                          !
 ! D82   D(22,23,26,27)        103.3444                                         !
 ! D83   D(22,23,26,28)       -137.7315                                         !
 ! D84   D(22,23,26,30)        -16.9511                                         !
 ! D85   D(24,23,26,27)       -143.3868                                         !
 ! D86   D(24,23,26,28)        -24.4627                                         !
 ! D87   D(24,23,26,30)         96.3177                                         !
 ! D88   D(25,23,26,27)        -15.801                                          !
 ! D89   D(25,23,26,28)        103.1231                                         !
 ! D90   D(25,23,26,30)       -136.0965                                         !
 ! D91   D(23,25,36,37)          8.5264                                         !
 ! D92   D(23,25,36,38)        173.9889                                         !
 ! D93   D(29,25,36,37)       -173.3471                                         !
 ! D94   D(29,25,36,38)         -7.8847                                         !
 ! D95   D(23,26,30,31)        110.9926                                         !
 ! D96   D(23,26,30,32)       -129.0172                                         !
 ! D97   D(23,26,30,33)         -8.1121                                         !
 ! D98   D(27,26,30,31)         -9.0508                                         !
 ! D99   D(27,26,30,32)        110.9394                                         !
 ! D100  D(27,26,30,33)       -128.1555                                         !
 ! D101  D(28,26,30,31)       -129.3185                                         !
 ! D102  D(28,26,30,32)         -9.3283                                         !
 ! D103  D(28,26,30,33)        111.5768                                         !
 ! D104  D(26,30,33,22)         29.9479                                         !
 ! D105  D(26,30,33,34)        -84.7793                                         !
 ! D106  D(26,30,33,35)        148.8234                                         !
 ! D107  D(31,30,33,22)        -89.283                                          !
 ! D108  D(31,30,33,34)        155.9898                                         !
 ! D109  D(31,30,33,35)         29.5925                                         !
 ! D110  D(32,30,33,22)        152.0281                                         !
 ! D111  D(32,30,33,34)         37.3009                                         !
 ! D112  D(32,30,33,35)        -89.0964                                         !
 ! D113  D(25,36,38,39)         21.3374                                         !
 ! D114  D(25,36,38,40)        -94.5376                                         !
 ! D115  D(25,36,38,41)        140.7636                                         !
 ! D116  D(37,36,38,39)       -172.9428                                         !
 ! D117  D(37,36,38,40)         71.1822                                         !
 ! D118  D(37,36,38,41)        -53.5165                                         !
 ! D119  D(36,38,40,44)        177.2279                                         !
 ! D120  D(36,38,40,57)         -3.5722                                         !
 ! D121  D(39,38,40,44)         61.2476                                         !
 ! D122  D(39,38,40,57)       -119.5526                                         !
 ! D123  D(41,38,40,44)        -57.1401                                         !
 ! D124  D(41,38,40,57)        122.0597                                         !
 ! D125  D(36,38,41,42)        172.8373                                         !
 ! D126  D(36,38,41,43)         58.2694                                         !
 ! D127  D(36,38,41,45)        -65.253                                          !
 ! D128  D(39,38,41,42)        -69.5357                                         !
 ! D129  D(39,38,41,43)        175.8964                                         !
 ! D130  D(39,38,41,45)         52.374                                          !
 ! D131  D(40,38,41,42)         46.866                                          !
 ! D132  D(40,38,41,43)        -67.7019                                         !
 ! D133  D(40,38,41,45)        168.7757                                         !
 ! D134  D(38,40,57,58)       -178.8662                                         !
 ! D135  D(44,40,57,58)          0.3304                                         !
 ! D136  D(38,41,45,46)        -58.0102                                         !
 ! D137  D(38,41,45,47)         58.0759                                         !
 ! D138  D(38,41,45,48)       -179.8198                                         !
 ! D139  D(42,41,45,46)         62.0078                                         !
 ! D140  D(42,41,45,47)        178.0939                                         !
 ! D141  D(42,41,45,48)        -59.8018                                         !
 ! D142  D(43,41,45,46)        179.0621                                         !
 ! D143  D(43,41,45,47)        -64.8519                                         !
 ! D144  D(43,41,45,48)         57.2524                                         !
 ! D145  D(41,45,48,49)         57.0419                                         !
 ! D146  D(41,45,48,50)        -58.9509                                         !
 ! D147  D(41,45,48,51)        179.4227                                         !
 ! D148  D(46,45,48,49)        -64.2717                                         !
 ! D149  D(46,45,48,50)        179.7355                                         !
 ! D150  D(46,45,48,51)         58.1091                                         !
 ! D151  D(47,45,48,49)        179.5634                                         !
 ! D152  D(47,45,48,50)         63.5706                                         !
 ! D153  D(47,45,48,51)        -58.0558                                         !
 ! D154  D(45,48,51,52)         58.2538                                         !
 ! D155  D(45,48,51,53)        173.5649                                         !
 ! D156  D(45,48,51,54)        -64.468                                          !
 ! D157  D(49,48,51,52)       -179.1998                                         !
 ! D158  D(49,48,51,53)        -63.8887                                         !
 ! D159  D(49,48,51,54)         58.0784                                         !
 ! D160  D(50,48,51,52)        -63.6895                                         !
 ! D161  D(50,48,51,53)         51.6216                                         !
 ! D162  D(50,48,51,54)        173.5887                                         !
 ! D163  D(48,51,54,55)         59.8193                                         !
 ! D164  D(48,51,54,56)        -58.7109                                         !
 ! D165  D(52,51,54,55)        -63.7267                                         !
 ! D166  D(52,51,54,56)        177.7431                                         !
 ! D167  D(53,51,54,55)       -177.6036                                         !
 ! D168  D(53,51,54,56)         63.8662                                         !
 --------------------------------------------------------------------------------
 Symmetry turned off by external request.
 Stoichiometry    C20H31N4O4(1+)
 Framework group  C1[X(C20H31N4O4)]
 Deg. of freedom   171
 Full point group                 C1      NOp   1
                          Input orientation:                          
 ---------------------------------------------------------------------
 Center     Atomic      Atomic             Coordinates (Angstroms)
 Number     Number       Type             X           Y           Z
 ---------------------------------------------------------------------
      1          7           0       -1.549979   -0.763226   -3.952638
      2          1           0       -2.118843   -0.918643   -4.783030
      3          1           0       -0.580262   -0.971335   -4.169845
      4          6           0       -1.713701    0.599714   -3.439766
      5          1           0       -0.730874    1.015887   -3.190342
      6          6           0       -2.429891    0.551096   -2.085405
      7          6           0       -2.427848    1.591785   -4.402600
      8          1           0       -2.553211    2.540314   -3.870608
      9          1           0       -1.739056    1.777276   -5.233529
     10          8           0       -2.806146    1.458936   -1.408787
     11          6           0       -3.756785    1.085801   -4.924477
     12          6           0       -3.825461    0.376418   -6.133387
     13          1           0       -2.927125    0.248898   -6.735011
     14          6           0       -4.942573    1.295811   -4.201726
     15          1           0       -4.918105    1.883129   -3.286730
     16          6           0       -5.041683   -0.129293   -6.599630
     17          1           0       -5.076426   -0.666158   -7.543185
     18          6           0       -6.158788    0.794368   -4.668699
     19          1           0       -7.070436    0.983621   -4.108673
     20          6           0       -6.210180    0.074117   -5.864986
     21          1           0       -7.158565   -0.307205   -6.231736
     22          7           0       -2.657533   -0.879543   -1.589030
     23          6           0       -2.216276   -1.106665   -0.169257
     24          1           0       -2.590364   -0.245018    0.394805
     25          6           0       -0.682122   -1.093859   -0.159867
     26          6           0       -2.939402   -2.408586    0.256804
     27          1           0       -2.247104   -3.255204    0.250663
     28          1           0       -3.329331   -2.306550    1.272842
     29          8           0       -0.080387   -0.736847   -1.173326
     30          6           0       -4.080489   -2.610838   -0.781610
     31          1           0       -3.871065   -3.477249   -1.415427
     32          1           0       -5.051567   -2.778886   -0.310427
     33          6           0       -4.098961   -1.328973   -1.623740
     34          1           0       -4.689597   -0.530849   -1.166808
     35          1           0       -4.410649   -1.457501   -2.661475
     36          7           0       -0.098758   -1.450173    1.000957
     37          1           0       -0.677342   -1.825424    1.742575
     38          6           0        1.347093   -1.614429    1.142707
     39          1           0        1.803522   -1.044227    0.328351
     40          6           0        1.794170   -3.068201    0.949851
     41          6           0        1.857463   -1.075418    2.494270
     42          1           0        2.913610   -1.353742    2.569149
     43          1           0        1.340818   -1.601645    3.310798
     44          8           0        2.949430   -3.411816    0.977447
     45          6           0        1.695385    0.440431    2.654447
     46          1           0        2.233629    0.941797    1.837508
     47          1           0        0.637170    0.718197    2.544505
     48          6           0        2.214009    0.952919    4.004372
     49          1           0        3.270466    0.670490    4.122232
     50          1           0        1.668351    0.451052    4.816974
     51          6           0        2.074686    2.478874    4.183967
     52          1           0        1.017590    2.760259    4.080643
     53          1           0        2.359539    2.737749    5.210528
     54          7           0        2.849641    3.333551    3.285863
     55          1           0        2.600985    3.168391    2.312835
     56          1           0        3.844937    3.134802    3.373687
     57          8           0        0.761087   -3.928361    0.762919
     58          1           0        1.162378   -4.814823    0.671372
     59          1           0       -2.094049   -1.420638   -2.293677
 ---------------------------------------------------------------------
 Rotational constants (GHZ):           0.2824684           0.0747889           0.0676533
 Standard basis: 6-31G(d) (6D, 7F)
   482 basis functions,   908 primitive gaussians,   482 cartesian basis functions
   105 alpha electrons      105 beta electrons
       nuclear repulsion energy      2700.3080261516 Hartrees.
 NAtoms=   59 NActive=   59 NUniq=   59 SFac= 1.00D+00 NAtFMM=   60 NAOKFM=F Big=F
 Integral buffers will be    131072 words long.
 Raffenetti 2 integral format.
 Two-electron integral symmetry is turned off.
 One-electron integrals computed using PRISM.
 NBasis=   482 RedAO= T EigKep=  4.75D-04  NBF=   482
 NBsUse=   482 1.00D-06 EigRej= -1.00D+00 NBFU=   482
 Initial guess from the checkpoint file:  "conf-607.chk"
 B after Tr=     0.000000    0.000000    0.000000
         Rot=    1.000000    0.000000    0.000000    0.000000 Ang=   0.00 deg.
 Requested convergence on RMS density matrix=1.00D-08 within 128 cycles.
 Requested convergence on MAX density matrix=1.00D-06.
 Requested convergence on             energy=1.00D-06.
 No special actions if energy rises.
 SCF Done:  E(RB3LYP) =  -1300.50724822     A.U. after    2 cycles
            NFock=  2  Conv=0.90D-08     -V/T= 2.0095

 **********************************************************************

            Population analysis using the SCF Density.

 **********************************************************************

 Alpha  occ. eigenvalues --  -19.31764 -19.30544 -19.26061 -19.24210 -14.57624
 Alpha  occ. eigenvalues --  -14.49997 -14.47032 -14.37551 -10.46695 -10.43440
 Alpha  occ. eigenvalues --  -10.42531 -10.39476 -10.38367 -10.37597 -10.35295
 Alpha  occ. eigenvalues --  -10.34340 -10.33936 -10.31738 -10.30801 -10.29598
 Alpha  occ. eigenvalues --  -10.29530 -10.29333 -10.29246 -10.29178 -10.29018
 Alpha  occ. eigenvalues --  -10.27440 -10.27277 -10.25677  -1.23379  -1.21103
 Alpha  occ. eigenvalues --   -1.18136  -1.13295  -1.12109  -1.06476  -1.04131
 Alpha  occ. eigenvalues --   -0.96062  -0.94695  -0.94387  -0.91930  -0.89808
 Alpha  occ. eigenvalues --   -0.89446  -0.85185  -0.84808  -0.84699  -0.80934
 Alpha  occ. eigenvalues --   -0.78290  -0.77335  -0.75393  -0.73760  -0.73381
 Alpha  occ. eigenvalues --   -0.72257  -0.71613  -0.70957  -0.68967  -0.68083
 Alpha  occ. eigenvalues --   -0.66020  -0.65600  -0.64424  -0.63308  -0.62710
 Alpha  occ. eigenvalues --   -0.61712  -0.61244  -0.59598  -0.59164  -0.58823
 Alpha  occ. eigenvalues --   -0.58635  -0.57704  -0.56808  -0.56565  -0.55838
 Alpha  occ. eigenvalues --   -0.55652  -0.55368  -0.55290  -0.54855  -0.53898
 Alpha  occ. eigenvalues --   -0.53331  -0.52480  -0.52256  -0.51648  -0.50960
 Alpha  occ. eigenvalues --   -0.50806  -0.50707  -0.50158  -0.49829  -0.49582
 Alpha  occ. eigenvalues --   -0.49183  -0.48187  -0.47974  -0.46326  -0.46272
 Alpha  occ. eigenvalues --   -0.44846  -0.44304  -0.44262  -0.44005  -0.43137
 Alpha  occ. eigenvalues --   -0.42135  -0.41754  -0.40755  -0.40429  -0.40100
 Alpha  occ. eigenvalues --   -0.39340  -0.36625  -0.35533  -0.35063  -0.29493
 Alpha virt. eigenvalues --   -0.18179  -0.11978  -0.11000  -0.10949  -0.09512
 Alpha virt. eigenvalues --   -0.07009  -0.05638  -0.04685  -0.03581  -0.02342
 Alpha virt. eigenvalues --   -0.01761  -0.00930  -0.00618  -0.00043   0.00226
 Alpha virt. eigenvalues --    0.00375   0.00943   0.01754   0.02008   0.02553
 Alpha virt. eigenvalues --    0.02813   0.03299   0.03875   0.04283   0.04561
 Alpha virt. eigenvalues --    0.05311   0.05560   0.05853   0.06380   0.06560
 Alpha virt. eigenvalues --    0.06768   0.07171   0.07473   0.07685   0.08976
 Alpha virt. eigenvalues --    0.09169   0.09635   0.10038   0.10185   0.10530
 Alpha virt. eigenvalues --    0.10688   0.11158   0.11695   0.11746   0.12634
 Alpha virt. eigenvalues --    0.13534   0.13895   0.14737   0.15471   0.15591
 Alpha virt. eigenvalues --    0.16277   0.16854   0.17701   0.19222   0.19874
 Alpha virt. eigenvalues --    0.20542   0.21403   0.22605   0.22939   0.23710
 Alpha virt. eigenvalues --    0.23912   0.24161   0.27395   0.29012   0.33202
 Alpha virt. eigenvalues --    0.35477   0.35794   0.36759   0.38150   0.39213
 Alpha virt. eigenvalues --    0.40189   0.41039   0.41685   0.42276   0.43112
 Alpha virt. eigenvalues --    0.43254   0.43977   0.44262   0.45293   0.45537
 Alpha virt. eigenvalues --    0.45616   0.46075   0.47140   0.47876   0.48123
 Alpha virt. eigenvalues --    0.48481   0.49046   0.49594   0.49891   0.50162
 Alpha virt. eigenvalues --    0.50301   0.51201   0.51726   0.52080   0.52429
 Alpha virt. eigenvalues --    0.53354   0.53532   0.54294   0.54809   0.55597
 Alpha virt. eigenvalues --    0.56110   0.56512   0.57290   0.57616   0.58114
 Alpha virt. eigenvalues --    0.58948   0.59316   0.59513   0.60774   0.62110
 Alpha virt. eigenvalues --    0.63633   0.64177   0.64326   0.64819   0.65298
 Alpha virt. eigenvalues --    0.65864   0.66796   0.67453   0.67799   0.68712
 Alpha virt. eigenvalues --    0.69413   0.70094   0.70168   0.70834   0.71523
 Alpha virt. eigenvalues --    0.72292   0.72346   0.72775   0.73219   0.73683
 Alpha virt. eigenvalues --    0.74008   0.74688   0.74767   0.74949   0.75429
 Alpha virt. eigenvalues --    0.75837   0.76794   0.77643   0.77775   0.78303
 Alpha virt. eigenvalues --    0.78802   0.79483   0.79741   0.80478   0.80688
 Alpha virt. eigenvalues --    0.81169   0.81666   0.81988   0.82476   0.82965
 Alpha virt. eigenvalues --    0.83072   0.83985   0.84217   0.84741   0.85614
 Alpha virt. eigenvalues --    0.85978   0.86523   0.86715   0.87422   0.87912
 Alpha virt. eigenvalues --    0.88966   0.89141   0.89984   0.90796   0.91289
 Alpha virt. eigenvalues --    0.92674   0.93286   0.94221   0.94570   0.95497
 Alpha virt. eigenvalues --    0.97070   0.97970   0.98443   0.99569   1.00230
 Alpha virt. eigenvalues --    1.00876   1.01619   1.03437   1.03750   1.04647
 Alpha virt. eigenvalues --    1.06554   1.07470   1.08539   1.11274   1.12561
 Alpha virt. eigenvalues --    1.13630   1.15177   1.15843   1.16843   1.18724
 Alpha virt. eigenvalues --    1.20451   1.22215   1.24492   1.26223   1.27505
 Alpha virt. eigenvalues --    1.28556   1.30566   1.32112   1.32360   1.32504
 Alpha virt. eigenvalues --    1.33353   1.35657   1.36103   1.37363   1.38058
 Alpha virt. eigenvalues --    1.39032   1.39874   1.39983   1.40380   1.41418
 Alpha virt. eigenvalues --    1.42392   1.45001   1.45413   1.46246   1.48129
 Alpha virt. eigenvalues --    1.49308   1.50376   1.51641   1.53000   1.53500
 Alpha virt. eigenvalues --    1.55476   1.56453   1.58216   1.59333   1.60904
 Alpha virt. eigenvalues --    1.61293   1.61805   1.62486   1.64106   1.65460
 Alpha virt. eigenvalues --    1.66186   1.66933   1.67680   1.68830   1.68869
 Alpha virt. eigenvalues --    1.69775   1.70747   1.71746   1.72547   1.73680
 Alpha virt. eigenvalues --    1.74494   1.75360   1.75618   1.76347   1.77898
 Alpha virt. eigenvalues --    1.78742   1.79174   1.80136   1.80507   1.80949
 Alpha virt. eigenvalues --    1.82056   1.82231   1.82906   1.83954   1.85059
 Alpha virt. eigenvalues --    1.85363   1.86829   1.87054   1.87342   1.88568
 Alpha virt. eigenvalues --    1.89611   1.90332   1.91054   1.91381   1.92210
 Alpha virt. eigenvalues --    1.94421   1.94601   1.95409   1.95658   1.96669
 Alpha virt. eigenvalues --    1.96989   1.97773   1.98363   1.98772   1.99278
 Alpha virt. eigenvalues --    2.00215   2.03602   2.03799   2.03917   2.04406
 Alpha virt. eigenvalues --    2.05434   2.06512   2.07378   2.08646   2.10014
 Alpha virt. eigenvalues --    2.13760   2.14319   2.15248   2.16384   2.17550
 Alpha virt. eigenvalues --    2.18981   2.19607   2.20190   2.21484   2.22613
 Alpha virt. eigenvalues --    2.23065   2.23689   2.24408   2.26606   2.27112
 Alpha virt. eigenvalues --    2.28064   2.30597   2.30927   2.32143   2.32669
 Alpha virt. eigenvalues --    2.34426   2.35069   2.35570   2.39236   2.41428
 Alpha virt. eigenvalues --    2.41873   2.43852   2.44704   2.46827   2.47368
 Alpha virt. eigenvalues --    2.47957   2.48546   2.49460   2.51398   2.52443
 Alpha virt. eigenvalues --    2.53736   2.54016   2.55254   2.55636   2.56997
 Alpha virt. eigenvalues --    2.57764   2.61126   2.61863   2.62177   2.63212
 Alpha virt. eigenvalues --    2.63965   2.64702   2.66488   2.67037   2.68262
 Alpha virt. eigenvalues --    2.69026   2.72273   2.75090   2.78067   2.78641
 Alpha virt. eigenvalues --    2.83524   2.86415   2.88664   2.89735   2.91819
 Alpha virt. eigenvalues --    2.94814   3.01053   3.04419   3.29997   3.70901
 Alpha virt. eigenvalues --    3.71476   3.75287   3.90557   3.95624   3.98913
 Alpha virt. eigenvalues --    3.99685   4.01539   4.02895   4.05347   4.06588
 Alpha virt. eigenvalues --    4.11197   4.12753   4.14190   4.14707   4.20596
 Alpha virt. eigenvalues --    4.24748   4.25198   4.29160   4.32549   4.33931
 Alpha virt. eigenvalues --    4.36727   4.44315   4.46157   4.49788   4.56094
 Alpha virt. eigenvalues --    4.58375   4.63644
          Condensed to atoms (all electrons):
 Mulliken charges:
               1
     1  N   -0.791341
     2  H    0.346207
     3  H    0.358161
     4  C   -0.051384
     5  H    0.229939
     6  C    0.620211
     7  C   -0.380057
     8  H    0.198579
     9  H    0.183833
    10  O   -0.390129
    11  C    0.147543
    12  C   -0.207895
    13  H    0.144103
    14  C   -0.207098
    15  H    0.150355
    16  C   -0.124943
    17  H    0.160677
    18  C   -0.132269
    19  H    0.155836
    20  C   -0.128028
    21  H    0.160850
    22  N   -0.582337
    23  C   -0.079447
    24  H    0.233596
    25  C    0.639099
    26  C   -0.325842
    27  H    0.202320
    28  H    0.192061
    29  O   -0.528958
    30  C   -0.303576
    31  H    0.191879
    32  H    0.203718
    33  C   -0.172901
    34  H    0.214377
    35  H    0.221036
    36  N   -0.591421
    37  H    0.350190
    38  C   -0.073192
    39  H    0.221215
    40  C    0.599786
    41  C   -0.286677
    42  H    0.195470
    43  H    0.143908
    44  O   -0.431138
    45  C   -0.258650
    46  H    0.133346
    47  H    0.127465
    48  C   -0.264328
    49  H    0.139702
    50  H    0.133350
    51  C   -0.145671
    52  H    0.138410
    53  H    0.158352
    54  N   -0.700905
    55  H    0.293458
    56  H    0.300589
    57  O   -0.583572
    58  H    0.428143
    59  H    0.423997
 Sum of Mulliken charges =   1.00000
 Mulliken charges with hydrogens summed into heavy atoms:
               1
     1  N   -0.086973
     4  C    0.178555
     6  C    0.620211
     7  C    0.002355
    10  O   -0.390129
    11  C    0.147543
    12  C   -0.063792
    14  C   -0.056743
    16  C    0.035734
    18  C    0.023567
    20  C    0.032822
    22  N   -0.158340
    23  C    0.154149
    25  C    0.639099
    26  C    0.068539
    29  O   -0.528958
    30  C    0.092021
    33  C    0.262512
    36  N   -0.241231
    38  C    0.148022
    40  C    0.599786
    41  C    0.052701
    44  O   -0.431138
    45  C    0.002160
    48  C    0.008724
    51  C    0.151092
    54  N   -0.106858
    57  O   -0.155430
 Electronic spatial extent (au):  <R**2>=          18227.9007
 Charge=              1.0000 electrons
 Dipole moment (field-independent basis, Debye):
    X=            -12.3993    Y=             -7.2510    Z=             -7.7592  Tot=             16.3256
 Quadrupole moment (field-independent basis, Debye-Ang):
   XX=           -109.2435   YY=           -153.0767   ZZ=           -103.4928
   XY=             18.9116   XZ=             33.8270   YZ=             -3.4116
 Traceless Quadrupole moment (field-independent basis, Debye-Ang):
   XX=             12.6942   YY=            -31.1391   ZZ=             18.4449
   XY=             18.9116   XZ=             33.8270   YZ=             -3.4116
 Octapole moment (field-independent basis, Debye-Ang**2):
  XXX=            394.2129  YYY=             22.7140  ZZZ=            247.1273  XYY=            178.8183
  XXY=             23.7638  XXZ=             24.1794  XZZ=             75.7643  YZZ=              5.0539
  YYZ=            137.0709  XYZ=            -26.6888
 Hexadecapole moment (field-independent basis, Debye-Ang**3):
 XXXX=          -8045.8101 YYYY=          -3123.2433 ZZZZ=          -9157.8079 XXXY=            333.2361
 XXXZ=          -3294.6971 YYYX=           -146.4390 YYYZ=           -143.9713 ZZZX=          -3338.8600
 ZZZY=            263.9569 XXYY=          -2239.8472 XXZZ=          -2569.1780 YYZZ=          -2509.3755
 XXYZ=            195.1226 YYXZ=          -1565.1259 ZZXY=            137.0997
 N-N= 2.700308026152D+03 E-N=-8.401520962037D+03  KE= 1.288257426323D+03
 Unable to Open any file for archive entry.
 1\1\GINC-VIM-000\SP\RB3LYP\6-31G(d)\C20H31N4O4(1+)\KENGMITH\25-May-202
 2\0\\# B3LYP/6-31G* guess=read geom=check nosymm integral(ultrafinegri
 d)\\Candidate Structure: Conf:607 Charge calc in gas phase\\1,1\N,0,-1
 .5499788628,-0.7632260201,-3.9526379589\H,0,-2.1188428129,-0.918643279
 5,-4.7830301855\H,0,-0.5802623346,-0.9713351238,-4.1698445013\C,0,-1.7
 137014767,0.5997144035,-3.4397660772\H,0,-0.7308740581,1.0158872846,-3
 .190341586\C,0,-2.4298912375,0.551095638,-2.0854047681\C,0,-2.42784839
 66,1.5917845283,-4.4025999603\H,0,-2.5532110685,2.5403139943,-3.870608
 1389\H,0,-1.7390561401,1.7772761387,-5.2335288779\O,0,-2.8061459134,1.
 4589356567,-1.4087871645\C,0,-3.7567850892,1.085800772,-4.9244774217\C
 ,0,-3.8254607641,0.3764176482,-6.1333872499\H,0,-2.9271247616,0.248897
 7648,-6.7350110871\C,0,-4.9425733587,1.2958108935,-4.2017260243\H,0,-4
 .9181051424,1.8831287189,-3.2867296567\C,0,-5.0416833136,-0.1292926645
 ,-6.5996296795\H,0,-5.0764261935,-0.6661584154,-7.543184961\C,0,-6.158
 7879103,0.7943677638,-4.6686987334\H,0,-7.0704364819,0.9836209957,-4.1
 086726731\C,0,-6.2101798765,0.0741168115,-5.8649856575\H,0,-7.15856524
 51,-0.3072050681,-6.231735524\N,0,-2.6575333796,-0.8795428641,-1.58903
 00531\C,0,-2.2162757356,-1.1066652873,-0.169256988\H,0,-2.5903636349,-
 0.2450184077,0.3948046719\C,0,-0.6821217999,-1.0938586284,-0.159867086
 9\C,0,-2.9394017774,-2.4085859675,0.2568041062\H,0,-2.2471041983,-3.25
 52041283,0.2506629241\H,0,-3.3293311702,-2.3065500524,1.2728416742\O,0
 ,-0.0803870814,-0.7368470124,-1.1733258512\C,0,-4.0804891751,-2.610838
 0569,-0.7816095504\H,0,-3.8710652445,-3.477249326,-1.4154270534\H,0,-5
 .0515674987,-2.778886109,-0.3104269428\C,0,-4.0989610244,-1.3289725367
 ,-1.6237396445\H,0,-4.6895968312,-0.5308493821,-1.1668077238\H,0,-4.41
 06485199,-1.4575011365,-2.6614746386\N,0,-0.0987583355,-1.4501734631,1
 .0009573162\H,0,-0.6773417437,-1.8254243488,1.7425746399\C,0,1.3470931
 968,-1.614429145,1.1427068342\H,0,1.8035216524,-1.04422664,0.328351422
 4\C,0,1.7941701839,-3.0682006568,0.9498508907\C,0,1.857463274,-1.07541
 81094,2.4942700267\H,0,2.9136099618,-1.3537424746,2.5691490615\H,0,1.3
 408182423,-1.6016451632,3.3107980558\O,0,2.9494298387,-3.4118156432,0.
 9774473471\C,0,1.6953853223,0.4404312296,2.6544469611\H,0,2.2336292049
 ,0.9417966749,1.8375083838\H,0,0.6371703547,0.7181973402,2.5445046488\
 C,0,2.2140091371,0.9529192184,4.0043717838\H,0,3.2704655898,0.67048972
 64,4.1222324244\H,0,1.668350558,0.4510516487,4.8169736002\C,0,2.074686
 405,2.4788743066,4.1839668327\H,0,1.0175899455,2.7602590723,4.08064288
 09\H,0,2.3595387534,2.7377493282,5.2105282148\N,0,2.8496406308,3.33355
 09627,3.2858629441\H,0,2.6009845621,3.1683913577,2.3128352239\H,0,3.84
 49366098,3.1348020365,3.3736868716\O,0,0.7610872897,-3.9283614271,0.76
 29186252\H,0,1.1623777277,-4.814823391,0.6713719973\H,0,-2.0940489324,
 -1.4206380957,-2.2936773141\\Version=ES64L-G16RevC.01\HF=-1300.5072482
 \RMSD=8.991e-09\Dipole=-2.3720383,-2.1150435,-1.1729129\Quadrupole=9.4
 377924,-23.1511228,13.7133304,14.0602843,25.1495124,-2.5364552\PG=C01 
 [X(C20H31N4O4)]\\@
 The archive entry for this job was punched.


 YOU WILL NEVER "FIND" TIME FOR ANYTHING.
 IF YOU WANT TIME, YOU MUST MAKE IT.

                        -- CHARLES BIXTON
 Job cpu time:       0 days  0 hours  2 minutes  2.5 seconds.
 Elapsed time:       0 days  0 hours  0 minutes 31.1 seconds.
 File lengths (MBytes):  RWF=    240 Int=      0 D2E=      0 Chk=     32 Scr=     16
 Normal termination of Gaussian 16 at Wed May 25 20:22:10 2022.
