 Entering Gaussian System, Link 0=/opt/software/Gaussian/g16-AVX2-C.01/g16/g16
 Input=charge-conf-112.com
 Output=charge-conf-112.log
 Initial command:
 /opt/software/Gaussian/g16-AVX2-C.01/g16/l1.exe "/mnt/gs18/scratch/users/kengmith/Gau-47535.inp" -scrdir="/mnt/gs18/scratch/users/kengmith/"
 Entering Link 1 = /opt/software/Gaussian/g16-AVX2-C.01/g16/l1.exe PID=     47546.
  
 Copyright (c) 1988-2019, Gaussian, Inc.  All Rights Reserved.
  
 This is part of the Gaussian(R) 16 program.  It is based on
 the Gaussian(R) 09 system (copyright 2009, Gaussian, Inc.),
 the Gaussian(R) 03 system (copyright 2003, Gaussian, Inc.),
 the Gaussian(R) 98 system (copyright 1998, Gaussian, Inc.),
 the Gaussian(R) 94 system (copyright 1995, Gaussian, Inc.),
 the Gaussian 92(TM) system (copyright 1992, Gaussian, Inc.),
 the Gaussian 90(TM) system (copyright 1990, Gaussian, Inc.),
 the Gaussian 88(TM) system (copyright 1988, Gaussian, Inc.),
 the Gaussian 86(TM) system (copyright 1986, Carnegie Mellon
 University), and the Gaussian 82(TM) system (copyright 1983,
 Carnegie Mellon University). Gaussian is a federally registered
 trademark of Gaussian, Inc.
  
 This software contains proprietary and confidential information,
 including trade secrets, belonging to Gaussian, Inc.
  
 This software is provided under written license and may be
 used, copied, transmitted, or stored only in accord with that
 written license.
  
 The following legend is applicable only to US Government
 contracts under FAR:
  
                    RESTRICTED RIGHTS LEGEND
  
 Use, reproduction and disclosure by the US Government is
 subject to restrictions as set forth in subparagraphs (a)
 and (c) of the Commercial Computer Software - Restricted
 Rights clause in FAR 52.227-19.
  
 Gaussian, Inc.
 340 Quinnipiac St., Bldg. 40, Wallingford CT 06492
  
  
 ---------------------------------------------------------------
 Warning -- This program may not be used in any manner that
 competes with the business of Gaussian, Inc. or will provide
 assistance to any competitor of Gaussian, Inc.  The licensee
 of this program is prohibited from giving any competitor of
 Gaussian, Inc. access to this program.  By using this program,
 the user acknowledges that Gaussian, Inc. is engaged in the
 business of creating and licensing software in the field of
 computational chemistry and represents and warrants to the
 licensee that it is not a competitor of Gaussian, Inc. and that
 it will not use this program in any manner prohibited above.
 ---------------------------------------------------------------
  

 Cite this work as:
 Gaussian 16, Revision C.01,
 M. J. Frisch, G. W. Trucks, H. B. Schlegel, G. E. Scuseria, 
 M. A. Robb, J. R. Cheeseman, G. Scalmani, V. Barone, 
 G. A. Petersson, H. Nakatsuji, X. Li, M. Caricato, A. V. Marenich, 
 J. Bloino, B. G. Janesko, R. Gomperts, B. Mennucci, H. P. Hratchian, 
 J. V. Ortiz, A. F. Izmaylov, J. L. Sonnenberg, D. Williams-Young, 
 F. Ding, F. Lipparini, F. Egidi, J. Goings, B. Peng, A. Petrone, 
 T. Henderson, D. Ranasinghe, V. G. Zakrzewski, J. Gao, N. Rega, 
 G. Zheng, W. Liang, M. Hada, M. Ehara, K. Toyota, R. Fukuda, 
 J. Hasegawa, M. Ishida, T. Nakajima, Y. Honda, O. Kitao, H. Nakai, 
 T. Vreven, K. Throssell, J. A. Montgomery, Jr., J. E. Peralta, 
 F. Ogliaro, M. J. Bearpark, J. J. Heyd, E. N. Brothers, K. N. Kudin, 
 V. N. Staroverov, T. A. Keith, R. Kobayashi, J. Normand, 
 K. Raghavachari, A. P. Rendell, J. C. Burant, S. S. Iyengar, 
 J. Tomasi, M. Cossi, J. M. Millam, M. Klene, C. Adamo, R. Cammi, 
 J. W. Ochterski, R. L. Martin, K. Morokuma, O. Farkas, 
 J. B. Foresman, and D. J. Fox, Gaussian, Inc., Wallingford CT, 2019.
 
 ******************************************
 Gaussian 16:  ES64L-G16RevC.01  3-Jul-2019
                26-Jun-2022 
 ******************************************
 %mem=8gb
 %nproc=4
 Will use up to    4 processors via shared memory.
 %chk=conf-112.chk
 ----------------------------------------------------------------------
 # B3LYP/6-31G* empiricaldispersion=gd3 guess=read geom=check nosymm in
 tegral(ultrafinegrid)
 ----------------------------------------------------------------------
 1/29=2,38=1,172=1/1;
 2/12=2,15=1,40=1/2;
 3/5=1,6=6,7=1,11=2,14=-4,25=1,30=1,74=-5,75=-5,116=-2,124=31/1,2,3;
 4/5=1/1;
 5/5=2,38=6/2;
 6/7=2,8=2,9=2,10=2,28=1/1;
 99/5=1,9=1/99;
 ------------------------------------------------------
 Candidate Structure: Conf:112 Charge calc in gas phase
 ------------------------------------------------------
 Structure from the checkpoint file:  "conf-112.chk"
 Charge =  1 Multiplicity = 1
 Redundant internal coordinates found in file.  (old form).
 N,0,-8.6539627581,3.4002359147,3.6741916223
 H,0,-8.7596682357,3.4757951758,4.6900545635
 H,0,-8.0645532349,4.2148940143,3.3382288657
 H,0,-9.5843659862,3.4048921044,3.2484743676
 C,0,-7.8097125645,2.2100470331,3.2501182054
 H,0,-7.8401108599,1.4634273239,4.048344658
 C,0,-6.4063151298,2.8593487591,3.1097761608
 C,0,-8.357599917,1.6122240414,1.9288559012
 H,0,-8.3470420277,2.4195442878,1.1821199782
 O,0,-6.3619331219,4.0881288785,2.940033585
 C,0,-7.4590803895,0.4703376345,1.4230986303
 H,0,-7.3730781711,-0.3280263755,2.1708351657
 H,0,-6.4530057695,0.8025865339,1.1599810796
 H,0,-7.905259725,0.0307335311,0.5267379044
 C,0,-9.7988338942,1.1013887915,2.108251589
 H,0,-9.842577157,0.306973176,2.862458355
 H,0,-10.5211055527,1.87851885,2.3943972756
 H,0,-10.1620789285,0.6859857048,1.1641616819
 N,0,-5.3568790106,2.0516612901,3.1760848517
 H,0,-5.4497777693,1.0341903762,3.21566048
 C,0,-3.9908485582,2.4680607067,2.8598587713
 H,0,-4.0319743798,3.1781950763,2.0261000769
 C,0,-3.2922252409,1.1694753936,2.3974016121
 C,0,-3.2983931857,3.1245076749,4.0622206892
 H,0,-2.2825854424,3.4360717592,3.8007086688
 H,0,-3.858922192,4.0111908823,4.3705951642
 H,0,-3.2398347954,2.4251374924,4.9019255685
 O,0,-3.8722125081,0.0825483578,2.500100524
 N,0,-2.0555994112,1.3200944708,1.9073399406
 H,0,-1.6231417034,2.2326387714,1.8112487438
 C,0,-1.276685934,0.2176765222,1.3691545148
 H,0,-1.2868982156,-0.6154657619,2.0826620074
 C,0,0.1454607569,0.7448887448,1.1578382825
 C,0,-1.8475745343,-0.2678284234,0.0038859452
 H,0,-1.3525735179,-1.2101561354,-0.2769276069
 H,0,-2.9075688857,-0.4917958376,0.1570727258
 O,0,0.4055009897,1.950711537,1.3045040526
 O,0,-1.730499563,0.7153192683,-0.9911292478
 H,0,-0.858751508,0.6067358692,-1.4362079179
 N,0,1.0512964363,-0.1530050445,0.7361573468
 H,0,0.7195053409,-1.0848210989,0.5200329176
 C,0,2.2526507443,0.2788076822,0.0145412395
 H,0,2.7989022474,0.9624573416,0.6682702588
 C,0,1.7972030706,1.0073599018,-1.2759779505
 C,0,3.110002568,-0.9484311113,-0.3245339895
 H,0,2.5038988998,-1.6140002271,-0.9554688549
 H,0,3.3261664389,-1.4863984957,0.609130465
 O,0,0.8645358488,0.5343982546,-1.9495886528
 C,0,4.4340107361,-0.6407370288,-1.0514241487
 H,0,4.195083027,-0.1200692972,-1.9887190401
 C,0,5.3644123082,0.2607967459,-0.225173508
 H,0,5.5588952825,-0.1790977271,0.7618760388
 H,0,4.9597439541,1.2679775126,-0.0767907672
 H,0,6.3282937039,0.3805540537,-0.7308823777
 C,0,5.1354447791,-1.959434417,-1.4085275207
 H,0,5.4078355703,-2.5161651216,-0.5025543071
 H,0,4.4926358488,-2.6036683196,-2.019703467
 H,0,6.0553960361,-1.7707276796,-1.9719776161
 N,0,2.4901140687,2.1086392201,-1.5380028179
 H,0,3.1955024024,2.4491907039,-0.8758193677
 C,0,2.3958569452,3.0948474788,-2.6176563859
 H,0,3.0602062675,2.7715838353,-3.4323185312
 C,0,3.040386367,4.3877480221,-1.9934551949
 C,0,1.0096262973,3.318681507,-3.2393995197
 H,0,0.745356596,2.4297278446,-3.8201465174
 H,0,1.1489124789,4.1482846196,-3.9392190891
 O,0,2.6879381463,5.4890908483,-2.4914668886
 C,0,-0.1933101213,3.6309758531,-2.3306714169
 H,0,-1.0483961393,3.825993803,-2.9897798953
 H,0,-0.4737424507,2.7466055407,-1.7485022822
 C,0,-0.0766424316,4.8292057763,-1.3792742205
 H,0,-1.0765732607,5.144955488,-1.0536136412
 H,0,0.410065476,5.6678692836,-1.8730407024
 N,0,0.6890411201,4.4461408953,-0.1852205221
 H,0,0.5385805465,3.4959837534,0.1460387985
 N,0,2.0507427441,6.3323883073,0.0083800901
 H,0,2.7990875493,6.7343499986,0.5604244872
 H,0,2.2823725531,6.3285432414,-1.0146535114
 N,0,2.1093692121,4.6316098619,1.6272519394
 H,0,1.7841446397,3.699187188,1.8653038033
 H,0,3.1122044397,4.7389365005,1.733389474
 C,0,1.6298646114,5.1341942299,0.4515162744
 O,0,3.7914206334,4.199956881,-0.9986853745
 Recover connectivity data from disk.
                           ----------------------------
                           !    Current Parameters    !
                           ! (Angstroms and Degrees)  !
 --------------------------                            --------------------------
 ! Name  Definition              Value                                          !
 --------------------------------------------------------------------------------
 ! R1    R(1,2)                  1.0241                                         !
 ! R2    R(1,3)                  1.0602                                         !
 ! R3    R(1,4)                  1.0232                                         !
 ! R4    R(1,5)                  1.5196                                         !
 ! R5    R(5,6)                  1.0934                                         !
 ! R6    R(5,7)                  1.5527                                         !
 ! R7    R(5,8)                  1.5503                                         !
 ! R8    R(7,10)                 1.2412                                         !
 ! R9    R(7,19)                 1.3259                                         !
 ! R10   R(8,9)                  1.0998                                         !
 ! R11   R(8,11)                 1.5385                                         !
 ! R12   R(8,15)                 1.5396                                         !
 ! R13   R(11,12)                1.0972                                         !
 ! R14   R(11,13)                1.0917                                         !
 ! R15   R(11,14)                1.0935                                         !
 ! R16   R(15,16)                1.0963                                         !
 ! R17   R(15,17)                1.0989                                         !
 ! R18   R(15,18)                1.0935                                         !
 ! R19   R(19,20)                1.0225                                         !
 ! R20   R(19,21)                1.4627                                         !
 ! R21   R(21,22)                1.096                                          !
 ! R22   R(21,23)                1.5454                                         !
 ! R23   R(21,24)                1.535                                          !
 ! R24   R(23,28)                1.2363                                         !
 ! R25   R(23,29)                1.3387                                         !
 ! R26   R(24,25)                1.0942                                         !
 ! R27   R(24,26)                1.0934                                         !
 ! R28   R(24,27)                1.0944                                         !
 ! R29   R(29,30)                1.0144                                         !
 ! R30   R(29,31)                1.4532                                         !
 ! R31   R(31,32)                1.097                                          !
 ! R32   R(31,33)                1.5314                                         !
 ! R33   R(31,34)                1.5574                                         !
 ! R34   R(33,37)                1.2422                                         !
 ! R35   R(33,40)                1.3433                                         !
 ! R36   R(34,35)                1.1008                                         !
 ! R37   R(34,36)                1.0942                                         !
 ! R38   R(34,38)                1.4037                                         !
 ! R39   R(38,39)                0.9848                                         !
 ! R40   R(40,41)                1.0125                                         !
 ! R41   R(40,42)                1.4664                                         !
 ! R42   R(42,43)                1.0923                                         !
 ! R43   R(42,44)                1.5504                                         !
 ! R44   R(42,45)                1.535                                          !
 ! R45   R(44,48)                1.2439                                         !
 ! R46   R(44,59)                1.3273                                         !
 ! R47   R(45,46)                1.0993                                         !
 ! R48   R(45,47)                1.099                                          !
 ! R49   R(45,49)                1.5414                                         !
 ! R50   R(49,50)                1.0985                                         !
 ! R51   R(49,51)                1.5366                                         !
 ! R52   R(49,55)                1.5357                                         !
 ! R53   R(51,52)                1.098                                          !
 ! R54   R(51,53)                1.0955                                         !
 ! R55   R(51,54)                1.0951                                         !
 ! R56   R(55,56)                1.0977                                         !
 ! R57   R(55,57)                1.0963                                         !
 ! R58   R(55,58)                1.0952                                         !
 ! R59   R(59,60)                1.0257                                         !
 ! R60   R(59,61)                1.4653                                         !
 ! R61   R(61,62)                1.0998                                         !
 ! R62   R(61,63)                1.5737                                         !
 ! R63   R(61,64)                1.5357                                         !
 ! R64   R(63,67)                1.259                                          !
 ! R65   R(63,83)                1.2605                                         !
 ! R66   R(64,65)                1.0942                                         !
 ! R67   R(64,66)                1.0943                                         !
 ! R68   R(64,68)                1.5396                                         !
 ! R69   R(68,69)                1.0971                                         !
 ! R70   R(68,70)                1.0953                                         !
 ! R71   R(68,71)                1.5344                                         !
 ! R72   R(71,72)                1.098                                          !
 ! R73   R(71,73)                1.0881                                         !
 ! R74   R(71,74)                1.4693                                         !
 ! R75   R(74,75)                1.0174                                         !
 ! R76   R(74,82)                1.3282                                         !
 ! R77   R(76,77)                1.0131                                         !
 ! R78   R(76,78)                1.0489                                         !
 ! R79   R(76,82)                1.3451                                         !
 ! R80   R(79,80)                1.0158                                         !
 ! R81   R(79,81)                1.0141                                         !
 ! R82   R(79,82)                1.3656                                         !
 ! A1    A(2,1,3)              108.3624                                         !
 ! A2    A(2,1,4)              108.5733                                         !
 ! A3    A(2,1,5)              113.0756                                         !
 ! A4    A(3,1,4)              111.7279                                         !
 ! A5    A(3,1,5)              101.8026                                         !
 ! A6    A(4,1,5)              113.1195                                         !
 ! A7    A(1,5,6)              108.3996                                         !
 ! A8    A(1,5,7)              101.5284                                         !
 ! A9    A(1,5,8)              110.0923                                         !
 ! A10   A(6,5,7)              112.1273                                         !
 ! A11   A(6,5,8)              110.4294                                         !
 ! A12   A(7,5,8)              113.8074                                         !
 ! A13   A(5,7,10)             117.3008                                         !
 ! A14   A(5,7,19)             117.1373                                         !
 ! A15   A(10,7,19)            125.5613                                         !
 ! A16   A(5,8,9)              106.9909                                         !
 ! A17   A(5,8,11)             111.0992                                         !
 ! A18   A(5,8,15)             111.0685                                         !
 ! A19   A(9,8,11)             108.4226                                         !
 ! A20   A(9,8,15)             109.3705                                         !
 ! A21   A(11,8,15)            109.8009                                         !
 ! A22   A(8,11,12)            111.2105                                         !
 ! A23   A(8,11,13)            113.0515                                         !
 ! A24   A(8,11,14)            109.2408                                         !
 ! A25   A(12,11,13)           108.2679                                         !
 ! A26   A(12,11,14)           107.3425                                         !
 ! A27   A(13,11,14)           107.5059                                         !
 ! A28   A(8,15,16)            110.9747                                         !
 ! A29   A(8,15,17)            114.2674                                         !
 ! A30   A(8,15,18)            109.6578                                         !
 ! A31   A(16,15,17)           107.8848                                         !
 ! A32   A(16,15,18)           107.7836                                         !
 ! A33   A(17,15,18)           105.9699                                         !
 ! A34   A(7,19,20)            122.4252                                         !
 ! A35   A(7,19,21)            123.7074                                         !
 ! A36   A(20,19,21)           112.1179                                         !
 ! A37   A(19,21,22)           108.2937                                         !
 ! A38   A(19,21,23)           104.34                                           !
 ! A39   A(19,21,24)           111.9448                                         !
 ! A40   A(22,21,23)           109.4984                                         !
 ! A41   A(22,21,24)           109.6172                                         !
 ! A42   A(23,21,24)           112.944                                          !
 ! A43   A(21,23,28)           120.122                                          !
 ! A44   A(21,23,29)           115.6329                                         !
 ! A45   A(28,23,29)           124.2434                                         !
 ! A46   A(21,24,25)           110.6928                                         !
 ! A47   A(21,24,26)           109.6619                                         !
 ! A48   A(21,24,27)           110.6018                                         !
 ! A49   A(25,24,26)           108.2047                                         !
 ! A50   A(25,24,27)           108.4011                                         !
 ! A51   A(26,24,27)           109.2247                                         !
 ! A52   A(23,29,30)           121.986                                          !
 ! A53   A(23,29,31)           123.0499                                         !
 ! A54   A(30,29,31)           114.7632                                         !
 ! A55   A(29,31,32)           109.287                                          !
 ! A56   A(29,31,33)           106.7208                                         !
 ! A57   A(29,31,34)           111.3874                                         !
 ! A58   A(32,31,33)           111.0926                                         !
 ! A59   A(32,31,34)           109.2695                                         !
 ! A60   A(33,31,34)           109.0728                                         !
 ! A61   A(31,33,37)           120.8167                                         !
 ! A62   A(31,33,40)           116.0669                                         !
 ! A63   A(37,33,40)           123.0054                                         !
 ! A64   A(31,34,35)           109.0041                                         !
 ! A65   A(31,34,36)           107.2288                                         !
 ! A66   A(31,34,38)           111.8689                                         !
 ! A67   A(35,34,36)           107.2239                                         !
 ! A68   A(35,34,38)           112.4094                                         !
 ! A69   A(36,34,38)           108.8691                                         !
 ! A70   A(34,38,39)           108.4799                                         !
 ! A71   A(33,40,41)           117.4641                                         !
 ! A72   A(33,40,42)           120.6684                                         !
 ! A73   A(41,40,42)           115.7493                                         !
 ! A74   A(40,42,43)           107.4265                                         !
 ! A75   A(40,42,44)           107.8979                                         !
 ! A76   A(40,42,45)           109.3205                                         !
 ! A77   A(43,42,44)           110.5468                                         !
 ! A78   A(43,42,45)           110.6883                                         !
 ! A79   A(44,42,45)           110.8496                                         !
 ! A80   A(42,44,48)           119.4952                                         !
 ! A81   A(42,44,59)           113.6331                                         !
 ! A82   A(48,44,59)           126.871                                          !
 ! A83   A(42,45,46)           107.6318                                         !
 ! A84   A(42,45,47)           108.2736                                         !
 ! A85   A(42,45,49)           115.1083                                         !
 ! A86   A(46,45,47)           107.4378                                         !
 ! A87   A(46,45,49)           108.8923                                         !
 ! A88   A(47,45,49)           109.2311                                         !
 ! A89   A(45,49,50)           108.0685                                         !
 ! A90   A(45,49,51)           112.559                                          !
 ! A91   A(45,49,55)           109.3029                                         !
 ! A92   A(50,49,51)           108.2049                                         !
 ! A93   A(50,49,55)           107.9346                                         !
 ! A94   A(51,49,55)           110.6264                                         !
 ! A95   A(49,51,52)           110.8288                                         !
 ! A96   A(49,51,53)           112.8653                                         !
 ! A97   A(49,51,54)           110.4143                                         !
 ! A98   A(52,51,53)           108.1794                                         !
 ! A99   A(52,51,54)           107.6411                                         !
 ! A100  A(53,51,54)           106.6868                                         !
 ! A101  A(49,55,56)           110.9116                                         !
 ! A102  A(49,55,57)           111.4959                                         !
 ! A103  A(49,55,58)           110.8144                                         !
 ! A104  A(56,55,57)           107.914                                          !
 ! A105  A(56,55,58)           107.6723                                         !
 ! A106  A(57,55,58)           107.8774                                         !
 ! A107  A(44,59,60)           120.4692                                         !
 ! A108  A(44,59,61)           132.0921                                         !
 ! A109  A(60,59,61)           107.245                                          !
 ! A110  A(59,61,62)           108.0051                                         !
 ! A111  A(59,61,63)           103.5529                                         !
 ! A112  A(59,61,64)           117.031                                          !
 ! A113  A(62,61,63)           106.7315                                         !
 ! A114  A(62,61,64)           106.7517                                         !
 ! A115  A(63,61,64)           114.2386                                         !
 ! A116  A(61,63,67)           116.5584                                         !
 ! A117  A(61,63,83)           115.7626                                         !
 ! A118  A(67,63,83)           127.5366                                         !
 ! A119  A(61,64,65)           108.329                                          !
 ! A120  A(61,64,66)           104.7458                                         !
 ! A121  A(61,64,68)           119.7287                                         !
 ! A122  A(65,64,66)           107.8925                                         !
 ! A123  A(65,64,68)           106.8188                                         !
 ! A124  A(66,64,68)           108.8536                                         !
 ! A125  A(64,68,69)           106.8838                                         !
 ! A126  A(64,68,70)           110.4866                                         !
 ! A127  A(64,68,71)           117.7071                                         !
 ! A128  A(69,68,70)           105.2656                                         !
 ! A129  A(69,68,71)           107.0345                                         !
 ! A130  A(70,68,71)           108.6884                                         !
 ! A131  A(68,71,72)           109.8289                                         !
 ! A132  A(68,71,73)           110.7636                                         !
 ! A133  A(68,71,74)           109.8718                                         !
 ! A134  A(72,71,73)           108.68                                           !
 ! A135  A(72,71,74)           107.9701                                         !
 ! A136  A(73,71,74)           109.6711                                         !
 ! A137  A(71,74,75)           115.5315                                         !
 ! A138  A(71,74,82)           128.5867                                         !
 ! A139  A(75,74,82)           115.6239                                         !
 ! A140  A(77,76,78)           111.7029                                         !
 ! A141  A(77,76,82)           113.8949                                         !
 ! A142  A(78,76,82)           112.7774                                         !
 ! A143  A(80,79,81)           112.9058                                         !
 ! A144  A(80,79,82)           115.288                                          !
 ! A145  A(81,79,82)           113.4768                                         !
 ! A146  A(74,82,76)           121.6814                                         !
 ! A147  A(74,82,79)           118.0881                                         !
 ! A148  A(76,82,79)           120.1076                                         !
 ! D1    D(2,1,5,6)             23.5344                                         !
 ! D2    D(2,1,5,7)            -94.6937                                         !
 ! D3    D(2,1,5,8)            144.4235                                         !
 ! D4    D(3,1,5,6)            139.5645                                         !
 ! D5    D(3,1,5,7)             21.3364                                         !
 ! D6    D(3,1,5,8)            -99.5464                                         !
 ! D7    D(4,1,5,6)           -100.4069                                         !
 ! D8    D(4,1,5,7)            141.365                                          !
 ! D9    D(4,1,5,8)             20.4822                                         !
 ! D10   D(1,5,7,10)           -21.6958                                         !
 ! D11   D(1,5,7,19)           158.5771                                         !
 ! D12   D(6,5,7,10)          -137.2072                                         !
 ! D13   D(6,5,7,19)            43.0657                                         !
 ! D14   D(8,5,7,10)            96.5469                                         !
 ! D15   D(8,5,7,19)           -83.1802                                         !
 ! D16   D(1,5,8,9)             57.6551                                         !
 ! D17   D(1,5,8,11)           175.8253                                         !
 ! D18   D(1,5,8,15)           -61.6441                                         !
 ! D19   D(6,5,8,9)            177.3188                                         !
 ! D20   D(6,5,8,11)           -64.511                                          !
 ! D21   D(6,5,8,15)            58.0196                                         !
 ! D22   D(7,5,8,9)            -55.5478                                         !
 ! D23   D(7,5,8,11)            62.6223                                         !
 ! D24   D(7,5,8,15)          -174.847                                          !
 ! D25   D(5,7,19,20)            6.5089                                         !
 ! D26   D(5,7,19,21)          170.2424                                         !
 ! D27   D(10,7,19,20)        -173.193                                          !
 ! D28   D(10,7,19,21)          -9.4595                                         !
 ! D29   D(5,8,11,12)           58.2122                                         !
 ! D30   D(5,8,11,13)          -63.8311                                         !
 ! D31   D(5,8,11,14)          176.514                                          !
 ! D32   D(9,8,11,12)          175.513                                          !
 ! D33   D(9,8,11,13)           53.4698                                         !
 ! D34   D(9,8,11,14)          -66.1852                                         !
 ! D35   D(15,8,11,12)         -65.0486                                         !
 ! D36   D(15,8,11,13)         172.9081                                         !
 ! D37   D(15,8,11,14)          53.2532                                         !
 ! D38   D(5,8,15,16)          -61.0711                                         !
 ! D39   D(5,8,15,17)           61.1784                                         !
 ! D40   D(5,8,15,18)          179.9634                                         !
 ! D41   D(9,8,15,16)         -178.9358                                         !
 ! D42   D(9,8,15,17)          -56.6863                                         !
 ! D43   D(9,8,15,18)           62.0987                                         !
 ! D44   D(11,8,15,16)          62.2077                                         !
 ! D45   D(11,8,15,17)        -175.5428                                         !
 ! D46   D(11,8,15,18)         -56.7578                                         !
 ! D47   D(7,19,21,22)         -36.2894                                         !
 ! D48   D(7,19,21,23)        -152.8642                                         !
 ! D49   D(7,19,21,24)          84.6698                                         !
 ! D50   D(20,19,21,22)        128.9243                                         !
 ! D51   D(20,19,21,23)         12.3494                                         !
 ! D52   D(20,19,21,24)       -110.1165                                         !
 ! D53   D(19,21,23,28)         -7.5753                                         !
 ! D54   D(19,21,23,29)        172.8758                                         !
 ! D55   D(22,21,23,28)       -123.3105                                         !
 ! D56   D(22,21,23,29)         57.1406                                         !
 ! D57   D(24,21,23,28)        114.2336                                         !
 ! D58   D(24,21,23,29)        -65.3153                                         !
 ! D59   D(19,21,24,25)       -179.4728                                         !
 ! D60   D(19,21,24,26)        -60.1587                                         !
 ! D61   D(19,21,24,27)         60.3629                                         !
 ! D62   D(22,21,24,25)        -59.283                                          !
 ! D63   D(22,21,24,26)         60.0311                                         !
 ! D64   D(22,21,24,27)       -179.4473                                         !
 ! D65   D(23,21,24,25)         63.1064                                         !
 ! D66   D(23,21,24,26)       -177.5795                                         !
 ! D67   D(23,21,24,27)        -57.0579                                         !
 ! D68   D(21,23,29,30)         -2.4476                                         !
 ! D69   D(21,23,29,31)       -177.0249                                         !
 ! D70   D(28,23,29,30)        178.0244                                         !
 ! D71   D(28,23,29,31)          3.447                                          !
 ! D72   D(23,29,31,32)        -49.6441                                         !
 ! D73   D(23,29,31,33)       -169.8583                                         !
 ! D74   D(23,29,31,34)         71.1893                                         !
 ! D75   D(30,29,31,32)        135.42                                           !
 ! D76   D(30,29,31,33)         15.2059                                         !
 ! D77   D(30,29,31,34)       -103.7466                                         !
 ! D78   D(29,31,33,37)         -7.5795                                         !
 ! D79   D(29,31,33,40)        176.1383                                         !
 ! D80   D(32,31,33,37)       -126.6262                                         !
 ! D81   D(32,31,33,40)         57.0916                                         !
 ! D82   D(34,31,33,37)        112.8685                                         !
 ! D83   D(34,31,33,40)        -63.4137                                         !
 ! D84   D(29,31,34,35)       -169.6782                                         !
 ! D85   D(29,31,34,36)        -53.9126                                         !
 ! D86   D(29,31,34,38)         65.3834                                         !
 ! D87   D(32,31,34,35)        -48.8346                                         !
 ! D88   D(32,31,34,36)         66.931                                          !
 ! D89   D(32,31,34,38)       -173.773                                          !
 ! D90   D(33,31,34,35)         72.7833                                         !
 ! D91   D(33,31,34,36)       -171.4511                                         !
 ! D92   D(33,31,34,38)        -52.1551                                         !
 ! D93   D(31,33,40,41)          4.6808                                         !
 ! D94   D(31,33,40,42)        156.0183                                         !
 ! D95   D(37,33,40,41)       -171.5118                                         !
 ! D96   D(37,33,40,42)        -20.1743                                         !
 ! D97   D(31,34,38,39)         89.2196                                         !
 ! D98   D(35,34,38,39)        -33.8089                                         !
 ! D99   D(36,34,38,39)       -152.4563                                         !
 ! D100  D(33,40,42,43)         59.0753                                         !
 ! D101  D(33,40,42,44)        -60.1295                                         !
 ! D102  D(33,40,42,45)        179.2358                                         !
 ! D103  D(41,40,42,43)       -149.1222                                         !
 ! D104  D(41,40,42,44)         91.673                                          !
 ! D105  D(41,40,42,45)        -28.9617                                         !
 ! D106  D(40,42,44,48)        -42.4617                                         !
 ! D107  D(40,42,44,59)        137.8137                                         !
 ! D108  D(43,42,44,48)       -159.6643                                         !
 ! D109  D(43,42,44,59)         20.6111                                         !
 ! D110  D(45,42,44,48)         77.2104                                         !
 ! D111  D(45,42,44,59)       -102.5142                                         !
 ! D112  D(40,42,45,46)         60.1408                                         !
 ! D113  D(40,42,45,47)        -55.7139                                         !
 ! D114  D(40,42,45,49)       -178.2485                                         !
 ! D115  D(43,42,45,46)        178.2807                                         !
 ! D116  D(43,42,45,47)         62.426                                          !
 ! D117  D(43,42,45,49)        -60.1086                                         !
 ! D118  D(44,42,45,46)        -58.6758                                         !
 ! D119  D(44,42,45,47)       -174.5305                                         !
 ! D120  D(44,42,45,49)         62.9349                                         !
 ! D121  D(42,44,59,60)         -4.9476                                         !
 ! D122  D(42,44,59,61)       -179.1899                                         !
 ! D123  D(48,44,59,60)        175.352                                          !
 ! D124  D(48,44,59,61)          1.1097                                         !
 ! D125  D(42,45,49,50)        -58.9849                                         !
 ! D126  D(42,45,49,51)         60.4462                                         !
 ! D127  D(42,45,49,55)       -176.2085                                         !
 ! D128  D(46,45,49,50)         61.9408                                         !
 ! D129  D(46,45,49,51)       -178.6281                                         !
 ! D130  D(46,45,49,55)        -55.2828                                         !
 ! D131  D(47,45,49,50)        178.9952                                         !
 ! D132  D(47,45,49,51)        -61.5737                                         !
 ! D133  D(47,45,49,55)         61.7716                                         !
 ! D134  D(45,49,51,52)         55.5583                                         !
 ! D135  D(45,49,51,53)        -65.9558                                         !
 ! D136  D(45,49,51,54)        174.7389                                         !
 ! D137  D(50,49,51,52)        174.9101                                         !
 ! D138  D(50,49,51,53)         53.396                                          !
 ! D139  D(50,49,51,54)        -65.9093                                         !
 ! D140  D(55,49,51,52)        -67.0459                                         !
 ! D141  D(55,49,51,53)        171.44                                           !
 ! D142  D(55,49,51,54)         52.1347                                         !
 ! D143  D(45,49,55,56)        -63.3613                                         !
 ! D144  D(45,49,55,57)         56.9284                                         !
 ! D145  D(45,49,55,58)        177.1058                                         !
 ! D146  D(50,49,55,56)        179.3307                                         !
 ! D147  D(50,49,55,57)        -60.3796                                         !
 ! D148  D(50,49,55,58)         59.7979                                         !
 ! D149  D(51,49,55,56)         61.1217                                         !
 ! D150  D(51,49,55,57)       -178.5885                                         !
 ! D151  D(51,49,55,58)        -58.4111                                         !
 ! D152  D(44,59,61,62)        -90.8536                                         !
 ! D153  D(44,59,61,63)        156.2088                                         !
 ! D154  D(44,59,61,64)         29.5482                                         !
 ! D155  D(60,59,61,62)         94.3409                                         !
 ! D156  D(60,59,61,63)        -18.5967                                         !
 ! D157  D(60,59,61,64)       -145.2573                                         !
 ! D158  D(59,61,63,67)       -155.8408                                         !
 ! D159  D(59,61,63,83)         20.1524                                         !
 ! D160  D(62,61,63,67)         90.3009                                         !
 ! D161  D(62,61,63,83)        -93.7059                                         !
 ! D162  D(64,61,63,67)        -27.4358                                         !
 ! D163  D(64,61,63,83)        148.5574                                         !
 ! D164  D(59,61,64,65)        -70.4387                                         !
 ! D165  D(59,61,64,66)        174.6087                                         !
 ! D166  D(59,61,64,68)         52.2577                                         !
 ! D167  D(62,61,64,65)         50.6228                                         !
 ! D168  D(62,61,64,66)        -64.3297                                         !
 ! D169  D(62,61,64,68)        173.3193                                         !
 ! D170  D(63,61,64,65)        168.348                                          !
 ! D171  D(63,61,64,66)         53.3954                                         !
 ! D172  D(63,61,64,68)        -68.9556                                         !
 ! D173  D(61,64,68,69)        175.7581                                         !
 ! D174  D(61,64,68,70)        -70.2172                                         !
 ! D175  D(61,64,68,71)         55.4141                                         !
 ! D176  D(65,64,68,69)        -60.8107                                         !
 ! D177  D(65,64,68,70)         53.2139                                         !
 ! D178  D(65,64,68,71)        178.8453                                         !
 ! D179  D(66,64,68,69)         55.4449                                         !
 ! D180  D(66,64,68,70)        169.4696                                         !
 ! D181  D(66,64,68,71)        -64.899                                          !
 ! D182  D(64,68,71,72)        160.9462                                         !
 ! D183  D(64,68,71,73)         40.8912                                         !
 ! D184  D(64,68,71,74)        -80.4297                                         !
 ! D185  D(69,68,71,72)         40.6808                                         !
 ! D186  D(69,68,71,73)        -79.3741                                         !
 ! D187  D(69,68,71,74)        159.305                                          !
 ! D188  D(70,68,71,72)        -72.5439                                         !
 ! D189  D(70,68,71,73)        167.4011                                         !
 ! D190  D(70,68,71,74)         46.0802                                         !
 ! D191  D(68,71,74,75)        -36.1621                                         !
 ! D192  D(68,71,74,82)        137.6912                                         !
 ! D193  D(72,71,74,75)         83.601                                          !
 ! D194  D(72,71,74,82)       -102.5456                                         !
 ! D195  D(73,71,74,75)       -158.1358                                         !
 ! D196  D(73,71,74,82)         15.7176                                         !
 ! D197  D(71,74,82,76)         -2.6171                                         !
 ! D198  D(71,74,82,79)        173.3545                                         !
 ! D199  D(75,74,82,76)        171.2314                                         !
 ! D200  D(75,74,82,79)        -12.7969                                         !
 ! D201  D(77,76,82,74)       -177.5027                                         !
 ! D202  D(77,76,82,79)          6.6056                                         !
 ! D203  D(78,76,82,74)        -48.8426                                         !
 ! D204  D(78,76,82,79)        135.2656                                         !
 ! D205  D(80,79,82,74)          7.3672                                         !
 ! D206  D(80,79,82,76)       -176.5953                                         !
 ! D207  D(81,79,82,74)        139.7836                                         !
 ! D208  D(81,79,82,76)        -44.179                                          !
 --------------------------------------------------------------------------------
 Symmetry turned off by external request.
 Stoichiometry    C23H45N8O7(1+)
 Framework group  C1[X(C23H45N8O7)]
 Deg. of freedom   243
 Full point group                 C1      NOp   1
                          Input orientation:                          
 ---------------------------------------------------------------------
 Center     Atomic      Atomic             Coordinates (Angstroms)
 Number     Number       Type             X           Y           Z
 ---------------------------------------------------------------------
      1          7           0       -8.653963    3.400236    3.674192
      2          1           0       -8.759668    3.475795    4.690055
      3          1           0       -8.064553    4.214894    3.338229
      4          1           0       -9.584366    3.404892    3.248474
      5          6           0       -7.809713    2.210047    3.250118
      6          1           0       -7.840111    1.463427    4.048345
      7          6           0       -6.406315    2.859349    3.109776
      8          6           0       -8.357600    1.612224    1.928856
      9          1           0       -8.347042    2.419544    1.182120
     10          8           0       -6.361933    4.088129    2.940034
     11          6           0       -7.459080    0.470338    1.423099
     12          1           0       -7.373078   -0.328026    2.170835
     13          1           0       -6.453006    0.802587    1.159981
     14          1           0       -7.905260    0.030734    0.526738
     15          6           0       -9.798834    1.101389    2.108252
     16          1           0       -9.842577    0.306973    2.862458
     17          1           0      -10.521106    1.878519    2.394397
     18          1           0      -10.162079    0.685986    1.164162
     19          7           0       -5.356879    2.051661    3.176085
     20          1           0       -5.449778    1.034190    3.215660
     21          6           0       -3.990849    2.468061    2.859859
     22          1           0       -4.031974    3.178195    2.026100
     23          6           0       -3.292225    1.169475    2.397402
     24          6           0       -3.298393    3.124508    4.062221
     25          1           0       -2.282585    3.436072    3.800709
     26          1           0       -3.858922    4.011191    4.370595
     27          1           0       -3.239835    2.425137    4.901926
     28          8           0       -3.872213    0.082548    2.500101
     29          7           0       -2.055599    1.320094    1.907340
     30          1           0       -1.623142    2.232639    1.811249
     31          6           0       -1.276686    0.217677    1.369155
     32          1           0       -1.286898   -0.615466    2.082662
     33          6           0        0.145461    0.744889    1.157838
     34          6           0       -1.847575   -0.267828    0.003886
     35          1           0       -1.352574   -1.210156   -0.276928
     36          1           0       -2.907569   -0.491796    0.157073
     37          8           0        0.405501    1.950712    1.304504
     38          8           0       -1.730500    0.715319   -0.991129
     39          1           0       -0.858752    0.606736   -1.436208
     40          7           0        1.051296   -0.153005    0.736157
     41          1           0        0.719505   -1.084821    0.520033
     42          6           0        2.252651    0.278808    0.014541
     43          1           0        2.798902    0.962457    0.668270
     44          6           0        1.797203    1.007360   -1.275978
     45          6           0        3.110003   -0.948431   -0.324534
     46          1           0        2.503899   -1.614000   -0.955469
     47          1           0        3.326166   -1.486398    0.609130
     48          8           0        0.864536    0.534398   -1.949589
     49          6           0        4.434011   -0.640737   -1.051424
     50          1           0        4.195083   -0.120069   -1.988719
     51          6           0        5.364412    0.260797   -0.225174
     52          1           0        5.558895   -0.179098    0.761876
     53          1           0        4.959744    1.267978   -0.076791
     54          1           0        6.328294    0.380554   -0.730882
     55          6           0        5.135445   -1.959434   -1.408528
     56          1           0        5.407836   -2.516165   -0.502554
     57          1           0        4.492636   -2.603668   -2.019703
     58          1           0        6.055396   -1.770728   -1.971978
     59          7           0        2.490114    2.108639   -1.538003
     60          1           0        3.195502    2.449191   -0.875819
     61          6           0        2.395857    3.094847   -2.617656
     62          1           0        3.060206    2.771584   -3.432319
     63          6           0        3.040386    4.387748   -1.993455
     64          6           0        1.009626    3.318682   -3.239400
     65          1           0        0.745357    2.429728   -3.820147
     66          1           0        1.148912    4.148285   -3.939219
     67          8           0        2.687938    5.489091   -2.491467
     68          6           0       -0.193310    3.630976   -2.330671
     69          1           0       -1.048396    3.825994   -2.989780
     70          1           0       -0.473742    2.746606   -1.748502
     71          6           0       -0.076642    4.829206   -1.379274
     72          1           0       -1.076573    5.144955   -1.053614
     73          1           0        0.410065    5.667869   -1.873041
     74          7           0        0.689041    4.446141   -0.185221
     75          1           0        0.538581    3.495984    0.146039
     76          7           0        2.050743    6.332388    0.008380
     77          1           0        2.799088    6.734350    0.560424
     78          1           0        2.282373    6.328543   -1.014654
     79          7           0        2.109369    4.631610    1.627252
     80          1           0        1.784145    3.699187    1.865304
     81          1           0        3.112204    4.738937    1.733389
     82          6           0        1.629865    5.134194    0.451516
     83          8           0        3.791421    4.199957   -0.998685
 ---------------------------------------------------------------------
 Rotational constants (GHZ):           0.1595979           0.0432148           0.0387204
 Standard basis: 6-31G(d) (6D, 7F)
   660 basis functions,  1244 primitive gaussians,   660 cartesian basis functions
   147 alpha electrons      147 beta electrons
       nuclear repulsion energy      4772.4158470317 Hartrees.
 NAtoms=   83 NActive=   83 NUniq=   83 SFac= 1.00D+00 NAtFMM=   60 NAOKFM=T Big=T
 Integral buffers will be    131072 words long.
 Raffenetti 2 integral format.
 Two-electron integral symmetry is turned off.
 Nuclear repulsion after empirical dispersion term =     4772.3004737227 Hartrees.
 One-electron integrals computed using PRISM.
 NBasis=   660 RedAO= T EigKep=  1.79D-03  NBF=   660
 NBsUse=   660 1.00D-06 EigRej= -1.00D+00 NBFU=   660
 Initial guess from the checkpoint file:  "conf-112.chk"
 B after Tr=     0.000000    0.000000    0.000000
         Rot=    1.000000    0.000000    0.000000    0.000000 Ang=   0.00 deg.
 Requested convergence on RMS density matrix=1.00D-08 within 128 cycles.
 Requested convergence on MAX density matrix=1.00D-06.
 Requested convergence on             energy=1.00D-06.
 No special actions if energy rises.
 SCF Done:  E(RB3LYP) =  -1868.13313900     A.U. after    3 cycles
            NFock=  3  Conv=0.66D-09     -V/T= 2.0094

 **********************************************************************

            Population analysis using the SCF Density.

 **********************************************************************

 Alpha  occ. eigenvalues --  -19.27662 -19.23547 -19.23278 -19.20892 -19.18390
 Alpha  occ. eigenvalues --  -19.13595 -19.13464 -14.60974 -14.50267 -14.46887
 Alpha  occ. eigenvalues --  -14.46339 -14.44664 -14.44204 -14.41859 -14.41734
 Alpha  occ. eigenvalues --  -10.44424 -10.41565 -10.40267 -10.40143 -10.39956
 Alpha  occ. eigenvalues --  -10.35866 -10.35498 -10.35469 -10.33392 -10.32078
 Alpha  occ. eigenvalues --  -10.32060 -10.31521 -10.31379 -10.30637 -10.29551
 Alpha  occ. eigenvalues --  -10.28874 -10.27170 -10.26259 -10.25386 -10.24382
 Alpha  occ. eigenvalues --  -10.23183 -10.23094 -10.22926  -1.20164  -1.15567
 Alpha  occ. eigenvalues --   -1.14923  -1.14574  -1.09998  -1.09154  -1.08711
 Alpha  occ. eigenvalues --   -1.07026  -1.06849  -1.03425  -1.02832  -0.99294
 Alpha  occ. eigenvalues --   -0.98649  -0.97319  -0.96406  -0.96200  -0.90546
 Alpha  occ. eigenvalues --   -0.88626  -0.86753  -0.85153  -0.84920  -0.82298
 Alpha  occ. eigenvalues --   -0.81885  -0.79499  -0.78221  -0.75896  -0.75067
 Alpha  occ. eigenvalues --   -0.74704  -0.74504  -0.73933  -0.72517  -0.71307
 Alpha  occ. eigenvalues --   -0.70982  -0.70107  -0.69874  -0.68232  -0.67418
 Alpha  occ. eigenvalues --   -0.66862  -0.65149  -0.64771  -0.63297  -0.62712
 Alpha  occ. eigenvalues --   -0.62085  -0.61046  -0.60780  -0.60167  -0.59814
 Alpha  occ. eigenvalues --   -0.59247  -0.58101  -0.57917  -0.57610  -0.57025
 Alpha  occ. eigenvalues --   -0.56627  -0.56332  -0.55800  -0.55483  -0.55225
 Alpha  occ. eigenvalues --   -0.54496  -0.53660  -0.53439  -0.52995  -0.52869
 Alpha  occ. eigenvalues --   -0.52558  -0.51765  -0.51526  -0.51042  -0.50399
 Alpha  occ. eigenvalues --   -0.50216  -0.50121  -0.49503  -0.49171  -0.49049
 Alpha  occ. eigenvalues --   -0.48886  -0.48530  -0.48290  -0.47967  -0.47940
 Alpha  occ. eigenvalues --   -0.47764  -0.47195  -0.46613  -0.45714  -0.45394
 Alpha  occ. eigenvalues --   -0.45177  -0.44140  -0.43886  -0.43478  -0.42562
 Alpha  occ. eigenvalues --   -0.42240  -0.42176  -0.40599  -0.40245  -0.40195
 Alpha  occ. eigenvalues --   -0.39494  -0.39289  -0.38945  -0.38709  -0.38596
 Alpha  occ. eigenvalues --   -0.37790  -0.37375  -0.37244  -0.36472  -0.35994
 Alpha  occ. eigenvalues --   -0.33685  -0.33515  -0.32355  -0.31966  -0.29378
 Alpha  occ. eigenvalues --   -0.28074  -0.27435
 Alpha virt. eigenvalues --   -0.13491  -0.11893  -0.09577  -0.08627  -0.07383
 Alpha virt. eigenvalues --   -0.06138  -0.05341  -0.04788  -0.02902  -0.02236
 Alpha virt. eigenvalues --   -0.01675  -0.01527  -0.00432  -0.00349   0.00740
 Alpha virt. eigenvalues --    0.01219   0.01700   0.01821   0.02414   0.02702
 Alpha virt. eigenvalues --    0.03374   0.03605   0.04000   0.04385   0.04932
 Alpha virt. eigenvalues --    0.05178   0.05580   0.05918   0.06307   0.06371
 Alpha virt. eigenvalues --    0.06454   0.06493   0.06639   0.07560   0.08023
 Alpha virt. eigenvalues --    0.08342   0.08717   0.08822   0.09158   0.09399
 Alpha virt. eigenvalues --    0.09511   0.09618   0.09875   0.10348   0.10861
 Alpha virt. eigenvalues --    0.10937   0.11162   0.11438   0.11545   0.12009
 Alpha virt. eigenvalues --    0.12316   0.12532   0.12907   0.13326   0.13354
 Alpha virt. eigenvalues --    0.13706   0.13794   0.14681   0.14749   0.15563
 Alpha virt. eigenvalues --    0.16084   0.16227   0.16868   0.17583   0.17990
 Alpha virt. eigenvalues --    0.18293   0.18912   0.19236   0.19990   0.20834
 Alpha virt. eigenvalues --    0.20938   0.21100   0.22063   0.22801   0.23564
 Alpha virt. eigenvalues --    0.24135   0.25233   0.26337   0.27856   0.28503
 Alpha virt. eigenvalues --    0.29414   0.31114   0.31584   0.33593   0.34172
 Alpha virt. eigenvalues --    0.34455   0.34813   0.35979   0.37196   0.37440
 Alpha virt. eigenvalues --    0.38098   0.39185   0.39566   0.40592   0.41539
 Alpha virt. eigenvalues --    0.41694   0.42792   0.43413   0.43754   0.44174
 Alpha virt. eigenvalues --    0.44681   0.44980   0.45334   0.45435   0.46076
 Alpha virt. eigenvalues --    0.46247   0.46421   0.46759   0.47822   0.47977
 Alpha virt. eigenvalues --    0.48583   0.49383   0.49674   0.50670   0.50860
 Alpha virt. eigenvalues --    0.50978   0.51107   0.51805   0.52289   0.52993
 Alpha virt. eigenvalues --    0.53932   0.54344   0.54644   0.55042   0.55332
 Alpha virt. eigenvalues --    0.56252   0.56701   0.57218   0.57458   0.58123
 Alpha virt. eigenvalues --    0.58504   0.58759   0.59090   0.59722   0.60265
 Alpha virt. eigenvalues --    0.60324   0.60848   0.61776   0.61906   0.62307
 Alpha virt. eigenvalues --    0.62654   0.63228   0.63977   0.64107   0.64683
 Alpha virt. eigenvalues --    0.64893   0.65320   0.65522   0.65917   0.66461
 Alpha virt. eigenvalues --    0.66993   0.67288   0.68320   0.69070   0.69241
 Alpha virt. eigenvalues --    0.69390   0.69910   0.70116   0.70560   0.71193
 Alpha virt. eigenvalues --    0.72449   0.73070   0.73253   0.73759   0.74078
 Alpha virt. eigenvalues --    0.74247   0.74991   0.75349   0.75633   0.76170
 Alpha virt. eigenvalues --    0.76434   0.76811   0.76978   0.77697   0.77763
 Alpha virt. eigenvalues --    0.78002   0.78143   0.78366   0.78781   0.79244
 Alpha virt. eigenvalues --    0.79530   0.79990   0.80287   0.80427   0.80766
 Alpha virt. eigenvalues --    0.80954   0.81431   0.81651   0.82337   0.82549
 Alpha virt. eigenvalues --    0.82692   0.83040   0.83558   0.84241   0.84765
 Alpha virt. eigenvalues --    0.84876   0.85121   0.85440   0.85562   0.86041
 Alpha virt. eigenvalues --    0.86543   0.86560   0.87084   0.87785   0.87971
 Alpha virt. eigenvalues --    0.88243   0.88524   0.89337   0.89622   0.89886
 Alpha virt. eigenvalues --    0.90392   0.91136   0.92024   0.92487   0.92809
 Alpha virt. eigenvalues --    0.93191   0.93824   0.94241   0.94576   0.94936
 Alpha virt. eigenvalues --    0.95503   0.96121   0.96207   0.97596   0.98256
 Alpha virt. eigenvalues --    0.99155   0.99470   1.00491   1.01146   1.02194
 Alpha virt. eigenvalues --    1.02475   1.03825   1.04364   1.05361   1.05868
 Alpha virt. eigenvalues --    1.07165   1.07827   1.08945   1.09935   1.10629
 Alpha virt. eigenvalues --    1.12265   1.12504   1.13423   1.13770   1.14151
 Alpha virt. eigenvalues --    1.15133   1.16634   1.16994   1.17373   1.19011
 Alpha virt. eigenvalues --    1.19321   1.19409   1.21823   1.22519   1.23207
 Alpha virt. eigenvalues --    1.23567   1.24296   1.24898   1.25757   1.26576
 Alpha virt. eigenvalues --    1.27308   1.28837   1.29615   1.30720   1.31434
 Alpha virt. eigenvalues --    1.31775   1.32680   1.33155   1.33859   1.36417
 Alpha virt. eigenvalues --    1.36487   1.38113   1.38935   1.39522   1.39875
 Alpha virt. eigenvalues --    1.41001   1.41887   1.43092   1.43478   1.43742
 Alpha virt. eigenvalues --    1.44964   1.46268   1.46561   1.47432   1.49456
 Alpha virt. eigenvalues --    1.50016   1.51265   1.51815   1.52404   1.52695
 Alpha virt. eigenvalues --    1.54330   1.54983   1.55768   1.56202   1.57298
 Alpha virt. eigenvalues --    1.58212   1.59448   1.59652   1.60265   1.61269
 Alpha virt. eigenvalues --    1.62049   1.62802   1.63193   1.63692   1.63785
 Alpha virt. eigenvalues --    1.64346   1.65754   1.66036   1.67252   1.67571
 Alpha virt. eigenvalues --    1.68363   1.68613   1.69320   1.69611   1.70495
 Alpha virt. eigenvalues --    1.71296   1.71914   1.72132   1.73482   1.73758
 Alpha virt. eigenvalues --    1.74189   1.74451   1.74768   1.74863   1.75479
 Alpha virt. eigenvalues --    1.76146   1.76700   1.77348   1.77768   1.78120
 Alpha virt. eigenvalues --    1.78931   1.79428   1.80080   1.80638   1.80815
 Alpha virt. eigenvalues --    1.81187   1.82583   1.82831   1.83396   1.83699
 Alpha virt. eigenvalues --    1.84009   1.84912   1.86038   1.86561   1.87015
 Alpha virt. eigenvalues --    1.87527   1.88426   1.88770   1.89503   1.89602
 Alpha virt. eigenvalues --    1.90207   1.90495   1.91757   1.92604   1.92851
 Alpha virt. eigenvalues --    1.93610   1.93876   1.94367   1.95332   1.95417
 Alpha virt. eigenvalues --    1.96232   1.96993   1.97855   1.98234   1.98596
 Alpha virt. eigenvalues --    2.00158   2.00310   2.01426   2.02111   2.02759
 Alpha virt. eigenvalues --    2.03027   2.03663   2.04201   2.04561   2.05303
 Alpha virt. eigenvalues --    2.05786   2.06830   2.07721   2.08074   2.09305
 Alpha virt. eigenvalues --    2.10233   2.11452   2.12053   2.12250   2.12740
 Alpha virt. eigenvalues --    2.13994   2.14606   2.14785   2.16096   2.16520
 Alpha virt. eigenvalues --    2.17689   2.18254   2.19562   2.19836   2.20223
 Alpha virt. eigenvalues --    2.21780   2.22402   2.22841   2.23595   2.24231
 Alpha virt. eigenvalues --    2.24944   2.25711   2.26379   2.27294   2.27550
 Alpha virt. eigenvalues --    2.28216   2.29274   2.30115   2.31320   2.31693
 Alpha virt. eigenvalues --    2.32503   2.33310   2.33772   2.33980   2.35067
 Alpha virt. eigenvalues --    2.35517   2.36563   2.38068   2.38634   2.38817
 Alpha virt. eigenvalues --    2.40419   2.41869   2.42250   2.44313   2.45636
 Alpha virt. eigenvalues --    2.45865   2.46146   2.47137   2.48502   2.49322
 Alpha virt. eigenvalues --    2.51331   2.52058   2.52371   2.52726   2.53785
 Alpha virt. eigenvalues --    2.53988   2.54436   2.56310   2.57506   2.58660
 Alpha virt. eigenvalues --    2.59903   2.60393   2.60571   2.61393   2.62239
 Alpha virt. eigenvalues --    2.63221   2.64333   2.66001   2.66800   2.68386
 Alpha virt. eigenvalues --    2.69777   2.71020   2.72616   2.74134   2.76222
 Alpha virt. eigenvalues --    2.76746   2.78811   2.82041   2.82647   2.83304
 Alpha virt. eigenvalues --    2.85350   2.87036   2.88361   2.89160   2.90817
 Alpha virt. eigenvalues --    2.94173   2.94381   2.97116   3.01647   3.03214
 Alpha virt. eigenvalues --    3.04258   3.08863   3.10180   3.11534   3.19977
 Alpha virt. eigenvalues --    3.64041   3.76002   3.81442   3.86966   3.90444
 Alpha virt. eigenvalues --    3.91599   3.94060   3.96434   3.98928   4.01232
 Alpha virt. eigenvalues --    4.04548   4.06308   4.08026   4.10009   4.14422
 Alpha virt. eigenvalues --    4.15648   4.16630   4.17309   4.21753   4.22956
 Alpha virt. eigenvalues --    4.23587   4.25065   4.25957   4.30192   4.31199
 Alpha virt. eigenvalues --    4.34226   4.34463   4.34966   4.38270   4.42008
 Alpha virt. eigenvalues --    4.44262   4.47781   4.50343   4.51850   4.55429
 Alpha virt. eigenvalues --    4.59674   4.64792   4.70979
          Condensed to atoms (all electrons):
 Mulliken charges:
               1
     1  N   -0.757162
     2  H    0.417752
     3  H    0.432626
     4  H    0.411418
     5  C   -0.105625
     6  H    0.206849
     7  C    0.646208
     8  C   -0.109888
     9  H    0.172104
    10  O   -0.542153
    11  C   -0.475688
    12  H    0.168724
    13  H    0.185571
    14  H    0.191542
    15  C   -0.473516
    16  H    0.178333
    17  H    0.139184
    18  H    0.204847
    19  N   -0.599557
    20  H    0.379262
    21  C   -0.067323
    22  H    0.201794
    23  C    0.640865
    24  C   -0.449985
    25  H    0.174683
    26  H    0.186790
    27  H    0.174107
    28  O   -0.549710
    29  N   -0.609282
    30  H    0.359649
    31  C   -0.061558
    32  H    0.188669
    33  C    0.632598
    34  C   -0.052198
    35  H    0.135041
    36  H    0.175861
    37  O   -0.579302
    38  O   -0.651947
    39  H    0.464060
    40  N   -0.589182
    41  H    0.347663
    42  C   -0.043001
    43  H    0.165177
    44  C    0.628018
    45  C   -0.293887
    46  H    0.152504
    47  H    0.149722
    48  O   -0.599726
    49  C   -0.085301
    50  H    0.151356
    51  C   -0.460275
    52  H    0.141553
    53  H    0.151278
    54  H    0.164188
    55  C   -0.445982
    56  H    0.144248
    57  H    0.148395
    58  H    0.158224
    59  N   -0.618092
    60  H    0.373072
    61  C   -0.045067
    62  H    0.174253
    63  C    0.603703
    64  C   -0.262167
    65  H    0.158667
    66  H    0.171610
    67  O   -0.596900
    68  C   -0.309346
    69  H    0.151458
    70  H    0.150509
    71  C   -0.137808
    72  H    0.147684
    73  H    0.210984
    74  N   -0.612230
    75  H    0.399221
    76  N   -0.728986
    77  H    0.343094
    78  H    0.405494
    79  N   -0.766697
    80  H    0.364646
    81  H    0.363309
    82  C    0.709052
    83  O   -0.618081
 Sum of Mulliken charges =   1.00000
 Mulliken charges with hydrogens summed into heavy atoms:
               1
     1  N    0.504633
     5  C    0.101224
     7  C    0.646208
     8  C    0.062217
    10  O   -0.542153
    11  C    0.070148
    15  C    0.048849
    19  N   -0.220294
    21  C    0.134470
    23  C    0.640865
    24  C    0.085595
    28  O   -0.549710
    29  N   -0.249634
    31  C    0.127111
    33  C    0.632598
    34  C    0.258705
    37  O   -0.579302
    38  O   -0.187887
    40  N   -0.241519
    42  C    0.122176
    44  C    0.628018
    45  C    0.008339
    48  O   -0.599726
    49  C    0.066056
    51  C   -0.003256
    55  C    0.004885
    59  N   -0.245019
    61  C    0.129187
    63  C    0.603703
    64  C    0.068109
    67  O   -0.596900
    68  C   -0.007379
    71  C    0.220860
    74  N   -0.213008
    76  N    0.019602
    79  N   -0.038741
    82  C    0.709052
    83  O   -0.618081
 Electronic spatial extent (au):  <R**2>=          33798.5714
 Charge=              1.0000 electrons
 Dipole moment (field-independent basis, Debye):
    X=            -30.9246    Y=              8.7700    Z=             18.1218  Tot=             36.9005
 Quadrupole moment (field-independent basis, Debye-Ang):
   XX=             65.9967   YY=           -197.6366   ZZ=           -175.9891
   XY=            -95.8208   XZ=           -103.1467   YZ=             57.1197
 Traceless Quadrupole moment (field-independent basis, Debye-Ang):
   XX=            168.5397   YY=            -95.0936   ZZ=            -73.4461
   XY=            -95.8208   XZ=           -103.1467   YZ=             57.1197
 Octapole moment (field-independent basis, Debye-Ang**2):
  XXX=          -1964.6719  YYY=          -1318.4062  ZZZ=            -84.1009  XYY=            -71.3053
  XXY=            273.8230  XXZ=            914.4472  XZZ=           -232.0998  YZZ=           -315.9098
  YYZ=            110.0127  XYZ=           -259.3775
 Hexadecapole moment (field-independent basis, Debye-Ang**3):
 XXXX=          -2013.8398 YYYY=         -11380.0806 ZZZZ=          -5090.0752 XXXY=          -5880.9817
 XXXZ=          -4244.5343 YYYX=            627.3375 YYYZ=            416.0219 ZZZX=           2626.9003
 ZZZY=            219.7697 XXYY=          -3943.6616 XXZZ=          -1465.9861 YYZZ=          -2611.6617
 XXYZ=           3053.1252 YYXZ=            899.5046 ZZXY=           -959.9683
 N-N= 4.772300473723D+03 E-N=-1.387144805507D+04  KE= 1.850798272513D+03
 Unable to Open any file for archive entry.
 1\1\GINC-VIM-000\SP\RB3LYP\6-31G(d)\C23H45N8O7(1+)\KENGMITH\26-Jun-202
 2\0\\# B3LYP/6-31G* empiricaldispersion=gd3 guess=read geom=check nosy
 mm integral(ultrafinegrid)\\Candidate Structure: Conf:112 Charge calc 
 in gas phase\\1,1\N,0,-8.6539627581,3.4002359147,3.6741916223\H,0,-8.7
 596682357,3.4757951758,4.6900545635\H,0,-8.0645532349,4.2148940143,3.3
 382288657\H,0,-9.5843659862,3.4048921044,3.2484743676\C,0,-7.809712564
 5,2.2100470331,3.2501182054\H,0,-7.8401108599,1.4634273239,4.048344658
 \C,0,-6.4063151298,2.8593487591,3.1097761608\C,0,-8.357599917,1.612224
 0414,1.9288559012\H,0,-8.3470420277,2.4195442878,1.1821199782\O,0,-6.3
 619331219,4.0881288785,2.940033585\C,0,-7.4590803895,0.4703376345,1.42
 30986303\H,0,-7.3730781711,-0.3280263755,2.1708351657\H,0,-6.453005769
 5,0.8025865339,1.1599810796\H,0,-7.905259725,0.0307335311,0.5267379044
 \C,0,-9.7988338942,1.1013887915,2.108251589\H,0,-9.842577157,0.3069731
 76,2.862458355\H,0,-10.5211055527,1.87851885,2.3943972756\H,0,-10.1620
 789285,0.6859857048,1.1641616819\N,0,-5.3568790106,2.0516612901,3.1760
 848517\H,0,-5.4497777693,1.0341903762,3.21566048\C,0,-3.9908485582,2.4
 680607067,2.8598587713\H,0,-4.0319743798,3.1781950763,2.0261000769\C,0
 ,-3.2922252409,1.1694753936,2.3974016121\C,0,-3.2983931857,3.124507674
 9,4.0622206892\H,0,-2.2825854424,3.4360717592,3.8007086688\H,0,-3.8589
 22192,4.0111908823,4.3705951642\H,0,-3.2398347954,2.4251374924,4.90192
 55685\O,0,-3.8722125081,0.0825483578,2.500100524\N,0,-2.0555994112,1.3
 200944708,1.9073399406\H,0,-1.6231417034,2.2326387714,1.8112487438\C,0
 ,-1.276685934,0.2176765222,1.3691545148\H,0,-1.2868982156,-0.615465761
 9,2.0826620074\C,0,0.1454607569,0.7448887448,1.1578382825\C,0,-1.84757
 45343,-0.2678284234,0.0038859452\H,0,-1.3525735179,-1.2101561354,-0.27
 69276069\H,0,-2.9075688857,-0.4917958376,0.1570727258\O,0,0.4055009897
 ,1.950711537,1.3045040526\O,0,-1.730499563,0.7153192683,-0.9911292478\
 H,0,-0.858751508,0.6067358692,-1.4362079179\N,0,1.0512964363,-0.153005
 0445,0.7361573468\H,0,0.7195053409,-1.0848210989,0.5200329176\C,0,2.25
 26507443,0.2788076822,0.0145412395\H,0,2.7989022474,0.9624573416,0.668
 2702588\C,0,1.7972030706,1.0073599018,-1.2759779505\C,0,3.110002568,-0
 .9484311113,-0.3245339895\H,0,2.5038988998,-1.6140002271,-0.9554688549
 \H,0,3.3261664389,-1.4863984957,0.609130465\O,0,0.8645358488,0.5343982
 546,-1.9495886528\C,0,4.4340107361,-0.6407370288,-1.0514241487\H,0,4.1
 95083027,-0.1200692972,-1.9887190401\C,0,5.3644123082,0.2607967459,-0.
 225173508\H,0,5.5588952825,-0.1790977271,0.7618760388\H,0,4.9597439541
 ,1.2679775126,-0.0767907672\H,0,6.3282937039,0.3805540537,-0.730882377
 7\C,0,5.1354447791,-1.959434417,-1.4085275207\H,0,5.4078355703,-2.5161
 651216,-0.5025543071\H,0,4.4926358488,-2.6036683196,-2.019703467\H,0,6
 .0553960361,-1.7707276796,-1.9719776161\N,0,2.4901140687,2.1086392201,
 -1.5380028179\H,0,3.1955024024,2.4491907039,-0.8758193677\C,0,2.395856
 9452,3.0948474788,-2.6176563859\H,0,3.0602062675,2.7715838353,-3.43231
 85312\C,0,3.040386367,4.3877480221,-1.9934551949\C,0,1.0096262973,3.31
 8681507,-3.2393995197\H,0,0.745356596,2.4297278446,-3.8201465174\H,0,1
 .1489124789,4.1482846196,-3.9392190891\O,0,2.6879381463,5.4890908483,-
 2.4914668886\C,0,-0.1933101213,3.6309758531,-2.3306714169\H,0,-1.04839
 61393,3.825993803,-2.9897798953\H,0,-0.4737424507,2.7466055407,-1.7485
 022822\C,0,-0.0766424316,4.8292057763,-1.3792742205\H,0,-1.0765732607,
 5.144955488,-1.0536136412\H,0,0.410065476,5.6678692836,-1.8730407024\N
 ,0,0.6890411201,4.4461408953,-0.1852205221\H,0,0.5385805465,3.49598375
 34,0.1460387985\N,0,2.0507427441,6.3323883073,0.0083800901\H,0,2.79908
 75493,6.7343499986,0.5604244872\H,0,2.2823725531,6.3285432414,-1.01465
 35114\N,0,2.1093692121,4.6316098619,1.6272519394\H,0,1.7841446397,3.69
 9187188,1.8653038033\H,0,3.1122044397,4.7389365005,1.733389474\C,0,1.6
 298646114,5.1341942299,0.4515162744\O,0,3.7914206334,4.199956881,-0.99
 86853745\\Version=ES64L-G16RevC.01\HF=-1868.133139\RMSD=6.593e-10\Dipo
 le=-10.3261136,-0.4728675,6.2110334\Quadrupole=125.3051413,-70.6997853
 ,-54.605356,-71.2403973,-76.68703,42.4670983\PG=C01 [X(C23H45N8O7)]\\@
 The archive entry for this job was punched.


 ALMOST ANYTHING IS EASIER TO GET INTO THAN OUT OF.

                         -- AGNES ALLEN'S LAW FROM
                PAUL DICKSON'S "THE OFFICIAL RULES"
 Job cpu time:       0 days  0 hours  5 minutes 36.0 seconds.
 Elapsed time:       0 days  0 hours  1 minutes 26.9 seconds.
 File lengths (MBytes):  RWF=    344 Int=      0 D2E=      0 Chk=     48 Scr=     16
 Normal termination of Gaussian 16 at Sun Jun 26 14:57:15 2022.
