 Entering Gaussian System, Link 0=/opt/software/Gaussian/g16-AVX2-C.01/g16/g16
 Input=charge-conf-123.com
 Output=charge-conf-123.log
 Initial command:
 /opt/software/Gaussian/g16-AVX2-C.01/g16/l1.exe "/mnt/gs18/scratch/users/kengmith/Gau-26604.inp" -scrdir="/mnt/gs18/scratch/users/kengmith/"
 Entering Link 1 = /opt/software/Gaussian/g16-AVX2-C.01/g16/l1.exe PID=     26625.
  
 Copyright (c) 1988-2019, Gaussian, Inc.  All Rights Reserved.
  
 This is part of the Gaussian(R) 16 program.  It is based on
 the Gaussian(R) 09 system (copyright 2009, Gaussian, Inc.),
 the Gaussian(R) 03 system (copyright 2003, Gaussian, Inc.),
 the Gaussian(R) 98 system (copyright 1998, Gaussian, Inc.),
 the Gaussian(R) 94 system (copyright 1995, Gaussian, Inc.),
 the Gaussian 92(TM) system (copyright 1992, Gaussian, Inc.),
 the Gaussian 90(TM) system (copyright 1990, Gaussian, Inc.),
 the Gaussian 88(TM) system (copyright 1988, Gaussian, Inc.),
 the Gaussian 86(TM) system (copyright 1986, Carnegie Mellon
 University), and the Gaussian 82(TM) system (copyright 1983,
 Carnegie Mellon University). Gaussian is a federally registered
 trademark of Gaussian, Inc.
  
 This software contains proprietary and confidential information,
 including trade secrets, belonging to Gaussian, Inc.
  
 This software is provided under written license and may be
 used, copied, transmitted, or stored only in accord with that
 written license.
  
 The following legend is applicable only to US Government
 contracts under FAR:
  
                    RESTRICTED RIGHTS LEGEND
  
 Use, reproduction and disclosure by the US Government is
 subject to restrictions as set forth in subparagraphs (a)
 and (c) of the Commercial Computer Software - Restricted
 Rights clause in FAR 52.227-19.
  
 Gaussian, Inc.
 340 Quinnipiac St., Bldg. 40, Wallingford CT 06492
  
  
 ---------------------------------------------------------------
 Warning -- This program may not be used in any manner that
 competes with the business of Gaussian, Inc. or will provide
 assistance to any competitor of Gaussian, Inc.  The licensee
 of this program is prohibited from giving any competitor of
 Gaussian, Inc. access to this program.  By using this program,
 the user acknowledges that Gaussian, Inc. is engaged in the
 business of creating and licensing software in the field of
 computational chemistry and represents and warrants to the
 licensee that it is not a competitor of Gaussian, Inc. and that
 it will not use this program in any manner prohibited above.
 ---------------------------------------------------------------
  

 Cite this work as:
 Gaussian 16, Revision C.01,
 M. J. Frisch, G. W. Trucks, H. B. Schlegel, G. E. Scuseria, 
 M. A. Robb, J. R. Cheeseman, G. Scalmani, V. Barone, 
 G. A. Petersson, H. Nakatsuji, X. Li, M. Caricato, A. V. Marenich, 
 J. Bloino, B. G. Janesko, R. Gomperts, B. Mennucci, H. P. Hratchian, 
 J. V. Ortiz, A. F. Izmaylov, J. L. Sonnenberg, D. Williams-Young, 
 F. Ding, F. Lipparini, F. Egidi, J. Goings, B. Peng, A. Petrone, 
 T. Henderson, D. Ranasinghe, V. G. Zakrzewski, J. Gao, N. Rega, 
 G. Zheng, W. Liang, M. Hada, M. Ehara, K. Toyota, R. Fukuda, 
 J. Hasegawa, M. Ishida, T. Nakajima, Y. Honda, O. Kitao, H. Nakai, 
 T. Vreven, K. Throssell, J. A. Montgomery, Jr., J. E. Peralta, 
 F. Ogliaro, M. J. Bearpark, J. J. Heyd, E. N. Brothers, K. N. Kudin, 
 V. N. Staroverov, T. A. Keith, R. Kobayashi, J. Normand, 
 K. Raghavachari, A. P. Rendell, J. C. Burant, S. S. Iyengar, 
 J. Tomasi, M. Cossi, J. M. Millam, M. Klene, C. Adamo, R. Cammi, 
 J. W. Ochterski, R. L. Martin, K. Morokuma, O. Farkas, 
 J. B. Foresman, and D. J. Fox, Gaussian, Inc., Wallingford CT, 2019.
 
 ******************************************
 Gaussian 16:  ES64L-G16RevC.01  3-Jul-2019
                26-Jun-2022 
 ******************************************
 %mem=8gb
 %nproc=4
 Will use up to    4 processors via shared memory.
 %chk=conf-123.chk
 ----------------------------------------------------------------------
 # B3LYP/6-31G* empiricaldispersion=gd3 guess=read geom=check nosymm in
 tegral(ultrafinegrid)
 ----------------------------------------------------------------------
 1/29=2,38=1,172=1/1;
 2/12=2,15=1,40=1/2;
 3/5=1,6=6,7=1,11=2,14=-4,25=1,30=1,74=-5,75=-5,116=-2,124=31/1,2,3;
 4/5=1/1;
 5/5=2,38=6/2;
 6/7=2,8=2,9=2,10=2,28=1/1;
 99/5=1,9=1/99;
 ------------------------------------------------------
 Candidate Structure: Conf:123 Charge calc in gas phase
 ------------------------------------------------------
 Structure from the checkpoint file:  "conf-123.chk"
 Charge =  1 Multiplicity = 1
 Redundant internal coordinates found in file.  (old form).
 N,0,-1.55078231,-2.0803566843,4.588385787
 H,0,-0.7933183927,-1.8937128342,3.9157640291
 H,0,-1.604962988,-1.2669829629,5.2343545644
 H,0,-1.3381077548,-2.9417472767,5.0994392872
 C,0,-2.904974787,-2.1205122822,3.9033998898
 H,0,-2.7698249176,-2.6409288116,2.9525537709
 C,0,-3.2265119563,-0.6169136382,3.7272001235
 C,0,-3.9384261371,-2.8518312844,4.7864612366
 H,0,-3.9884936972,-2.3102162559,5.741392985
 O,0,-2.9003259403,0.1376180816,4.6472740589
 C,0,-5.322083842,-2.7887396558,4.1182303512
 H,0,-5.3067166242,-3.2695874798,3.1320974551
 H,0,-5.6760951251,-1.7613387727,3.9964610526
 H,0,-6.052565238,-3.3212560698,4.7333813397
 C,0,-3.5324319328,-4.3126435026,5.0440699988
 H,0,-3.4324175612,-4.867754448,4.1040008285
 H,0,-2.5950385162,-4.4213703794,5.6069434672
 H,0,-4.3003425433,-4.808852212,5.6442773553
 N,0,-3.8090247666,-0.2814884568,2.5718191032
 H,0,-4.0175404172,-0.9951780757,1.8739198803
 C,0,-4.1153525607,1.0678883857,2.0889477304
 H,0,-5.0271155056,1.4342943136,2.5791853461
 C,0,-4.3939100429,0.86069437,0.5753143212
 C,0,-2.9639462379,2.0597553481,2.3283723112
 H,0,-3.2642052441,3.07577416,2.0541246305
 H,0,-2.6955234194,2.0730595492,3.3844368245
 H,0,-2.0824669467,1.781863635,1.7414603567
 O,0,-4.4856074008,-0.2763028202,0.1131388128
 N,0,-4.4608117606,1.9770976804,-0.2013835493
 H,0,-4.175253161,2.8496950117,0.229011066
 C,0,-4.1259678509,1.8857452184,-1.6435747591
 H,0,-4.6193707471,0.9947559919,-2.0352171631
 C,0,-2.5929048628,1.7623238341,-1.6577609802
 C,0,-4.6494334041,3.1147620113,-2.3882197928
 H,0,-4.2210471214,4.0270239792,-1.9444679125
 H,0,-4.3026937182,3.069254068,-3.4248071127
 O,0,-1.8896963751,2.7855973579,-1.6111170151
 O,0,-6.0588923656,3.1328327644,-2.4358497955
 H,0,-6.3964713158,3.2227333573,-1.5308102741
 N,0,-2.1179495698,0.5114522889,-1.5462574586
 H,0,-2.7927833955,-0.2406242985,-1.6078689968
 C,0,-0.8187639144,0.1716372391,-0.9586215859
 H,0,-0.5563588785,0.983550993,-0.2718644177
 C,0,0.2912711907,-0.0008734527,-2.0151780528
 C,0,-1.0085241797,-1.1637383538,-0.1941831736
 H,0,-1.1306221755,-1.9505907013,-0.9506363329
 H,0,-1.9613531576,-1.100189952,0.3518740954
 O,0,0.0128760675,-0.4519638347,-3.1324986629
 C,0,0.0981353267,-1.5654695319,0.7962965858
 H,0,1.0748210903,-1.5435968282,0.3071472996
 C,0,0.2030165832,-0.5850866771,1.9719418987
 H,0,-0.7797864877,-0.406104893,2.439267726
 H,0,0.6030867871,0.3834785814,1.6626099358
 H,0,0.9182879212,-0.9557159722,2.7176283509
 C,0,-0.1485352442,-2.999644154,1.2831549317
 H,0,-1.1354163482,-3.1038210252,1.7636153913
 H,0,-0.1301101207,-3.715719309,0.4549414163
 H,0,0.6235909748,-3.3084247821,1.997809152
 N,0,1.5204062477,0.3302319644,-1.5777463688
 H,0,1.6443093684,0.5253778797,-0.5623599016
 C,0,2.7455270045,-0.419289333,-1.9229261084
 H,0,2.4458156891,-1.3873090951,-2.3412054776
 C,0,3.4873713012,-0.6598622201,-0.5356678597
 C,0,3.6931708652,0.2615102857,-2.91508962
 H,0,4.5414258459,-0.4189174923,-3.0204468803
 H,0,4.109945271,1.1646003768,-2.4466214879
 O,0,4.5519321561,-1.2771628247,-0.6086569935
 C,0,3.0546393022,0.5869593603,-4.2856599159
 H,0,3.6371511041,0.1481596747,-5.1046499091
 H,0,2.0624022097,0.1256637175,-4.3404934435
 C,0,2.9580404467,2.0929280134,-4.5799367232
 H,0,2.3466895075,2.2963776573,-5.4647944497
 H,0,3.9518423356,2.5077977261,-4.7703136488
 N,0,2.4104734881,2.8899671004,-3.4673348615
 H,0,3.0633084083,3.1317116449,-2.7340330046
 N,0,0.1754177967,2.3913806447,-3.9054356639
 H,0,-0.7770287835,2.5383486454,-3.5922683087
 H,0,0.3519221303,1.4359195205,-4.2071133066
 N,0,0.726215416,3.7842988307,-2.142448852
 H,0,1.3952408645,4.3503229643,-1.6418389729
 H,0,-0.1838526698,3.6019840634,-1.7221988541
 C,0,1.1190128679,2.9933886827,-3.1532609245
 O,0,2.8797315052,-0.170272089,0.4746918452
 Recover connectivity data from disk.
                           ----------------------------
                           !    Current Parameters    !
                           ! (Angstroms and Degrees)  !
 --------------------------                            --------------------------
 ! Name  Definition              Value                                          !
 --------------------------------------------------------------------------------
 ! R1    R(1,2)                  1.0301                                         !
 ! R2    R(1,3)                  1.0401                                         !
 ! R3    R(1,4)                  1.0239                                         !
 ! R4    R(1,5)                  1.5181                                         !
 ! R5    R(5,6)                  1.0923                                         !
 ! R6    R(5,7)                  1.5477                                         !
 ! R7    R(5,8)                  1.5436                                         !
 ! R8    R(7,10)                 1.2338                                         !
 ! R9    R(7,19)                 1.3367                                         !
 ! R10   R(8,9)                  1.099                                          !
 ! R11   R(8,11)                 1.5379                                         !
 ! R12   R(8,15)                 1.5379                                         !
 ! R13   R(11,12)                1.0972                                         !
 ! R14   R(11,13)                1.0935                                         !
 ! R15   R(11,14)                1.0934                                         !
 ! R16   R(15,16)                1.0963                                         !
 ! R17   R(15,17)                1.0988                                         !
 ! R18   R(15,18)                1.0937                                         !
 ! R19   R(19,20)                1.0198                                         !
 ! R20   R(19,21)                1.4655                                         !
 ! R21   R(21,22)                1.0981                                         !
 ! R22   R(21,23)                1.5529                                         !
 ! R23   R(21,24)                1.5385                                         !
 ! R24   R(23,28)                1.2308                                         !
 ! R25   R(23,29)                1.3617                                         !
 ! R26   R(24,25)                1.0944                                         !
 ! R27   R(24,26)                1.0897                                         !
 ! R28   R(24,27)                1.0948                                         !
 ! R29   R(29,30)                1.014                                          !
 ! R30   R(29,31)                1.4834                                         !
 ! R31   R(31,32)                1.0912                                         !
 ! R32   R(31,33)                1.5381                                         !
 ! R33   R(31,34)                1.5294                                         !
 ! R34   R(33,37)                1.2425                                         !
 ! R35   R(33,40)                1.3426                                         !
 ! R36   R(34,35)                1.1012                                         !
 ! R37   R(34,36)                1.094                                          !
 ! R38   R(34,38)                1.4104                                         !
 ! R39   R(38,39)                0.9701                                         !
 ! R40   R(40,41)                1.0123                                         !
 ! R41   R(40,42)                1.4658                                         !
 ! R42   R(42,43)                1.0953                                         !
 ! R43   R(42,44)                1.5422                                         !
 ! R44   R(42,45)                1.5504                                         !
 ! R45   R(44,48)                1.2367                                         !
 ! R46   R(44,59)                1.346                                          !
 ! R47   R(45,46)                1.0983                                         !
 ! R48   R(45,47)                1.1                                            !
 ! R49   R(45,49)                1.5385                                         !
 ! R50   R(49,50)                1.0925                                         !
 ! R51   R(49,51)                1.5344                                         !
 ! R52   R(49,55)                1.5345                                         !
 ! R53   R(51,52)                1.1029                                         !
 ! R54   R(51,53)                1.0926                                         !
 ! R55   R(51,54)                1.0977                                         !
 ! R56   R(55,56)                1.1026                                         !
 ! R57   R(55,57)                1.095                                          !
 ! R58   R(55,58)                1.0965                                         !
 ! R59   R(59,60)                1.0414                                         !
 ! R60   R(59,61)                1.4771                                         !
 ! R61   R(61,62)                1.0963                                         !
 ! R62   R(61,63)                1.5914                                         !
 ! R63   R(61,64)                1.5316                                         !
 ! R64   R(63,67)                1.2328                                         !
 ! R65   R(63,83)                1.2766                                         !
 ! R66   R(64,65)                1.0925                                         !
 ! R67   R(64,66)                1.0994                                         !
 ! R68   R(64,68)                1.5466                                         !
 ! R69   R(68,69)                1.0966                                         !
 ! R70   R(68,70)                1.0956                                         !
 ! R71   R(68,71)                1.5375                                         !
 ! R72   R(71,72)                1.0946                                         !
 ! R73   R(71,73)                1.0936                                         !
 ! R74   R(71,74)                1.4741                                         !
 ! R75   R(74,75)                1.0111                                         !
 ! R76   R(74,82)                1.3331                                         !
 ! R77   R(76,77)                1.0133                                         !
 ! R78   R(76,78)                1.0174                                         !
 ! R79   R(76,82)                1.3485                                         !
 ! R80   R(79,80)                1.0093                                         !
 ! R81   R(79,81)                1.0189                                         !
 ! R82   R(79,82)                1.3422                                         !
 ! A1    A(2,1,3)              107.5876                                         !
 ! A2    A(2,1,4)              109.0031                                         !
 ! A3    A(2,1,5)              111.4764                                         !
 ! A4    A(3,1,4)              111.022                                          !
 ! A5    A(3,1,5)              104.741                                          !
 ! A6    A(4,1,5)              112.8447                                         !
 ! A7    A(1,5,6)              107.1575                                         !
 ! A8    A(1,5,7)              102.1808                                         !
 ! A9    A(1,5,8)              110.5868                                         !
 ! A10   A(6,5,7)              112.9211                                         !
 ! A11   A(6,5,8)              110.7994                                         !
 ! A12   A(7,5,8)              112.7262                                         !
 ! A13   A(5,7,10)             117.021                                          !
 ! A14   A(5,7,19)             115.6415                                         !
 ! A15   A(10,7,19)            127.3244                                         !
 ! A16   A(5,8,9)              107.104                                          !
 ! A17   A(5,8,11)             109.5337                                         !
 ! A18   A(5,8,15)             111.6608                                         !
 ! A19   A(9,8,11)             108.4428                                         !
 ! A20   A(9,8,15)             109.5486                                         !
 ! A21   A(11,8,15)            110.4429                                         !
 ! A22   A(8,11,12)            111.0967                                         !
 ! A23   A(8,11,13)            112.2233                                         !
 ! A24   A(8,11,14)            109.6723                                         !
 ! A25   A(12,11,13)           108.4336                                         !
 ! A26   A(12,11,14)           107.551                                          !
 ! A27   A(13,11,14)           107.695                                          !
 ! A28   A(8,15,16)            111.187                                          !
 ! A29   A(8,15,17)            113.8918                                         !
 ! A30   A(8,15,18)            109.7263                                         !
 ! A31   A(16,15,17)           108.1394                                         !
 ! A32   A(16,15,18)           107.7525                                         !
 ! A33   A(17,15,18)           105.8412                                         !
 ! A34   A(7,19,20)            120.3339                                         !
 ! A35   A(7,19,21)            127.3676                                         !
 ! A36   A(20,19,21)           112.096                                          !
 ! A37   A(19,21,22)           109.4917                                         !
 ! A38   A(19,21,23)           103.6383                                         !
 ! A39   A(19,21,24)           112.6997                                         !
 ! A40   A(22,21,23)           109.3122                                         !
 ! A41   A(22,21,24)           109.6823                                         !
 ! A42   A(23,21,24)           111.8361                                         !
 ! A43   A(21,23,28)           120.1746                                         !
 ! A44   A(21,23,29)           117.0904                                         !
 ! A45   A(28,23,29)           122.6541                                         !
 ! A46   A(21,24,25)           110.7452                                         !
 ! A47   A(21,24,26)           110.0622                                         !
 ! A48   A(21,24,27)           110.8237                                         !
 ! A49   A(25,24,26)           107.4038                                         !
 ! A50   A(25,24,27)           108.7962                                         !
 ! A51   A(26,24,27)           108.9225                                         !
 ! A52   A(23,29,30)           116.7183                                         !
 ! A53   A(23,29,31)           119.5374                                         !
 ! A54   A(30,29,31)           113.7091                                         !
 ! A55   A(29,31,32)           107.2875                                         !
 ! A56   A(29,31,33)           103.8218                                         !
 ! A57   A(29,31,34)           110.2811                                         !
 ! A58   A(32,31,33)           112.449                                          !
 ! A59   A(32,31,34)           109.0656                                         !
 ! A60   A(33,31,34)           113.65                                           !
 ! A61   A(31,33,37)           119.8472                                         !
 ! A62   A(31,33,40)           115.2509                                         !
 ! A63   A(37,33,40)           124.3294                                         !
 ! A64   A(31,34,35)           109.6559                                         !
 ! A65   A(31,34,36)           108.6287                                         !
 ! A66   A(31,34,38)           111.641                                          !
 ! A67   A(35,34,36)           107.0369                                         !
 ! A68   A(35,34,38)           113.0638                                         !
 ! A69   A(36,34,38)           106.5754                                         !
 ! A70   A(34,38,39)           108.5076                                         !
 ! A71   A(33,40,41)           116.8251                                         !
 ! A72   A(33,40,42)           124.2496                                         !
 ! A73   A(41,40,42)           116.2954                                         !
 ! A74   A(40,42,43)           106.9687                                         !
 ! A75   A(40,42,44)           112.9071                                         !
 ! A76   A(40,42,45)           106.7898                                         !
 ! A77   A(43,42,44)           109.8796                                         !
 ! A78   A(43,42,45)           111.017                                          !
 ! A79   A(44,42,45)           109.2422                                         !
 ! A80   A(42,44,48)           119.8516                                         !
 ! A81   A(42,44,59)           114.0243                                         !
 ! A82   A(48,44,59)           126.0796                                         !
 ! A83   A(42,45,46)           106.9231                                         !
 ! A84   A(42,45,47)           107.5188                                         !
 ! A85   A(42,45,49)           117.0194                                         !
 ! A86   A(46,45,47)           106.6776                                         !
 ! A87   A(46,45,49)           109.6513                                         !
 ! A88   A(47,45,49)           108.5749                                         !
 ! A89   A(45,49,50)           110.4601                                         !
 ! A90   A(45,49,51)           112.0611                                         !
 ! A91   A(45,49,55)           109.4306                                         !
 ! A92   A(50,49,51)           105.6134                                         !
 ! A93   A(50,49,55)           107.7256                                         !
 ! A94   A(51,49,55)           111.4113                                         !
 ! A95   A(49,51,52)           111.5583                                         !
 ! A96   A(49,51,53)           111.9936                                         !
 ! A97   A(49,51,54)           110.4439                                         !
 ! A98   A(52,51,53)           107.6012                                         !
 ! A99   A(52,51,54)           110.3406                                         !
 ! A100  A(53,51,54)           104.6565                                         !
 ! A101  A(49,55,56)           111.7433                                         !
 ! A102  A(49,55,57)           111.6238                                         !
 ! A103  A(49,55,58)           110.9032                                         !
 ! A104  A(56,55,57)           106.4315                                         !
 ! A105  A(56,55,58)           108.6434                                         !
 ! A106  A(57,55,58)           107.2754                                         !
 ! A107  A(44,59,60)           118.1397                                         !
 ! A108  A(44,59,61)           123.8223                                         !
 ! A109  A(60,59,61)           102.9594                                         !
 ! A110  A(59,61,62)           108.0874                                         !
 ! A111  A(59,61,63)           105.0478                                         !
 ! A112  A(59,61,64)           116.0398                                         !
 ! A113  A(62,61,63)           109.0594                                         !
 ! A114  A(62,61,64)           108.3294                                         !
 ! A115  A(63,61,64)           110.0872                                         !
 ! A116  A(61,63,67)           115.254                                          !
 ! A117  A(61,63,83)           114.2077                                         !
 ! A118  A(67,63,83)           130.5368                                         !
 ! A119  A(61,64,65)           105.4274                                         !
 ! A120  A(61,64,66)           108.8831                                         !
 ! A121  A(61,64,68)           114.3388                                         !
 ! A122  A(65,64,66)           104.9719                                         !
 ! A123  A(65,64,68)           111.4777                                         !
 ! A124  A(66,64,68)           111.1772                                         !
 ! A125  A(64,68,69)           110.9962                                         !
 ! A126  A(64,68,70)           109.2478                                         !
 ! A127  A(64,68,71)           113.682                                          !
 ! A128  A(69,68,70)           105.9749                                         !
 ! A129  A(69,68,71)           106.4012                                         !
 ! A130  A(70,68,71)           110.2387                                         !
 ! A131  A(68,71,72)           111.8315                                         !
 ! A132  A(68,71,73)           110.353                                          !
 ! A133  A(68,71,74)           114.1097                                         !
 ! A134  A(72,71,73)           107.2361                                         !
 ! A135  A(72,71,74)           107.5888                                         !
 ! A136  A(73,71,74)           105.2973                                         !
 ! A137  A(71,74,75)           115.9013                                         !
 ! A138  A(71,74,82)           125.4233                                         !
 ! A139  A(75,74,82)           115.8534                                         !
 ! A140  A(77,76,78)           113.0114                                         !
 ! A141  A(77,76,82)           114.8696                                         !
 ! A142  A(78,76,82)           117.5966                                         !
 ! A143  A(80,79,81)           119.2009                                         !
 ! A144  A(80,79,82)           120.6657                                         !
 ! A145  A(81,79,82)           117.8128                                         !
 ! A146  A(74,82,76)           120.7846                                         !
 ! A147  A(74,82,79)           120.4401                                         !
 ! A148  A(76,82,79)           118.5765                                         !
 ! D1    D(2,1,5,6)             40.006                                          !
 ! D2    D(2,1,5,7)            -78.9171                                         !
 ! D3    D(2,1,5,8)            160.8667                                         !
 ! D4    D(3,1,5,6)            156.0637                                         !
 ! D5    D(3,1,5,7)             37.1406                                         !
 ! D6    D(3,1,5,8)            -83.0756                                         !
 ! D7    D(4,1,5,6)            -83.049                                          !
 ! D8    D(4,1,5,7)            158.028                                          !
 ! D9    D(4,1,5,8)             37.8117                                         !
 ! D10   D(1,5,7,10)           -38.1965                                         !
 ! D11   D(1,5,7,19)           140.5844                                         !
 ! D12   D(6,5,7,10)          -152.9642                                         !
 ! D13   D(6,5,7,19)            25.8166                                         !
 ! D14   D(8,5,7,10)            80.516                                          !
 ! D15   D(8,5,7,19)          -100.7032                                         !
 ! D16   D(1,5,8,9)             58.4712                                         !
 ! D17   D(1,5,8,11)           175.883                                          !
 ! D18   D(1,5,8,15)           -61.4561                                         !
 ! D19   D(6,5,8,9)            177.1415                                         !
 ! D20   D(6,5,8,11)           -65.4467                                         !
 ! D21   D(6,5,8,15)            57.2142                                         !
 ! D22   D(7,5,8,9)            -55.2124                                         !
 ! D23   D(7,5,8,11)            62.1994                                         !
 ! D24   D(7,5,8,15)          -175.1397                                         !
 ! D25   D(5,7,19,20)            0.2025                                         !
 ! D26   D(5,7,19,21)         -174.1983                                         !
 ! D27   D(10,7,19,20)         178.8367                                         !
 ! D28   D(10,7,19,21)           4.4359                                         !
 ! D29   D(5,8,11,12)           60.2538                                         !
 ! D30   D(5,8,11,13)          -61.33                                           !
 ! D31   D(5,8,11,14)          179.0163                                         !
 ! D32   D(9,8,11,12)          176.823                                          !
 ! D33   D(9,8,11,13)           55.2392                                         !
 ! D34   D(9,8,11,14)          -64.4145                                         !
 ! D35   D(15,8,11,12)         -63.1284                                         !
 ! D36   D(15,8,11,13)         175.2879                                         !
 ! D37   D(15,8,11,14)          55.6341                                         !
 ! D38   D(5,8,15,16)          -59.0904                                         !
 ! D39   D(5,8,15,17)           63.3818                                         !
 ! D40   D(5,8,15,18)         -178.1936                                         !
 ! D41   D(9,8,15,16)         -177.569                                          !
 ! D42   D(9,8,15,17)          -55.0967                                         !
 ! D43   D(9,8,15,18)           63.3279                                         !
 ! D44   D(11,8,15,16)          63.0493                                         !
 ! D45   D(11,8,15,17)        -174.4784                                         !
 ! D46   D(11,8,15,18)         -56.0538                                         !
 ! D47   D(7,19,21,22)         -79.0097                                         !
 ! D48   D(7,19,21,23)         164.4466                                         !
 ! D49   D(7,19,21,24)          43.3572                                         !
 ! D50   D(20,19,21,22)        106.205                                          !
 ! D51   D(20,19,21,23)        -10.3387                                         !
 ! D52   D(20,19,21,24)       -131.4281                                         !
 ! D53   D(19,21,23,28)          8.9884                                         !
 ! D54   D(19,21,23,29)       -167.8267                                         !
 ! D55   D(22,21,23,28)       -107.6815                                         !
 ! D56   D(22,21,23,29)         75.5033                                         !
 ! D57   D(24,21,23,28)        130.6576                                         !
 ! D58   D(24,21,23,29)        -46.1575                                         !
 ! D59   D(19,21,24,25)       -174.0204                                         !
 ! D60   D(19,21,24,26)        -55.4113                                         !
 ! D61   D(19,21,24,27)         65.1371                                         !
 ! D62   D(22,21,24,25)        -51.7607                                         !
 ! D63   D(22,21,24,26)         66.8483                                         !
 ! D64   D(22,21,24,27)       -172.6033                                         !
 ! D65   D(23,21,24,25)         69.6868                                         !
 ! D66   D(23,21,24,26)       -171.7042                                         !
 ! D67   D(23,21,24,27)        -51.1558                                         !
 ! D68   D(21,23,29,30)          9.7329                                         !
 ! D69   D(21,23,29,31)        153.1138                                         !
 ! D70   D(28,23,29,30)       -166.9968                                         !
 ! D71   D(28,23,29,31)        -23.6159                                         !
 ! D72   D(23,29,31,32)         44.843                                          !
 ! D73   D(23,29,31,33)        -74.394                                          !
 ! D74   D(23,29,31,34)        163.5105                                         !
 ! D75   D(30,29,31,32)       -170.7426                                         !
 ! D76   D(30,29,31,33)         70.0204                                         !
 ! D77   D(30,29,31,34)        -52.0751                                         !
 ! D78   D(29,31,33,37)        -84.6616                                         !
 ! D79   D(29,31,33,40)         87.0351                                         !
 ! D80   D(32,31,33,37)        159.6947                                         !
 ! D81   D(32,31,33,40)        -28.6086                                         !
 ! D82   D(34,31,33,37)         35.1688                                         !
 ! D83   D(34,31,33,40)       -153.1345                                         !
 ! D84   D(29,31,34,35)         57.7333                                         !
 ! D85   D(29,31,34,36)        174.3951                                         !
 ! D86   D(29,31,34,38)        -68.371                                          !
 ! D87   D(32,31,34,35)        175.3084                                         !
 ! D88   D(32,31,34,36)        -68.0298                                         !
 ! D89   D(32,31,34,38)         49.204                                          !
 ! D90   D(33,31,34,35)        -58.3627                                         !
 ! D91   D(33,31,34,36)         58.2991                                         !
 ! D92   D(33,31,34,38)        175.5329                                         !
 ! D93   D(31,33,40,41)          9.1881                                         !
 ! D94   D(31,33,40,42)       -151.6975                                         !
 ! D95   D(37,33,40,41)       -179.5361                                         !
 ! D96   D(37,33,40,42)         19.5783                                         !
 ! D97   D(31,34,38,39)         64.6258                                         !
 ! D98   D(35,34,38,39)        -59.5859                                         !
 ! D99   D(36,34,38,39)       -176.9073                                         !
 ! D100  D(33,40,42,43)         24.7416                                         !
 ! D101  D(33,40,42,44)        -96.2492                                         !
 ! D102  D(33,40,42,45)        143.6711                                         !
 ! D103  D(41,40,42,43)       -136.2355                                         !
 ! D104  D(41,40,42,44)        102.7737                                         !
 ! D105  D(41,40,42,45)        -17.3061                                         !
 ! D106  D(40,42,44,48)        -32.8849                                         !
 ! D107  D(40,42,44,59)        149.3946                                         !
 ! D108  D(43,42,44,48)       -152.2064                                         !
 ! D109  D(43,42,44,59)         30.0731                                         !
 ! D110  D(45,42,44,48)         85.7776                                         !
 ! D111  D(45,42,44,59)        -91.9429                                         !
 ! D112  D(40,42,45,46)         71.3668                                         !
 ! D113  D(40,42,45,47)        -42.8763                                         !
 ! D114  D(40,42,45,49)       -165.2836                                         !
 ! D115  D(43,42,45,46)       -172.37                                           !
 ! D116  D(43,42,45,47)         73.3868                                         !
 ! D117  D(43,42,45,49)        -49.0205                                         !
 ! D118  D(44,42,45,46)        -51.0414                                         !
 ! D119  D(44,42,45,47)       -165.2846                                         !
 ! D120  D(44,42,45,49)         72.3081                                         !
 ! D121  D(42,44,59,60)          9.0652                                         !
 ! D122  D(42,44,59,61)        140.7072                                         !
 ! D123  D(48,44,59,60)       -168.4885                                         !
 ! D124  D(48,44,59,61)        -36.8464                                         !
 ! D125  D(42,45,49,50)        -52.6632                                         !
 ! D126  D(42,45,49,51)         64.7989                                         !
 ! D127  D(42,45,49,55)       -171.1003                                         !
 ! D128  D(46,45,49,50)         69.2788                                         !
 ! D129  D(46,45,49,51)       -173.2591                                         !
 ! D130  D(46,45,49,55)        -49.1583                                         !
 ! D131  D(47,45,49,50)       -174.5226                                         !
 ! D132  D(47,45,49,51)        -57.0605                                         !
 ! D133  D(47,45,49,55)         67.0402                                         !
 ! D134  D(45,49,51,52)         50.4734                                         !
 ! D135  D(45,49,51,53)        -70.2056                                         !
 ! D136  D(45,49,51,54)        173.5765                                         !
 ! D137  D(50,49,51,52)        170.7965                                         !
 ! D138  D(50,49,51,53)         50.1174                                         !
 ! D139  D(50,49,51,54)        -66.1005                                         !
 ! D140  D(55,49,51,52)        -72.515                                          !
 ! D141  D(55,49,51,53)        166.806                                          !
 ! D142  D(55,49,51,54)         50.5881                                         !
 ! D143  D(45,49,55,56)        -58.1798                                         !
 ! D144  D(45,49,55,57)         60.8777                                         !
 ! D145  D(45,49,55,58)       -179.5612                                         !
 ! D146  D(50,49,55,56)       -178.3051                                         !
 ! D147  D(50,49,55,57)        -59.2476                                         !
 ! D148  D(50,49,55,58)         60.3135                                         !
 ! D149  D(51,49,55,56)         66.3009                                         !
 ! D150  D(51,49,55,57)       -174.6416                                         !
 ! D151  D(51,49,55,58)        -55.0806                                         !
 ! D152  D(44,59,61,62)        -14.7575                                         !
 ! D153  D(44,59,61,63)       -131.0867                                         !
 ! D154  D(44,59,61,64)        107.0981                                         !
 ! D155  D(60,59,61,62)        122.6949                                         !
 ! D156  D(60,59,61,63)          6.3658                                         !
 ! D157  D(60,59,61,64)       -115.4495                                         !
 ! D158  D(59,61,63,67)       -179.8376                                         !
 ! D159  D(59,61,63,83)         -0.2424                                         !
 ! D160  D(62,61,63,67)         64.503                                          !
 ! D161  D(62,61,63,83)       -115.9017                                         !
 ! D162  D(64,61,63,67)        -54.2223                                         !
 ! D163  D(64,61,63,83)        125.373                                          !
 ! D164  D(59,61,64,65)        178.3154                                         !
 ! D165  D(59,61,64,66)         66.128                                          !
 ! D166  D(59,61,64,68)        -58.8851                                         !
 ! D167  D(62,61,64,65)        -59.9573                                         !
 ! D168  D(62,61,64,66)       -172.1448                                         !
 ! D169  D(62,61,64,68)         62.8421                                         !
 ! D170  D(63,61,64,65)         59.2146                                         !
 ! D171  D(63,61,64,66)        -52.9729                                         !
 ! D172  D(63,61,64,68)       -177.986                                          !
 ! D173  D(61,64,68,69)       -124.9177                                         !
 ! D174  D(61,64,68,70)         -8.4142                                         !
 ! D175  D(61,64,68,71)        115.1762                                         !
 ! D176  D(65,64,68,69)         -5.4636                                         !
 ! D177  D(65,64,68,70)        111.0399                                         !
 ! D178  D(65,64,68,71)       -125.3696                                         !
 ! D179  D(66,64,68,69)        111.2906                                         !
 ! D180  D(66,64,68,70)       -132.2059                                         !
 ! D181  D(66,64,68,71)         -8.6154                                         !
 ! D182  D(64,68,71,72)       -169.8083                                         !
 ! D183  D(64,68,71,73)         70.9123                                         !
 ! D184  D(64,68,71,74)        -47.4017                                         !
 ! D185  D(69,68,71,72)         67.7158                                         !
 ! D186  D(69,68,71,73)        -51.5636                                         !
 ! D187  D(69,68,71,74)       -169.8777                                         !
 ! D188  D(70,68,71,72)        -46.7588                                         !
 ! D189  D(70,68,71,73)       -166.0382                                         !
 ! D190  D(70,68,71,74)         75.6477                                         !
 ! D191  D(68,71,74,75)         81.3402                                         !
 ! D192  D(68,71,74,82)        -78.7584                                         !
 ! D193  D(72,71,74,75)       -153.9607                                         !
 ! D194  D(72,71,74,82)         45.9407                                         !
 ! D195  D(73,71,74,75)        -39.8209                                         !
 ! D196  D(73,71,74,82)        160.0806                                         !
 ! D197  D(71,74,82,76)         -3.0218                                         !
 ! D198  D(71,74,82,79)       -177.8252                                         !
 ! D199  D(75,74,82,76)       -163.1288                                         !
 ! D200  D(75,74,82,79)         22.0679                                         !
 ! D201  D(77,76,82,74)       -179.2626                                         !
 ! D202  D(77,76,82,79)         -4.3642                                         !
 ! D203  D(78,76,82,74)         43.9782                                         !
 ! D204  D(78,76,82,79)       -141.1234                                         !
 ! D205  D(80,79,82,74)          3.5027                                         !
 ! D206  D(80,79,82,76)       -171.4139                                         !
 ! D207  D(81,79,82,74)       -159.0638                                         !
 ! D208  D(81,79,82,76)         26.0196                                         !
 --------------------------------------------------------------------------------
 Symmetry turned off by external request.
 Stoichiometry    C23H45N8O7(1+)
 Framework group  C1[X(C23H45N8O7)]
 Deg. of freedom   243
 Full point group                 C1      NOp   1
                          Input orientation:                          
 ---------------------------------------------------------------------
 Center     Atomic      Atomic             Coordinates (Angstroms)
 Number     Number       Type             X           Y           Z
 ---------------------------------------------------------------------
      1          7           0       -1.550782   -2.080357    4.588386
      2          1           0       -0.793318   -1.893713    3.915764
      3          1           0       -1.604963   -1.266983    5.234355
      4          1           0       -1.338108   -2.941747    5.099439
      5          6           0       -2.904975   -2.120512    3.903400
      6          1           0       -2.769825   -2.640929    2.952554
      7          6           0       -3.226512   -0.616914    3.727200
      8          6           0       -3.938426   -2.851831    4.786461
      9          1           0       -3.988494   -2.310216    5.741393
     10          8           0       -2.900326    0.137618    4.647274
     11          6           0       -5.322084   -2.788740    4.118230
     12          1           0       -5.306717   -3.269587    3.132097
     13          1           0       -5.676095   -1.761339    3.996461
     14          1           0       -6.052565   -3.321256    4.733381
     15          6           0       -3.532432   -4.312644    5.044070
     16          1           0       -3.432418   -4.867754    4.104001
     17          1           0       -2.595039   -4.421370    5.606943
     18          1           0       -4.300343   -4.808852    5.644277
     19          7           0       -3.809025   -0.281488    2.571819
     20          1           0       -4.017540   -0.995178    1.873920
     21          6           0       -4.115353    1.067888    2.088948
     22          1           0       -5.027116    1.434294    2.579185
     23          6           0       -4.393910    0.860694    0.575314
     24          6           0       -2.963946    2.059755    2.328372
     25          1           0       -3.264205    3.075774    2.054125
     26          1           0       -2.695523    2.073060    3.384437
     27          1           0       -2.082467    1.781864    1.741460
     28          8           0       -4.485607   -0.276303    0.113139
     29          7           0       -4.460812    1.977098   -0.201384
     30          1           0       -4.175253    2.849695    0.229011
     31          6           0       -4.125968    1.885745   -1.643575
     32          1           0       -4.619371    0.994756   -2.035217
     33          6           0       -2.592905    1.762324   -1.657761
     34          6           0       -4.649433    3.114762   -2.388220
     35          1           0       -4.221047    4.027024   -1.944468
     36          1           0       -4.302694    3.069254   -3.424807
     37          8           0       -1.889696    2.785597   -1.611117
     38          8           0       -6.058892    3.132833   -2.435850
     39          1           0       -6.396471    3.222733   -1.530810
     40          7           0       -2.117950    0.511452   -1.546257
     41          1           0       -2.792783   -0.240624   -1.607869
     42          6           0       -0.818764    0.171637   -0.958622
     43          1           0       -0.556359    0.983551   -0.271864
     44          6           0        0.291271   -0.000873   -2.015178
     45          6           0       -1.008524   -1.163738   -0.194183
     46          1           0       -1.130622   -1.950591   -0.950636
     47          1           0       -1.961353   -1.100190    0.351874
     48          8           0        0.012876   -0.451964   -3.132499
     49          6           0        0.098135   -1.565470    0.796297
     50          1           0        1.074821   -1.543597    0.307147
     51          6           0        0.203017   -0.585087    1.971942
     52          1           0       -0.779786   -0.406105    2.439268
     53          1           0        0.603087    0.383479    1.662610
     54          1           0        0.918288   -0.955716    2.717628
     55          6           0       -0.148535   -2.999644    1.283155
     56          1           0       -1.135416   -3.103821    1.763615
     57          1           0       -0.130110   -3.715719    0.454941
     58          1           0        0.623591   -3.308425    1.997809
     59          7           0        1.520406    0.330232   -1.577746
     60          1           0        1.644309    0.525378   -0.562360
     61          6           0        2.745527   -0.419289   -1.922926
     62          1           0        2.445816   -1.387309   -2.341205
     63          6           0        3.487371   -0.659862   -0.535668
     64          6           0        3.693171    0.261510   -2.915090
     65          1           0        4.541426   -0.418917   -3.020447
     66          1           0        4.109945    1.164600   -2.446621
     67          8           0        4.551932   -1.277163   -0.608657
     68          6           0        3.054639    0.586959   -4.285660
     69          1           0        3.637151    0.148160   -5.104650
     70          1           0        2.062402    0.125664   -4.340493
     71          6           0        2.958040    2.092928   -4.579937
     72          1           0        2.346690    2.296378   -5.464794
     73          1           0        3.951842    2.507798   -4.770314
     74          7           0        2.410473    2.889967   -3.467335
     75          1           0        3.063308    3.131712   -2.734033
     76          7           0        0.175418    2.391381   -3.905436
     77          1           0       -0.777029    2.538349   -3.592268
     78          1           0        0.351922    1.435920   -4.207113
     79          7           0        0.726215    3.784299   -2.142449
     80          1           0        1.395241    4.350323   -1.641839
     81          1           0       -0.183853    3.601984   -1.722199
     82          6           0        1.119013    2.993389   -3.153261
     83          8           0        2.879732   -0.170272    0.474692
 ---------------------------------------------------------------------
 Rotational constants (GHZ):           0.1238062           0.0656715           0.0478529
 Standard basis: 6-31G(d) (6D, 7F)
   660 basis functions,  1244 primitive gaussians,   660 cartesian basis functions
   147 alpha electrons      147 beta electrons
       nuclear repulsion energy      4932.0674709639 Hartrees.
 NAtoms=   83 NActive=   83 NUniq=   83 SFac= 1.00D+00 NAtFMM=   60 NAOKFM=T Big=T
 Integral buffers will be    131072 words long.
 Raffenetti 2 integral format.
 Two-electron integral symmetry is turned off.
 Nuclear repulsion after empirical dispersion term =     4931.9431949615 Hartrees.
 One-electron integrals computed using PRISM.
 NBasis=   660 RedAO= T EigKep=  1.76D-03  NBF=   660
 NBsUse=   660 1.00D-06 EigRej= -1.00D+00 NBFU=   660
 Initial guess from the checkpoint file:  "conf-123.chk"
 B after Tr=     0.000000    0.000000    0.000000
         Rot=    1.000000    0.000000    0.000000    0.000000 Ang=   0.00 deg.
 Requested convergence on RMS density matrix=1.00D-08 within 128 cycles.
 Requested convergence on MAX density matrix=1.00D-06.
 Requested convergence on             energy=1.00D-06.
 No special actions if energy rises.
 SCF Done:  E(RB3LYP) =  -1868.08270929     A.U. after    1 cycles
            NFock=  1  Conv=0.16D-08     -V/T= 2.0093

 **********************************************************************

            Population analysis using the SCF Density.

 **********************************************************************

 Alpha  occ. eigenvalues --  -19.27267 -19.26510 -19.24800 -19.24344 -19.19505
 Alpha  occ. eigenvalues --  -19.11694 -19.10110 -14.60984 -14.51009 -14.50068
 Alpha  occ. eigenvalues --  -14.48322 -14.48040 -14.47629 -14.46900 -14.41236
 Alpha  occ. eigenvalues --  -10.44538 -10.44095 -10.43273 -10.41432 -10.41029
 Alpha  occ. eigenvalues --  -10.37997 -10.36308 -10.35296 -10.35006 -10.34053
 Alpha  occ. eigenvalues --  -10.33633 -10.31875 -10.31747 -10.31118 -10.30796
 Alpha  occ. eigenvalues --  -10.29255 -10.29137 -10.28219 -10.28049 -10.27846
 Alpha  occ. eigenvalues --  -10.26313 -10.25663 -10.24084  -1.19874  -1.18451
 Alpha  occ. eigenvalues --   -1.16124  -1.14962  -1.12816  -1.12051  -1.10892
 Alpha  occ. eigenvalues --   -1.07631  -1.06176  -1.04456  -1.04365  -1.02338
 Alpha  occ. eigenvalues --   -1.00555  -0.98464  -0.96171  -0.95476  -0.92009
 Alpha  occ. eigenvalues --   -0.91333  -0.87969  -0.86708  -0.86099  -0.84708
 Alpha  occ. eigenvalues --   -0.82254  -0.80749  -0.80141  -0.78896  -0.76800
 Alpha  occ. eigenvalues --   -0.76049  -0.75443  -0.74796  -0.74711  -0.73691
 Alpha  occ. eigenvalues --   -0.72280  -0.71067  -0.70665  -0.70435  -0.70085
 Alpha  occ. eigenvalues --   -0.68276  -0.67800  -0.66271  -0.65555  -0.64853
 Alpha  occ. eigenvalues --   -0.64002  -0.63081  -0.62679  -0.61893  -0.61679
 Alpha  occ. eigenvalues --   -0.61204  -0.60832  -0.60350  -0.59391  -0.58872
 Alpha  occ. eigenvalues --   -0.58553  -0.58075  -0.57325  -0.56776  -0.56337
 Alpha  occ. eigenvalues --   -0.55411  -0.55178  -0.54889  -0.54551  -0.53659
 Alpha  occ. eigenvalues --   -0.53545  -0.53303  -0.52931  -0.52516  -0.51979
 Alpha  occ. eigenvalues --   -0.51910  -0.51679  -0.51480  -0.51084  -0.51002
 Alpha  occ. eigenvalues --   -0.50622  -0.50372  -0.50055  -0.49942  -0.49621
 Alpha  occ. eigenvalues --   -0.48656  -0.48479  -0.48344  -0.48133  -0.47712
 Alpha  occ. eigenvalues --   -0.46480  -0.46257  -0.45299  -0.44481  -0.43544
 Alpha  occ. eigenvalues --   -0.43257  -0.43146  -0.42616  -0.42089  -0.41493
 Alpha  occ. eigenvalues --   -0.41276  -0.41148  -0.40618  -0.40365  -0.40108
 Alpha  occ. eigenvalues --   -0.39661  -0.39299  -0.38553  -0.38337  -0.37910
 Alpha  occ. eigenvalues --   -0.36878  -0.36140  -0.33580  -0.32580  -0.26651
 Alpha  occ. eigenvalues --   -0.26532  -0.24117
 Alpha virt. eigenvalues --   -0.14112  -0.13168  -0.10765  -0.10045  -0.09145
 Alpha virt. eigenvalues --   -0.07438  -0.06118  -0.05845  -0.05189  -0.03926
 Alpha virt. eigenvalues --   -0.03500  -0.02726  -0.02306  -0.01507  -0.01238
 Alpha virt. eigenvalues --   -0.01035  -0.00158   0.00137   0.00523   0.00778
 Alpha virt. eigenvalues --    0.01785   0.01977   0.02395   0.02477   0.02719
 Alpha virt. eigenvalues --    0.02824   0.03251   0.03694   0.03724   0.04517
 Alpha virt. eigenvalues --    0.04655   0.05133   0.05204   0.05531   0.05842
 Alpha virt. eigenvalues --    0.06177   0.06409   0.06738   0.07093   0.07346
 Alpha virt. eigenvalues --    0.07684   0.08021   0.08327   0.08730   0.09049
 Alpha virt. eigenvalues --    0.09314   0.09448   0.09931   0.10191   0.10293
 Alpha virt. eigenvalues --    0.10801   0.11071   0.11524   0.11679   0.11943
 Alpha virt. eigenvalues --    0.12277   0.12729   0.13311   0.13497   0.14041
 Alpha virt. eigenvalues --    0.14451   0.14793   0.14796   0.15563   0.15823
 Alpha virt. eigenvalues --    0.16292   0.17240   0.17419   0.17897   0.18465
 Alpha virt. eigenvalues --    0.19223   0.19503   0.20297   0.21302   0.21453
 Alpha virt. eigenvalues --    0.22427   0.23750   0.24912   0.26595   0.27569
 Alpha virt. eigenvalues --    0.28132   0.28887   0.29507   0.30508   0.32398
 Alpha virt. eigenvalues --    0.33209   0.34614   0.35136   0.36010   0.36610
 Alpha virt. eigenvalues --    0.36832   0.37966   0.38125   0.39180   0.39703
 Alpha virt. eigenvalues --    0.40524   0.40959   0.41342   0.41396   0.42425
 Alpha virt. eigenvalues --    0.42759   0.43260   0.43659   0.43905   0.45138
 Alpha virt. eigenvalues --    0.45436   0.45852   0.46287   0.46759   0.47298
 Alpha virt. eigenvalues --    0.47792   0.48572   0.48629   0.49462   0.49910
 Alpha virt. eigenvalues --    0.50207   0.50715   0.50891   0.51323   0.51722
 Alpha virt. eigenvalues --    0.52658   0.53009   0.53707   0.53818   0.54068
 Alpha virt. eigenvalues --    0.54395   0.54623   0.54896   0.55947   0.56446
 Alpha virt. eigenvalues --    0.57178   0.57655   0.57810   0.58171   0.58547
 Alpha virt. eigenvalues --    0.59080   0.59673   0.60164   0.61020   0.61395
 Alpha virt. eigenvalues --    0.61815   0.62060   0.62373   0.63464   0.63791
 Alpha virt. eigenvalues --    0.64439   0.64760   0.65152   0.65211   0.65830
 Alpha virt. eigenvalues --    0.66251   0.66659   0.66831   0.67304   0.67951
 Alpha virt. eigenvalues --    0.68201   0.68953   0.69231   0.69964   0.70552
 Alpha virt. eigenvalues --    0.71004   0.71333   0.71773   0.72332   0.72875
 Alpha virt. eigenvalues --    0.73413   0.73765   0.74046   0.74843   0.74949
 Alpha virt. eigenvalues --    0.75266   0.75509   0.75727   0.76338   0.76586
 Alpha virt. eigenvalues --    0.76790   0.77126   0.77554   0.77764   0.78090
 Alpha virt. eigenvalues --    0.78641   0.78747   0.79407   0.79886   0.80360
 Alpha virt. eigenvalues --    0.80415   0.80905   0.80948   0.81063   0.81819
 Alpha virt. eigenvalues --    0.81991   0.82268   0.82460   0.82746   0.83218
 Alpha virt. eigenvalues --    0.83522   0.84355   0.84448   0.84848   0.85706
 Alpha virt. eigenvalues --    0.85845   0.86209   0.86476   0.87001   0.87479
 Alpha virt. eigenvalues --    0.87814   0.88285   0.88663   0.88838   0.89183
 Alpha virt. eigenvalues --    0.90320   0.91167   0.91613   0.92086   0.92683
 Alpha virt. eigenvalues --    0.93101   0.93288   0.93941   0.94880   0.95107
 Alpha virt. eigenvalues --    0.95918   0.96946   0.97192   0.98601   0.98671
 Alpha virt. eigenvalues --    0.99851   1.00354   1.00479   1.01874   1.02030
 Alpha virt. eigenvalues --    1.02925   1.03380   1.03791   1.04323   1.05257
 Alpha virt. eigenvalues --    1.06043   1.07285   1.07807   1.08103   1.09324
 Alpha virt. eigenvalues --    1.09507   1.10631   1.11130   1.12165   1.13154
 Alpha virt. eigenvalues --    1.13834   1.14423   1.15313   1.16701   1.17083
 Alpha virt. eigenvalues --    1.17493   1.17888   1.18189   1.20429   1.20629
 Alpha virt. eigenvalues --    1.21427   1.21892   1.22759   1.23675   1.23904
 Alpha virt. eigenvalues --    1.25427   1.25502   1.26836   1.27788   1.29572
 Alpha virt. eigenvalues --    1.30174   1.31686   1.31915   1.33345   1.33808
 Alpha virt. eigenvalues --    1.34679   1.35117   1.36739   1.36940   1.38030
 Alpha virt. eigenvalues --    1.38522   1.39008   1.39918   1.41012   1.41788
 Alpha virt. eigenvalues --    1.42592   1.42963   1.44185   1.45720   1.46815
 Alpha virt. eigenvalues --    1.47567   1.47699   1.48098   1.50105   1.50794
 Alpha virt. eigenvalues --    1.51272   1.51945   1.53980   1.54450   1.55246
 Alpha virt. eigenvalues --    1.55664   1.56493   1.57519   1.58534   1.58738
 Alpha virt. eigenvalues --    1.59407   1.60109   1.61118   1.61731   1.62573
 Alpha virt. eigenvalues --    1.63440   1.63787   1.64597   1.65081   1.65311
 Alpha virt. eigenvalues --    1.65905   1.66050   1.66450   1.67171   1.68604
 Alpha virt. eigenvalues --    1.69101   1.70150   1.70705   1.71098   1.71438
 Alpha virt. eigenvalues --    1.71889   1.72705   1.73644   1.74002   1.74754
 Alpha virt. eigenvalues --    1.75224   1.75699   1.76232   1.76576   1.77095
 Alpha virt. eigenvalues --    1.77786   1.78702   1.78858   1.80375   1.80699
 Alpha virt. eigenvalues --    1.80914   1.81278   1.81533   1.82119   1.83023
 Alpha virt. eigenvalues --    1.83404   1.83567   1.84514   1.85067   1.85539
 Alpha virt. eigenvalues --    1.86579   1.87204   1.87938   1.88207   1.88689
 Alpha virt. eigenvalues --    1.89259   1.89535   1.90519   1.91457   1.92210
 Alpha virt. eigenvalues --    1.93149   1.93442   1.93927   1.94519   1.95039
 Alpha virt. eigenvalues --    1.95238   1.95474   1.95921   1.96422   1.97685
 Alpha virt. eigenvalues --    1.98896   1.99336   2.00108   2.00662   2.00719
 Alpha virt. eigenvalues --    2.01723   2.02425   2.02651   2.02895   2.03831
 Alpha virt. eigenvalues --    2.05063   2.05466   2.06695   2.07422   2.07515
 Alpha virt. eigenvalues --    2.08046   2.08995   2.09796   2.10759   2.11035
 Alpha virt. eigenvalues --    2.11767   2.12751   2.12889   2.13757   2.14583
 Alpha virt. eigenvalues --    2.14940   2.15644   2.17326   2.17832   2.18710
 Alpha virt. eigenvalues --    2.19862   2.20547   2.21833   2.22226   2.22698
 Alpha virt. eigenvalues --    2.23892   2.24151   2.24929   2.25277   2.26312
 Alpha virt. eigenvalues --    2.26885   2.27745   2.28372   2.29126   2.29342
 Alpha virt. eigenvalues --    2.29766   2.30981   2.31667   2.32828   2.33068
 Alpha virt. eigenvalues --    2.34593   2.35621   2.36863   2.37001   2.37568
 Alpha virt. eigenvalues --    2.39948   2.40814   2.41060   2.41354   2.41454
 Alpha virt. eigenvalues --    2.42156   2.43102   2.44154   2.45029   2.45888
 Alpha virt. eigenvalues --    2.47411   2.47995   2.49480   2.50970   2.51933
 Alpha virt. eigenvalues --    2.52651   2.53919   2.54018   2.56472   2.57560
 Alpha virt. eigenvalues --    2.58351   2.60088   2.61176   2.61733   2.62304
 Alpha virt. eigenvalues --    2.62664   2.63189   2.64979   2.65778   2.66685
 Alpha virt. eigenvalues --    2.67989   2.68966   2.70415   2.71490   2.74430
 Alpha virt. eigenvalues --    2.75823   2.76633   2.78748   2.81295   2.82109
 Alpha virt. eigenvalues --    2.85250   2.86371   2.88448   2.88819   2.89091
 Alpha virt. eigenvalues --    2.93404   2.93587   2.94201   2.98476   2.99230
 Alpha virt. eigenvalues --    2.99347   3.03761   3.07047   3.08061   3.16434
 Alpha virt. eigenvalues --    3.69882   3.70036   3.74221   3.84001   3.86834
 Alpha virt. eigenvalues --    3.88822   3.91864   3.93725   3.94338   3.98458
 Alpha virt. eigenvalues --    4.03884   4.05574   4.07948   4.10737   4.13067
 Alpha virt. eigenvalues --    4.14616   4.15415   4.16992   4.18814   4.21378
 Alpha virt. eigenvalues --    4.22182   4.24331   4.25016   4.25992   4.28040
 Alpha virt. eigenvalues --    4.32094   4.33708   4.34641   4.35048   4.37296
 Alpha virt. eigenvalues --    4.46666   4.47897   4.50556   4.53509   4.55426
 Alpha virt. eigenvalues --    4.56849   4.59958   4.64312
          Condensed to atoms (all electrons):
 Mulliken charges:
               1
     1  N   -0.761887
     2  H    0.431717
     3  H    0.425284
     4  H    0.413031
     5  C   -0.116548
     6  H    0.210987
     7  C    0.658015
     8  C   -0.102456
     9  H    0.175646
    10  O   -0.533856
    11  C   -0.470135
    12  H    0.165389
    13  H    0.175475
    14  H    0.192589
    15  C   -0.478277
    16  H    0.178296
    17  H    0.143042
    18  H    0.203385
    19  N   -0.630160
    20  H    0.380456
    21  C   -0.031140
    22  H    0.210463
    23  C    0.624455
    24  C   -0.501066
    25  H    0.165953
    26  H    0.226101
    27  H    0.178792
    28  O   -0.525457
    29  N   -0.608789
    30  H    0.347560
    31  C   -0.094980
    32  H    0.207513
    33  C    0.604445
    34  C   -0.039035
    35  H    0.147961
    36  H    0.177367
    37  O   -0.580275
    38  O   -0.593818
    39  H    0.400687
    40  N   -0.559243
    41  H    0.367149
    42  C   -0.057894
    43  H    0.155991
    44  C    0.595343
    45  C   -0.312772
    46  H    0.174493
    47  H    0.118811
    48  O   -0.559595
    49  C   -0.083428
    50  H    0.210853
    51  C   -0.478111
    52  H    0.083187
    53  H    0.195352
    54  H    0.163924
    55  C   -0.479685
    56  H    0.088915
    57  H    0.185114
    58  H    0.161329
    59  N   -0.610404
    60  H    0.351710
    61  C   -0.088020
    62  H    0.158976
    63  C    0.586361
    64  C   -0.266841
    65  H    0.195769
    66  H    0.110799
    67  O   -0.550227
    68  C   -0.296589
    69  H    0.165312
    70  H    0.176356
    71  C   -0.180753
    72  H    0.186156
    73  H    0.184313
    74  N   -0.573661
    75  H    0.357740
    76  N   -0.754738
    77  H    0.368617
    78  H    0.399136
    79  N   -0.781476
    80  H    0.361145
    81  H    0.410893
    82  C    0.775863
    83  O   -0.632900
 Sum of Mulliken charges =   1.00000
 Mulliken charges with hydrogens summed into heavy atoms:
               1
     1  N    0.508145
     5  C    0.094439
     7  C    0.658015
     8  C    0.073190
    10  O   -0.533856
    11  C    0.063317
    15  C    0.046446
    19  N   -0.249704
    21  C    0.179323
    23  C    0.624455
    24  C    0.069781
    28  O   -0.525457
    29  N   -0.261229
    31  C    0.112533
    33  C    0.604445
    34  C    0.286293
    37  O   -0.580275
    38  O   -0.193131
    40  N   -0.192094
    42  C    0.098096
    44  C    0.595343
    45  C   -0.019468
    48  O   -0.559595
    49  C    0.127425
    51  C   -0.035648
    55  C   -0.044327
    59  N   -0.258693
    61  C    0.070956
    63  C    0.586361
    64  C    0.039727
    67  O   -0.550227
    68  C    0.045080
    71  C    0.189716
    74  N   -0.215921
    76  N    0.013015
    79  N   -0.009438
    82  C    0.775863
    83  O   -0.632900
 Electronic spatial extent (au):  <R**2>=          23738.4723
 Charge=              1.0000 electrons
 Dipole moment (field-independent basis, Debye):
    X=            -16.8498    Y=              2.2404    Z=             10.1139  Tot=             19.7795
 Quadrupole moment (field-independent basis, Debye-Ang):
   XX=           -207.3401   YY=           -167.7038   ZZ=           -136.8579
   XY=             34.8391   XZ=            -61.8394   YZ=            -60.4060
 Traceless Quadrupole moment (field-independent basis, Debye-Ang):
   XX=            -36.7062   YY=              2.9301   ZZ=             33.7761
   XY=             34.8391   XZ=            -61.8394   YZ=            -60.4060
 Octapole moment (field-independent basis, Debye-Ang**2):
  XXX=            428.3667  YYY=           -128.7451  ZZZ=            271.7496  XYY=            168.8503
  XXY=             27.9532  XXZ=            125.0048  XZZ=            185.3861  YZZ=           -229.2428
  YYZ=            126.0881  XYZ=             39.8000
 Hexadecapole moment (field-independent basis, Debye-Ang**3):
 XXXX=         -13437.9006 YYYY=          -5212.5723 ZZZZ=          -9089.5414 XXXY=            510.1616
 XXXZ=           1553.3251 YYYX=            345.4989 YYYZ=           2175.0476 ZZZX=           1761.4210
 ZZZY=           1292.2960 XXYY=          -2681.1310 XXZZ=          -3441.6190 YYZZ=          -2139.1735
 XXYZ=            513.7405 YYXZ=            343.8739 ZZXY=            752.3694
 N-N= 4.931943194961D+03 E-N=-1.418625517450D+04  KE= 1.850798428867D+03
 Unable to Open any file for archive entry.
 1\1\GINC-SKL-146\SP\RB3LYP\6-31G(d)\C23H45N8O7(1+)\KENGMITH\26-Jun-202
 2\0\\# B3LYP/6-31G* empiricaldispersion=gd3 guess=read geom=check nosy
 mm integral(ultrafinegrid)\\Candidate Structure: Conf:123 Charge calc 
 in gas phase\\1,1\N,0,-1.55078231,-2.0803566843,4.588385787\H,0,-0.793
 3183927,-1.8937128342,3.9157640291\H,0,-1.604962988,-1.2669829629,5.23
 43545644\H,0,-1.3381077548,-2.9417472767,5.0994392872\C,0,-2.904974787
 ,-2.1205122822,3.9033998898\H,0,-2.7698249176,-2.6409288116,2.95255377
 09\C,0,-3.2265119563,-0.6169136382,3.7272001235\C,0,-3.9384261371,-2.8
 518312844,4.7864612366\H,0,-3.9884936972,-2.3102162559,5.741392985\O,0
 ,-2.9003259403,0.1376180816,4.6472740589\C,0,-5.322083842,-2.788739655
 8,4.1182303512\H,0,-5.3067166242,-3.2695874798,3.1320974551\H,0,-5.676
 0951251,-1.7613387727,3.9964610526\H,0,-6.052565238,-3.3212560698,4.73
 33813397\C,0,-3.5324319328,-4.3126435026,5.0440699988\H,0,-3.432417561
 2,-4.867754448,4.1040008285\H,0,-2.5950385162,-4.4213703794,5.60694346
 72\H,0,-4.3003425433,-4.808852212,5.6442773553\N,0,-3.8090247666,-0.28
 14884568,2.5718191032\H,0,-4.0175404172,-0.9951780757,1.8739198803\C,0
 ,-4.1153525607,1.0678883857,2.0889477304\H,0,-5.0271155056,1.434294313
 6,2.5791853461\C,0,-4.3939100429,0.86069437,0.5753143212\C,0,-2.963946
 2379,2.0597553481,2.3283723112\H,0,-3.2642052441,3.07577416,2.05412463
 05\H,0,-2.6955234194,2.0730595492,3.3844368245\H,0,-2.0824669467,1.781
 863635,1.7414603567\O,0,-4.4856074008,-0.2763028202,0.1131388128\N,0,-
 4.4608117606,1.9770976804,-0.2013835493\H,0,-4.175253161,2.8496950117,
 0.229011066\C,0,-4.1259678509,1.8857452184,-1.6435747591\H,0,-4.619370
 7471,0.9947559919,-2.0352171631\C,0,-2.5929048628,1.7623238341,-1.6577
 609802\C,0,-4.6494334041,3.1147620113,-2.3882197928\H,0,-4.2210471214,
 4.0270239792,-1.9444679125\H,0,-4.3026937182,3.069254068,-3.4248071127
 \O,0,-1.8896963751,2.7855973579,-1.6111170151\O,0,-6.0588923656,3.1328
 327644,-2.4358497955\H,0,-6.3964713158,3.2227333573,-1.5308102741\N,0,
 -2.1179495698,0.5114522889,-1.5462574586\H,0,-2.7927833955,-0.24062429
 85,-1.6078689968\C,0,-0.8187639144,0.1716372391,-0.9586215859\H,0,-0.5
 563588785,0.983550993,-0.2718644177\C,0,0.2912711907,-0.0008734527,-2.
 0151780528\C,0,-1.0085241797,-1.1637383538,-0.1941831736\H,0,-1.130622
 1755,-1.9505907013,-0.9506363329\H,0,-1.9613531576,-1.100189952,0.3518
 740954\O,0,0.0128760675,-0.4519638347,-3.1324986629\C,0,0.0981353267,-
 1.5654695319,0.7962965858\H,0,1.0748210903,-1.5435968282,0.3071472996\
 C,0,0.2030165832,-0.5850866771,1.9719418987\H,0,-0.7797864877,-0.40610
 4893,2.439267726\H,0,0.6030867871,0.3834785814,1.6626099358\H,0,0.9182
 879212,-0.9557159722,2.7176283509\C,0,-0.1485352442,-2.999644154,1.283
 1549317\H,0,-1.1354163482,-3.1038210252,1.7636153913\H,0,-0.1301101207
 ,-3.715719309,0.4549414163\H,0,0.6235909748,-3.3084247821,1.997809152\
 N,0,1.5204062477,0.3302319644,-1.5777463688\H,0,1.6443093684,0.5253778
 797,-0.5623599016\C,0,2.7455270045,-0.419289333,-1.9229261084\H,0,2.44
 58156891,-1.3873090951,-2.3412054776\C,0,3.4873713012,-0.6598622201,-0
 .5356678597\C,0,3.6931708652,0.2615102857,-2.91508962\H,0,4.5414258459
 ,-0.4189174923,-3.0204468803\H,0,4.109945271,1.1646003768,-2.446621487
 9\O,0,4.5519321561,-1.2771628247,-0.6086569935\C,0,3.0546393022,0.5869
 593603,-4.2856599159\H,0,3.6371511041,0.1481596747,-5.1046499091\H,0,2
 .0624022097,0.1256637175,-4.3404934435\C,0,2.9580404467,2.0929280134,-
 4.5799367232\H,0,2.3466895075,2.2963776573,-5.4647944497\H,0,3.9518423
 356,2.5077977261,-4.7703136488\N,0,2.4104734881,2.8899671004,-3.467334
 8615\H,0,3.0633084083,3.1317116449,-2.7340330046\N,0,0.1754177967,2.39
 13806447,-3.9054356639\H,0,-0.7770287835,2.5383486454,-3.5922683087\H,
 0,0.3519221303,1.4359195205,-4.2071133066\N,0,0.726215416,3.7842988307
 ,-2.142448852\H,0,1.3952408645,4.3503229643,-1.6418389729\H,0,-0.18385
 26698,3.6019840634,-1.7221988541\C,0,1.1190128679,2.9933886827,-3.1532
 609245\O,0,2.8797315052,-0.170272089,0.4746918452\\Version=ES64L-G16Re
 vC.01\HF=-1868.0827093\RMSD=1.627e-09\Dipole=-4.5489424,0.4238865,4.06
 84392\Quadrupole=-27.2901369,2.1784671,25.1116698,25.9020253,-45.97610
 61,-44.910394\PG=C01 [X(C23H45N8O7)]\\@
 The archive entry for this job was punched.


 It takes a long time to grow an old friend.
                            -- John Leonard
 Job cpu time:       0 days  0 hours  2 minutes  0.9 seconds.
 Elapsed time:       0 days  0 hours  0 minutes 30.9 seconds.
 File lengths (MBytes):  RWF=    344 Int=      0 D2E=      0 Chk=     48 Scr=     16
 Normal termination of Gaussian 16 at Sun Jun 26 14:46:12 2022.
