 Entering Gaussian System, Link 0=/opt/software/Gaussian/g16-AVX2-C.01/g16/g16
 Input=charge-conf-746.com
 Output=charge-conf-746.log
 Initial command:
 /opt/software/Gaussian/g16-AVX2-C.01/g16/l1.exe "/mnt/gs18/scratch/users/kengmith/Gau-68506.inp" -scrdir="/mnt/gs18/scratch/users/kengmith/"
 Entering Link 1 = /opt/software/Gaussian/g16-AVX2-C.01/g16/l1.exe PID=     68516.
  
 Copyright (c) 1988-2019, Gaussian, Inc.  All Rights Reserved.
  
 This is part of the Gaussian(R) 16 program.  It is based on
 the Gaussian(R) 09 system (copyright 2009, Gaussian, Inc.),
 the Gaussian(R) 03 system (copyright 2003, Gaussian, Inc.),
 the Gaussian(R) 98 system (copyright 1998, Gaussian, Inc.),
 the Gaussian(R) 94 system (copyright 1995, Gaussian, Inc.),
 the Gaussian 92(TM) system (copyright 1992, Gaussian, Inc.),
 the Gaussian 90(TM) system (copyright 1990, Gaussian, Inc.),
 the Gaussian 88(TM) system (copyright 1988, Gaussian, Inc.),
 the Gaussian 86(TM) system (copyright 1986, Carnegie Mellon
 University), and the Gaussian 82(TM) system (copyright 1983,
 Carnegie Mellon University). Gaussian is a federally registered
 trademark of Gaussian, Inc.
  
 This software contains proprietary and confidential information,
 including trade secrets, belonging to Gaussian, Inc.
  
 This software is provided under written license and may be
 used, copied, transmitted, or stored only in accord with that
 written license.
  
 The following legend is applicable only to US Government
 contracts under FAR:
  
                    RESTRICTED RIGHTS LEGEND
  
 Use, reproduction and disclosure by the US Government is
 subject to restrictions as set forth in subparagraphs (a)
 and (c) of the Commercial Computer Software - Restricted
 Rights clause in FAR 52.227-19.
  
 Gaussian, Inc.
 340 Quinnipiac St., Bldg. 40, Wallingford CT 06492
  
  
 ---------------------------------------------------------------
 Warning -- This program may not be used in any manner that
 competes with the business of Gaussian, Inc. or will provide
 assistance to any competitor of Gaussian, Inc.  The licensee
 of this program is prohibited from giving any competitor of
 Gaussian, Inc. access to this program.  By using this program,
 the user acknowledges that Gaussian, Inc. is engaged in the
 business of creating and licensing software in the field of
 computational chemistry and represents and warrants to the
 licensee that it is not a competitor of Gaussian, Inc. and that
 it will not use this program in any manner prohibited above.
 ---------------------------------------------------------------
  

 Cite this work as:
 Gaussian 16, Revision C.01,
 M. J. Frisch, G. W. Trucks, H. B. Schlegel, G. E. Scuseria, 
 M. A. Robb, J. R. Cheeseman, G. Scalmani, V. Barone, 
 G. A. Petersson, H. Nakatsuji, X. Li, M. Caricato, A. V. Marenich, 
 J. Bloino, B. G. Janesko, R. Gomperts, B. Mennucci, H. P. Hratchian, 
 J. V. Ortiz, A. F. Izmaylov, J. L. Sonnenberg, D. Williams-Young, 
 F. Ding, F. Lipparini, F. Egidi, J. Goings, B. Peng, A. Petrone, 
 T. Henderson, D. Ranasinghe, V. G. Zakrzewski, J. Gao, N. Rega, 
 G. Zheng, W. Liang, M. Hada, M. Ehara, K. Toyota, R. Fukuda, 
 J. Hasegawa, M. Ishida, T. Nakajima, Y. Honda, O. Kitao, H. Nakai, 
 T. Vreven, K. Throssell, J. A. Montgomery, Jr., J. E. Peralta, 
 F. Ogliaro, M. J. Bearpark, J. J. Heyd, E. N. Brothers, K. N. Kudin, 
 V. N. Staroverov, T. A. Keith, R. Kobayashi, J. Normand, 
 K. Raghavachari, A. P. Rendell, J. C. Burant, S. S. Iyengar, 
 J. Tomasi, M. Cossi, J. M. Millam, M. Klene, C. Adamo, R. Cammi, 
 J. W. Ochterski, R. L. Martin, K. Morokuma, O. Farkas, 
 J. B. Foresman, and D. J. Fox, Gaussian, Inc., Wallingford CT, 2019.
 
 ******************************************
 Gaussian 16:  ES64L-G16RevC.01  3-Jul-2019
                26-Jun-2022 
 ******************************************
 %mem=8gb
 %nproc=4
 Will use up to    4 processors via shared memory.
 %chk=conf-746.chk
 ----------------------------------------------------------------------
 # B3LYP/6-31G* empiricaldispersion=gd3 guess=read geom=check nosymm in
 tegral(ultrafinegrid)
 ----------------------------------------------------------------------
 1/29=2,38=1,172=1/1;
 2/12=2,15=1,40=1/2;
 3/5=1,6=6,7=1,11=2,14=-4,25=1,30=1,74=-5,75=-5,116=-2,124=31/1,2,3;
 4/5=1/1;
 5/5=2,38=6/2;
 6/7=2,8=2,9=2,10=2,28=1/1;
 99/5=1,9=1/99;
 ------------------------------------------------------
 Candidate Structure: Conf:746 Charge calc in gas phase
 ------------------------------------------------------
 Structure from the checkpoint file:  "conf-746.chk"
 Charge =  1 Multiplicity = 1
 Redundant internal coordinates found in file.  (old form).
 N,0,-8.9405439138,2.9964341821,4.6901587113
 H,0,-9.1635189778,2.5147187442,5.5644266958
 H,0,-8.2004205228,3.7441846087,4.8717196924
 H,0,-9.7975320544,3.4188807533,4.3238782293
 C,0,-8.2340116365,2.1124524361,3.678956204
 H,0,-8.2212613725,1.095475233,4.07942627
 C,0,-6.7995778679,2.7087861296,3.6586554896
 C,0,-8.9333980282,2.1354701632,2.302012979
 H,0,-8.3070074142,1.5012062243,1.6616814368
 O,0,-6.6036257012,3.7641902838,4.2841838691
 C,0,-10.3290782434,1.4977087373,2.3729947633
 H,0,-11.0297024592,2.094576216,2.9733308703
 H,0,-10.2948605397,0.4873316773,2.7949661224
 H,0,-10.7600053535,1.4281471648,1.3701531709
 C,0,-8.9695419284,3.5427682026,1.6851796334
 H,0,-9.6045678243,4.234047835,2.2560166891
 H,0,-7.9722624945,3.9870652363,1.6093472191
 H,0,-9.39344267,3.4921746695,0.6785116633
 N,0,-5.8981068944,2.0451665875,2.9528569436
 H,0,-6.1147335603,1.2013257501,2.4150153652
 C,0,-4.5064661354,2.4600036228,2.775175849
 H,0,-4.4902316574,3.5019097344,2.4337924304
 C,0,-3.9774489907,1.5328640568,1.6548711334
 C,0,-3.6985734992,2.3282605319,4.0753468556
 H,0,-2.6656145871,2.6558606801,3.9260070148
 H,0,-4.1453185924,2.9534446533,4.8523455458
 H,0,-3.6839870737,1.287110304,4.4124527628
 O,0,-4.6921918682,0.6279118793,1.2129339096
 N,0,-2.7242403139,1.7775146616,1.2453625151
 H,0,-2.1417495895,2.4872329261,1.6838347975
 C,0,-1.9835241771,0.8966208223,0.355438189
 H,0,-2.3786941025,-0.1195874706,0.4380277265
 C,0,-0.5137889016,1.0022526551,0.7764309739
 C,0,-2.1101697569,1.3662003196,-1.1198241531
 H,0,-3.1738786457,1.3794181427,-1.376449937
 H,0,-1.7246574978,2.3977916145,-1.1780892062
 O,0,-0.0983729622,2.0484764504,1.2768783962
 O,0,-1.4672806367,0.5013574751,-2.0310922817
 H,0,-0.4913405183,0.5235757601,-1.8635976062
 N,0,0.261317353,-0.067627078,0.4923899403
 H,0,-0.1612167003,-0.8257689329,-0.0304387268
 C,0,1.7093700992,0.0656789766,0.3832972676
 H,0,2.0470849068,0.6799402944,1.2202668723
 C,0,2.0768097524,0.780378341,-0.9270434195
 C,0,2.3966630404,-1.313661985,0.4100171752
 H,0,3.4644444188,-1.1652348729,0.2023416505
 H,0,1.9999311867,-1.9074511224,-0.4277325784
 O,0,1.2452190603,0.8178651645,-1.8777606726
 C,0,2.2307536947,-2.0923213783,1.7279324498
 H,0,1.1551740666,-2.2163043112,1.9272901446
 C,0,2.8552740506,-3.4870100176,1.5751974977
 H,0,3.9304503406,-3.4086996798,1.3737656979
 H,0,2.3996216885,-4.0433612386,0.7472180175
 H,0,2.7264730641,-4.0768841402,2.4897681037
 C,0,2.8578057513,-1.344097401,2.9134774854
 H,0,3.9168660179,-1.1338959954,2.7197646127
 H,0,2.3556253829,-0.3909183182,3.1164781419
 H,0,2.7952686182,-1.9457886074,3.8272404138
 N,0,3.3077202028,1.2574171788,-0.9821248589
 H,0,3.9811408784,0.9431128185,-0.2345215365
 C,0,4.1589721896,1.2777244853,-2.1813055097
 H,0,3.6946931428,0.6597151543,-2.9585753462
 C,0,5.5047817762,0.5455464709,-1.7006690435
 C,0,4.4896879605,2.6561923532,-2.7529633286
 H,0,5.3693836637,2.495226118,-3.3839131357
 H,0,4.8004249738,3.328628673,-1.9415073228
 O,0,6.3751109992,0.4430116742,-2.5679631403
 C,0,3.3833308047,3.3054615456,-3.5977165331
 H,0,3.8078023396,4.0996071085,-4.2275122199
 H,0,2.9647919905,2.5546353721,-4.2816983181
 C,0,2.2496207541,3.9109791634,-2.7629375742
 H,0,2.6029071456,4.7728303428,-2.1897692161
 H,0,1.8461425917,3.1981989309,-2.0430187793
 N,0,1.1308231279,4.3904962185,-3.6035234928
 H,0,1.2753722908,5.2701939824,-4.0826738096
 N,0,0.0776075901,2.3204322091,-3.7693364231
 H,0,-0.8135244684,1.8320377589,-3.7561127895
 H,0,0.7950215119,1.8511501725,-3.1910032051
 N,0,-0.8717263078,4.1763718688,-4.7720821176
 H,0,-0.8360272986,5.1569904013,-5.0105813157
 H,0,-1.3897325785,3.5867282444,-5.4085926244
 C,0,0.1343363528,3.6172554917,-4.0480537584
 O,0,5.4783232773,0.1846851411,-0.4837726676
 Recover connectivity data from disk.
                           ----------------------------
                           !    Current Parameters    !
                           ! (Angstroms and Degrees)  !
 --------------------------                            --------------------------
 ! Name  Definition              Value                                          !
 --------------------------------------------------------------------------------
 ! R1    R(1,2)                  1.0228                                         !
 ! R2    R(1,3)                  1.0677                                         !
 ! R3    R(1,4)                  1.0233                                         !
 ! R4    R(1,5)                  1.5176                                         !
 ! R5    R(5,6)                  1.0931                                         !
 ! R6    R(5,7)                  1.5536                                         !
 ! R7    R(5,8)                  1.5446                                         !
 ! R8    R(7,10)                 1.2424                                         !
 ! R9    R(7,19)                 1.3233                                         !
 ! R10   R(8,9)                  1.0976                                         !
 ! R11   R(8,11)                 1.5361                                         !
 ! R12   R(8,15)                 1.537                                          !
 ! R13   R(11,12)                1.0989                                         !
 ! R14   R(11,13)                1.0955                                         !
 ! R15   R(11,14)                1.0937                                         !
 ! R16   R(15,16)                1.0986                                         !
 ! R17   R(15,17)                1.0944                                         !
 ! R18   R(15,18)                1.0934                                         !
 ! R19   R(19,20)                1.0238                                         !
 ! R20   R(19,21)                1.463                                          !
 ! R21   R(21,22)                1.0965                                         !
 ! R22   R(21,23)                1.5474                                         !
 ! R23   R(21,24)                1.5364                                         !
 ! R24   R(23,28)                1.235                                          !
 ! R25   R(23,29)                1.3409                                         !
 ! R26   R(24,25)                1.0939                                         !
 ! R27   R(24,26)                1.0928                                         !
 ! R28   R(24,27)                1.0945                                         !
 ! R29   R(29,30)                1.0175                                         !
 ! R30   R(29,31)                1.4549                                         !
 ! R31   R(31,32)                1.0935                                         !
 ! R32   R(31,33)                1.5325                                         !
 ! R33   R(31,34)                1.5534                                         !
 ! R34   R(33,37)                1.2319                                         !
 ! R35   R(33,40)                1.3513                                         !
 ! R36   R(34,35)                1.0943                                         !
 ! R37   R(34,36)                1.1028                                         !
 ! R38   R(34,38)                1.4113                                         !
 ! R39   R(38,39)                0.9905                                         !
 ! R40   R(40,41)                1.0132                                         !
 ! R41   R(40,42)                1.4583                                         !
 ! R42   R(42,43)                1.0917                                         !
 ! R43   R(42,44)                1.5371                                         !
 ! R44   R(42,45)                1.5413                                         !
 ! R45   R(44,48)                1.2637                                         !
 ! R46   R(44,59)                1.3213                                         !
 ! R47   R(45,46)                1.0979                                         !
 ! R48   R(45,47)                1.1008                                         !
 ! R49   R(45,49)                1.5397                                         !
 ! R50   R(49,50)                1.1009                                         !
 ! R51   R(49,51)                1.5357                                         !
 ! R52   R(49,55)                1.5358                                         !
 ! R53   R(51,52)                1.0967                                         !
 ! R54   R(51,53)                1.0967                                         !
 ! R55   R(51,54)                1.0959                                         !
 ! R56   R(55,56)                1.097                                          !
 ! R57   R(55,57)                1.0963                                         !
 ! R58   R(55,58)                1.0959                                         !
 ! R59   R(59,60)                1.0541                                         !
 ! R60   R(59,61)                1.4707                                         !
 ! R61   R(61,62)                1.0962                                         !
 ! R62   R(61,63)                1.6057                                         !
 ! R63   R(61,64)                1.5285                                         !
 ! R64   R(63,67)                1.233                                          !
 ! R65   R(63,83)                1.2696                                         !
 ! R66   R(64,65)                1.0945                                         !
 ! R67   R(64,66)                1.0987                                         !
 ! R68   R(64,68)                1.536                                          !
 ! R69   R(68,69)                1.0989                                         !
 ! R70   R(68,70)                1.0985                                         !
 ! R71   R(68,71)                1.5326                                         !
 ! R72   R(71,72)                1.0937                                         !
 ! R73   R(71,73)                1.0905                                         !
 ! R74   R(71,74)                1.4793                                         !
 ! R75   R(74,75)                1.0121                                         !
 ! R76   R(74,82)                1.3373                                         !
 ! R77   R(76,77)                1.0163                                         !
 ! R78   R(76,78)                1.0341                                         !
 ! R79   R(76,82)                1.3276                                         !
 ! R80   R(79,80)                1.0098                                         !
 ! R81   R(79,81)                1.0105                                         !
 ! R82   R(79,82)                1.3598                                         !
 ! A1    A(2,1,3)              109.6106                                         !
 ! A2    A(2,1,4)              108.532                                          !
 ! A3    A(2,1,5)              113.3726                                         !
 ! A4    A(3,1,4)              110.6289                                         !
 ! A5    A(3,1,5)              101.4509                                         !
 ! A6    A(4,1,5)              113.0711                                         !
 ! A7    A(1,5,6)              107.6528                                         !
 ! A8    A(1,5,7)              102.414                                          !
 ! A9    A(1,5,8)              111.9945                                         !
 ! A10   A(6,5,7)              110.5573                                         !
 ! A11   A(6,5,8)              110.2285                                         !
 ! A12   A(7,5,8)              113.6226                                         !
 ! A13   A(5,7,10)             117.7177                                         !
 ! A14   A(5,7,19)             116.3242                                         !
 ! A15   A(10,7,19)            125.9509                                         !
 ! A16   A(5,8,9)              104.6589                                         !
 ! A17   A(5,8,11)             111.3477                                         !
 ! A18   A(5,8,15)             112.4622                                         !
 ! A19   A(9,8,11)             107.7919                                         !
 ! A20   A(9,8,15)             107.9631                                         !
 ! A21   A(11,8,15)            112.1681                                         !
 ! A22   A(8,11,12)            112.2733                                         !
 ! A23   A(8,11,13)            111.8599                                         !
 ! A24   A(8,11,14)            109.9996                                         !
 ! A25   A(12,11,13)           108.0858                                         !
 ! A26   A(12,11,14)           106.5147                                         !
 ! A27   A(13,11,14)           107.8684                                         !
 ! A28   A(8,15,16)            112.408                                          !
 ! A29   A(8,15,17)            112.2161                                         !
 ! A30   A(8,15,18)            109.6473                                         !
 ! A31   A(16,15,17)           107.8953                                         !
 ! A32   A(16,15,18)           106.4624                                         !
 ! A33   A(17,15,18)           107.9545                                         !
 ! A34   A(7,19,20)            123.3228                                         !
 ! A35   A(7,19,21)            124.7903                                         !
 ! A36   A(20,19,21)           111.7875                                         !
 ! A37   A(19,21,22)           108.7431                                         !
 ! A38   A(19,21,23)           104.0775                                         !
 ! A39   A(19,21,24)           111.9071                                         !
 ! A40   A(22,21,23)           109.8065                                         !
 ! A41   A(22,21,24)           109.7037                                         !
 ! A42   A(23,21,24)           112.4281                                         !
 ! A43   A(21,23,28)           120.0177                                         !
 ! A44   A(21,23,29)           115.5494                                         !
 ! A45   A(28,23,29)           124.4239                                         !
 ! A46   A(21,24,25)           110.8138                                         !
 ! A47   A(21,24,26)           109.7357                                         !
 ! A48   A(21,24,27)           110.4405                                         !
 ! A49   A(25,24,26)           108.1663                                         !
 ! A50   A(25,24,27)           108.3219                                         !
 ! A51   A(26,24,27)           109.3101                                         !
 ! A52   A(23,29,30)           122.0524                                         !
 ! A53   A(23,29,31)           123.5157                                         !
 ! A54   A(30,29,31)           113.2333                                         !
 ! A55   A(29,31,32)           109.4211                                         !
 ! A56   A(29,31,33)           106.1714                                         !
 ! A57   A(29,31,34)           110.8787                                         !
 ! A58   A(32,31,33)           112.9486                                         !
 ! A59   A(32,31,34)           108.8571                                         !
 ! A60   A(33,31,34)           108.5574                                         !
 ! A61   A(31,33,37)           119.5737                                         !
 ! A62   A(31,33,40)           115.9625                                         !
 ! A63   A(37,33,40)           124.3572                                         !
 ! A64   A(31,34,35)           107.7955                                         !
 ! A65   A(31,34,36)           107.7252                                         !
 ! A66   A(31,34,38)           113.0075                                         !
 ! A67   A(35,34,36)           108.4278                                         !
 ! A68   A(35,34,38)           107.3843                                         !
 ! A69   A(36,34,38)           112.3261                                         !
 ! A70   A(34,38,39)           109.0214                                         !
 ! A71   A(33,40,41)           117.4941                                         !
 ! A72   A(33,40,42)           120.8585                                         !
 ! A73   A(41,40,42)           116.3523                                         !
 ! A74   A(40,42,43)           107.5329                                         !
 ! A75   A(40,42,44)           110.099                                          !
 ! A76   A(40,42,45)           111.0809                                         !
 ! A77   A(43,42,44)           108.5406                                         !
 ! A78   A(43,42,45)           110.6274                                         !
 ! A79   A(44,42,45)           108.9218                                         !
 ! A80   A(42,44,48)           119.8568                                         !
 ! A81   A(42,44,59)           115.2204                                         !
 ! A82   A(48,44,59)           124.8205                                         !
 ! A83   A(42,45,46)           108.0245                                         !
 ! A84   A(42,45,47)           107.9882                                         !
 ! A85   A(42,45,49)           114.7941                                         !
 ! A86   A(46,45,47)           106.2296                                         !
 ! A87   A(46,45,49)           109.5776                                         !
 ! A88   A(47,45,49)           109.8631                                         !
 ! A89   A(45,49,50)           108.4953                                         !
 ! A90   A(45,49,51)           109.2883                                         !
 ! A91   A(45,49,55)           111.7388                                         !
 ! A92   A(50,49,51)           108.2423                                         !
 ! A93   A(50,49,55)           108.2997                                         !
 ! A94   A(51,49,55)           110.6825                                         !
 ! A95   A(49,51,52)           110.6159                                         !
 ! A96   A(49,51,53)           111.5208                                         !
 ! A97   A(49,51,54)           110.9791                                         !
 ! A98   A(52,51,53)           107.7516                                         !
 ! A99   A(52,51,54)           107.8752                                         !
 ! A100  A(53,51,54)           107.9495                                         !
 ! A101  A(49,55,56)           110.5627                                         !
 ! A102  A(49,55,57)           112.3027                                         !
 ! A103  A(49,55,58)           110.6638                                         !
 ! A104  A(56,55,57)           107.9584                                         !
 ! A105  A(56,55,58)           107.9119                                         !
 ! A106  A(57,55,58)           107.2674                                         !
 ! A107  A(44,59,60)           117.2539                                         !
 ! A108  A(44,59,61)           125.3231                                         !
 ! A109  A(60,59,61)           102.2762                                         !
 ! A110  A(59,61,62)           108.9787                                         !
 ! A111  A(59,61,63)           103.577                                          !
 ! A112  A(59,61,64)           116.2714                                         !
 ! A113  A(62,61,63)           108.0685                                         !
 ! A114  A(62,61,64)           109.5657                                         !
 ! A115  A(63,61,64)           109.9883                                         !
 ! A116  A(61,63,67)           114.7713                                         !
 ! A117  A(61,63,83)           113.5193                                         !
 ! A118  A(67,63,83)           131.7072                                         !
 ! A119  A(61,64,65)           104.8847                                         !
 ! A120  A(61,64,66)           109.6892                                         !
 ! A121  A(61,64,68)           115.5349                                         !
 ! A122  A(65,64,66)           106.7655                                         !
 ! A123  A(65,64,68)           108.9087                                         !
 ! A124  A(66,64,68)           110.5604                                         !
 ! A125  A(64,68,69)           110.0273                                         !
 ! A126  A(64,68,70)           109.1449                                         !
 ! A127  A(64,68,71)           113.5956                                         !
 ! A128  A(69,68,70)           106.5156                                         !
 ! A129  A(69,68,71)           108.2036                                         !
 ! A130  A(70,68,71)           109.1078                                         !
 ! A131  A(68,71,72)           110.9683                                         !
 ! A132  A(68,71,73)           112.0274                                         !
 ! A133  A(68,71,74)           112.2121                                         !
 ! A134  A(72,71,73)           106.7756                                         !
 ! A135  A(72,71,74)           106.6586                                         !
 ! A136  A(73,71,74)           107.8901                                         !
 ! A137  A(71,74,75)           116.2797                                         !
 ! A138  A(71,74,82)           124.4029                                         !
 ! A139  A(75,74,82)           116.8468                                         !
 ! A140  A(77,76,78)           112.5172                                         !
 ! A141  A(77,76,82)           120.638                                          !
 ! A142  A(78,76,82)           122.0752                                         !
 ! A143  A(80,79,81)           115.8476                                         !
 ! A144  A(80,79,82)           119.9263                                         !
 ! A145  A(81,79,82)           118.3418                                         !
 ! A146  A(74,82,76)           121.791                                          !
 ! A147  A(74,82,79)           119.3763                                         !
 ! A148  A(76,82,79)           118.8032                                         !
 ! D1    D(2,1,5,6)              6.4837                                         !
 ! D2    D(2,1,5,7)           -110.0912                                         !
 ! D3    D(2,1,5,8)            127.8073                                         !
 ! D4    D(3,1,5,6)            123.9091                                         !
 ! D5    D(3,1,5,7)              7.3342                                         !
 ! D6    D(3,1,5,8)           -114.7673                                         !
 ! D7    D(4,1,5,6)           -117.6014                                         !
 ! D8    D(4,1,5,7)            125.8237                                         !
 ! D9    D(4,1,5,8)              3.7222                                         !
 ! D10   D(1,5,7,10)            -7.6543                                         !
 ! D11   D(1,5,7,19)           173.2606                                         !
 ! D12   D(6,5,7,10)          -122.1218                                         !
 ! D13   D(6,5,7,19)            58.7931                                         !
 ! D14   D(8,5,7,10)           113.3317                                         !
 ! D15   D(8,5,7,19)           -65.7533                                         !
 ! D16   D(1,5,8,9)            177.5943                                         !
 ! D17   D(1,5,8,11)           -66.216                                          !
 ! D18   D(1,5,8,15)            60.6516                                         !
 ! D19   D(6,5,8,9)            -62.5783                                         !
 ! D20   D(6,5,8,11)            53.6114                                         !
 ! D21   D(6,5,8,15)          -179.5209                                         !
 ! D22   D(7,5,8,9)             62.1451                                         !
 ! D23   D(7,5,8,11)           178.3348                                         !
 ! D24   D(7,5,8,15)           -54.7975                                         !
 ! D25   D(5,7,19,20)            2.0476                                         !
 ! D26   D(5,7,19,21)          178.1214                                         !
 ! D27   D(10,7,19,20)        -176.9518                                         !
 ! D28   D(10,7,19,21)          -0.878                                          !
 ! D29   D(5,8,11,12)           67.6166                                         !
 ! D30   D(5,8,11,13)          -54.1042                                         !
 ! D31   D(5,8,11,14)         -173.961                                          !
 ! D32   D(9,8,11,12)         -178.1296                                         !
 ! D33   D(9,8,11,13)           60.1495                                         !
 ! D34   D(9,8,11,14)          -59.7073                                         !
 ! D35   D(15,8,11,12)         -59.4116                                         !
 ! D36   D(15,8,11,13)         178.8676                                         !
 ! D37   D(15,8,11,14)          59.0108                                         !
 ! D38   D(5,8,15,16)          -66.7139                                         !
 ! D39   D(5,8,15,17)           55.1182                                         !
 ! D40   D(5,8,15,18)          175.077                                          !
 ! D41   D(9,8,15,16)          178.3307                                         !
 ! D42   D(9,8,15,17)          -59.8371                                         !
 ! D43   D(9,8,15,18)           60.1216                                         !
 ! D44   D(11,8,15,16)          59.7137                                         !
 ! D45   D(11,8,15,17)        -178.4542                                         !
 ! D46   D(11,8,15,18)         -58.4954                                         !
 ! D47   D(7,19,21,22)         -51.5398                                         !
 ! D48   D(7,19,21,23)        -168.5396                                         !
 ! D49   D(7,19,21,24)          69.806                                          !
 ! D50   D(20,19,21,22)        124.9277                                         !
 ! D51   D(20,19,21,23)          7.9278                                         !
 ! D52   D(20,19,21,24)       -113.7265                                         !
 ! D53   D(19,21,23,28)         -5.0994                                         !
 ! D54   D(19,21,23,29)        175.9463                                         !
 ! D55   D(22,21,23,28)       -121.3576                                         !
 ! D56   D(22,21,23,29)         59.6881                                         !
 ! D57   D(24,21,23,28)        116.2083                                         !
 ! D58   D(24,21,23,29)        -62.746                                          !
 ! D59   D(19,21,24,25)       -179.2103                                         !
 ! D60   D(19,21,24,26)        -59.8214                                         !
 ! D61   D(19,21,24,27)         60.7515                                         !
 ! D62   D(22,21,24,25)        -58.4205                                         !
 ! D63   D(22,21,24,26)         60.9685                                         !
 ! D64   D(22,21,24,27)       -178.4587                                         !
 ! D65   D(23,21,24,25)         64.0717                                         !
 ! D66   D(23,21,24,26)       -176.5393                                         !
 ! D67   D(23,21,24,27)        -55.9665                                         !
 ! D68   D(21,23,29,30)          3.7056                                         !
 ! D69   D(21,23,29,31)        170.3413                                         !
 ! D70   D(28,23,29,30)       -175.1967                                         !
 ! D71   D(28,23,29,31)         -8.561                                          !
 ! D72   D(23,29,31,32)        -24.7659                                         !
 ! D73   D(23,29,31,33)       -146.954                                          !
 ! D74   D(23,29,31,34)         95.3187                                         !
 ! D75   D(30,29,31,32)        142.9244                                         !
 ! D76   D(30,29,31,33)         20.7363                                         !
 ! D77   D(30,29,31,34)        -96.991                                          !
 ! D78   D(29,31,33,37)        -29.2949                                         !
 ! D79   D(29,31,33,40)        154.2949                                         !
 ! D80   D(32,31,33,37)       -149.2121                                         !
 ! D81   D(32,31,33,40)         34.3777                                         !
 ! D82   D(34,31,33,37)         89.9652                                         !
 ! D83   D(34,31,33,40)        -86.445                                          !
 ! D84   D(29,31,34,35)        -58.2843                                         !
 ! D85   D(29,31,34,36)         58.532                                          !
 ! D86   D(29,31,34,38)       -176.7876                                         !
 ! D87   D(32,31,34,35)         62.1358                                         !
 ! D88   D(32,31,34,36)        178.9522                                         !
 ! D89   D(32,31,34,38)        -56.3674                                         !
 ! D90   D(33,31,34,35)       -174.5469                                         !
 ! D91   D(33,31,34,36)        -57.7306                                         !
 ! D92   D(33,31,34,38)         66.9498                                         !
 ! D93   D(31,33,40,41)          4.2286                                         !
 ! D94   D(31,33,40,42)        157.5946                                         !
 ! D95   D(37,33,40,41)       -171.9892                                         !
 ! D96   D(37,33,40,42)        -18.6232                                         !
 ! D97   D(31,34,38,39)        -65.4506                                         !
 ! D98   D(35,34,38,39)        175.8073                                         !
 ! D99   D(36,34,38,39)         56.6865                                         !
 ! D100  D(33,40,42,43)         44.5148                                         !
 ! D101  D(33,40,42,44)        -73.565                                          !
 ! D102  D(33,40,42,45)        165.6956                                         !
 ! D103  D(41,40,42,43)       -161.8302                                         !
 ! D104  D(41,40,42,44)         80.09                                           !
 ! D105  D(41,40,42,45)        -40.6494                                         !
 ! D106  D(40,42,44,48)        -19.9543                                         !
 ! D107  D(40,42,44,59)        163.5463                                         !
 ! D108  D(43,42,44,48)       -137.4109                                         !
 ! D109  D(43,42,44,59)         46.0897                                         !
 ! D110  D(45,42,44,48)        102.0736                                         !
 ! D111  D(45,42,44,59)        -74.4258                                         !
 ! D112  D(40,42,45,46)        173.1778                                         !
 ! D113  D(40,42,45,47)         58.6793                                         !
 ! D114  D(40,42,45,49)        -64.2428                                         !
 ! D115  D(43,42,45,46)        -67.4762                                         !
 ! D116  D(43,42,45,47)        178.0253                                         !
 ! D117  D(43,42,45,49)         55.1032                                         !
 ! D118  D(44,42,45,46)         51.7465                                         !
 ! D119  D(44,42,45,47)        -62.752                                          !
 ! D120  D(44,42,45,49)        174.326                                          !
 ! D121  D(42,44,59,60)         12.3535                                         !
 ! D122  D(42,44,59,61)        143.5149                                         !
 ! D123  D(48,44,59,60)       -163.948                                          !
 ! D124  D(48,44,59,61)        -32.7867                                         !
 ! D125  D(42,45,49,50)         57.3274                                         !
 ! D126  D(42,45,49,51)        175.1529                                         !
 ! D127  D(42,45,49,55)        -62.001                                          !
 ! D128  D(46,45,49,50)        179.0658                                         !
 ! D129  D(46,45,49,51)        -63.1087                                         !
 ! D130  D(46,45,49,55)         59.7374                                         !
 ! D131  D(47,45,49,50)        -64.5823                                         !
 ! D132  D(47,45,49,51)         53.2433                                         !
 ! D133  D(47,45,49,55)        176.0894                                         !
 ! D134  D(45,49,51,52)         61.9611                                         !
 ! D135  D(45,49,51,53)        -57.9401                                         !
 ! D136  D(45,49,51,54)       -178.3376                                         !
 ! D137  D(50,49,51,52)        179.9452                                         !
 ! D138  D(50,49,51,53)         60.044                                          !
 ! D139  D(50,49,51,54)        -60.3535                                         !
 ! D140  D(55,49,51,52)        -61.5124                                         !
 ! D141  D(55,49,51,53)        178.5864                                         !
 ! D142  D(55,49,51,54)         58.1889                                         !
 ! D143  D(45,49,55,56)        -56.3295                                         !
 ! D144  D(45,49,55,57)         64.3216                                         !
 ! D145  D(45,49,55,58)       -175.8377                                         !
 ! D146  D(50,49,55,56)       -175.7734                                         !
 ! D147  D(50,49,55,57)        -55.1224                                         !
 ! D148  D(50,49,55,58)         64.7184                                         !
 ! D149  D(51,49,55,56)         65.719                                          !
 ! D150  D(51,49,55,57)       -173.6299                                         !
 ! D151  D(51,49,55,58)        -53.7892                                         !
 ! D152  D(44,59,61,62)        -11.2977                                         !
 ! D153  D(44,59,61,63)       -126.1617                                         !
 ! D154  D(44,59,61,64)        113.0832                                         !
 ! D155  D(60,59,61,62)        125.4712                                         !
 ! D156  D(60,59,61,63)         10.6072                                         !
 ! D157  D(60,59,61,64)       -110.1479                                         !
 ! D158  D(59,61,63,67)        179.6428                                         !
 ! D159  D(59,61,63,83)         -0.83                                           !
 ! D160  D(62,61,63,67)         64.1303                                         !
 ! D161  D(62,61,63,83)       -116.3425                                         !
 ! D162  D(64,61,63,67)        -55.4409                                         !
 ! D163  D(64,61,63,83)        124.0863                                         !
 ! D164  D(59,61,64,65)        161.0246                                         !
 ! D165  D(59,61,64,66)         46.6867                                         !
 ! D166  D(59,61,64,68)        -79.0688                                         !
 ! D167  D(62,61,64,65)        -74.8963                                         !
 ! D168  D(62,61,64,66)        170.7659                                         !
 ! D169  D(62,61,64,68)         45.0103                                         !
 ! D170  D(63,61,64,65)         43.7588                                         !
 ! D171  D(63,61,64,66)        -70.5791                                         !
 ! D172  D(63,61,64,68)        163.6654                                         !
 ! D173  D(61,64,68,69)       -161.1028                                         !
 ! D174  D(61,64,68,70)        -44.5623                                         !
 ! D175  D(61,64,68,71)         77.4272                                         !
 ! D176  D(65,64,68,69)        -43.4208                                         !
 ! D177  D(65,64,68,70)         73.1197                                         !
 ! D178  D(65,64,68,71)       -164.8908                                         !
 ! D179  D(66,64,68,69)         73.5887                                         !
 ! D180  D(66,64,68,70)       -169.8708                                         !
 ! D181  D(66,64,68,71)        -47.8814                                         !
 ! D182  D(64,68,71,72)         67.2407                                         !
 ! D183  D(64,68,71,73)        -52.0                                            !
 ! D184  D(64,68,71,74)       -173.5439                                         !
 ! D185  D(69,68,71,72)        -55.2418                                         !
 ! D186  D(69,68,71,73)       -174.4826                                         !
 ! D187  D(69,68,71,74)         63.9735                                         !
 ! D188  D(70,68,71,72)       -170.7492                                         !
 ! D189  D(70,68,71,73)         70.0101                                         !
 ! D190  D(70,68,71,74)        -51.5339                                         !
 ! D191  D(68,71,74,75)        -76.9468                                         !
 ! D192  D(68,71,74,82)         84.5995                                         !
 ! D193  D(72,71,74,75)         44.7656                                         !
 ! D194  D(72,71,74,82)       -153.6881                                         !
 ! D195  D(73,71,74,75)        159.1695                                         !
 ! D196  D(73,71,74,82)        -39.2842                                         !
 ! D197  D(71,74,82,76)         -0.5611                                         !
 ! D198  D(71,74,82,79)        177.4423                                         !
 ! D199  D(75,74,82,76)        160.8904                                         !
 ! D200  D(75,74,82,79)        -21.1063                                         !
 ! D201  D(77,76,82,74)        154.2011                                         !
 ! D202  D(77,76,82,79)        -23.8134                                         !
 ! D203  D(78,76,82,74)          0.5041                                         !
 ! D204  D(78,76,82,79)       -177.5104                                         !
 ! D205  D(80,79,82,74)          3.2378                                         !
 ! D206  D(80,79,82,76)       -178.6989                                         !
 ! D207  D(81,79,82,74)        155.129                                          !
 ! D208  D(81,79,82,76)        -26.8077                                         !
 --------------------------------------------------------------------------------
 Symmetry turned off by external request.
 Stoichiometry    C23H45N8O7(1+)
 Framework group  C1[X(C23H45N8O7)]
 Deg. of freedom   243
 Full point group                 C1      NOp   1
                          Input orientation:                          
 ---------------------------------------------------------------------
 Center     Atomic      Atomic             Coordinates (Angstroms)
 Number     Number       Type             X           Y           Z
 ---------------------------------------------------------------------
      1          7           0       -8.940544    2.996434    4.690159
      2          1           0       -9.163519    2.514719    5.564427
      3          1           0       -8.200421    3.744185    4.871720
      4          1           0       -9.797532    3.418881    4.323878
      5          6           0       -8.234012    2.112452    3.678956
      6          1           0       -8.221261    1.095475    4.079426
      7          6           0       -6.799578    2.708786    3.658655
      8          6           0       -8.933398    2.135470    2.302013
      9          1           0       -8.307007    1.501206    1.661681
     10          8           0       -6.603626    3.764190    4.284184
     11          6           0      -10.329078    1.497709    2.372995
     12          1           0      -11.029702    2.094576    2.973331
     13          1           0      -10.294861    0.487332    2.794966
     14          1           0      -10.760005    1.428147    1.370153
     15          6           0       -8.969542    3.542768    1.685180
     16          1           0       -9.604568    4.234048    2.256017
     17          1           0       -7.972262    3.987065    1.609347
     18          1           0       -9.393443    3.492175    0.678512
     19          7           0       -5.898107    2.045167    2.952857
     20          1           0       -6.114734    1.201326    2.415015
     21          6           0       -4.506466    2.460004    2.775176
     22          1           0       -4.490232    3.501910    2.433792
     23          6           0       -3.977449    1.532864    1.654871
     24          6           0       -3.698573    2.328261    4.075347
     25          1           0       -2.665615    2.655861    3.926007
     26          1           0       -4.145319    2.953445    4.852346
     27          1           0       -3.683987    1.287110    4.412453
     28          8           0       -4.692192    0.627912    1.212934
     29          7           0       -2.724240    1.777515    1.245363
     30          1           0       -2.141750    2.487233    1.683835
     31          6           0       -1.983524    0.896621    0.355438
     32          1           0       -2.378694   -0.119587    0.438028
     33          6           0       -0.513789    1.002253    0.776431
     34          6           0       -2.110170    1.366200   -1.119824
     35          1           0       -3.173879    1.379418   -1.376450
     36          1           0       -1.724657    2.397792   -1.178089
     37          8           0       -0.098373    2.048476    1.276878
     38          8           0       -1.467281    0.501357   -2.031092
     39          1           0       -0.491341    0.523576   -1.863598
     40          7           0        0.261317   -0.067627    0.492390
     41          1           0       -0.161217   -0.825769   -0.030439
     42          6           0        1.709370    0.065679    0.383297
     43          1           0        2.047085    0.679940    1.220267
     44          6           0        2.076810    0.780378   -0.927043
     45          6           0        2.396663   -1.313662    0.410017
     46          1           0        3.464444   -1.165235    0.202342
     47          1           0        1.999931   -1.907451   -0.427733
     48          8           0        1.245219    0.817865   -1.877761
     49          6           0        2.230754   -2.092321    1.727932
     50          1           0        1.155174   -2.216304    1.927290
     51          6           0        2.855274   -3.487010    1.575197
     52          1           0        3.930450   -3.408700    1.373766
     53          1           0        2.399622   -4.043361    0.747218
     54          1           0        2.726473   -4.076884    2.489768
     55          6           0        2.857806   -1.344097    2.913477
     56          1           0        3.916866   -1.133896    2.719765
     57          1           0        2.355625   -0.390918    3.116478
     58          1           0        2.795269   -1.945789    3.827240
     59          7           0        3.307720    1.257417   -0.982125
     60          1           0        3.981141    0.943113   -0.234522
     61          6           0        4.158972    1.277724   -2.181306
     62          1           0        3.694693    0.659715   -2.958575
     63          6           0        5.504782    0.545546   -1.700669
     64          6           0        4.489688    2.656192   -2.752963
     65          1           0        5.369384    2.495226   -3.383913
     66          1           0        4.800425    3.328629   -1.941507
     67          8           0        6.375111    0.443012   -2.567963
     68          6           0        3.383331    3.305462   -3.597717
     69          1           0        3.807802    4.099607   -4.227512
     70          1           0        2.964792    2.554635   -4.281698
     71          6           0        2.249621    3.910979   -2.762938
     72          1           0        2.602907    4.772830   -2.189769
     73          1           0        1.846143    3.198199   -2.043019
     74          7           0        1.130823    4.390496   -3.603523
     75          1           0        1.275372    5.270194   -4.082674
     76          7           0        0.077608    2.320432   -3.769336
     77          1           0       -0.813524    1.832038   -3.756113
     78          1           0        0.795022    1.851150   -3.191003
     79          7           0       -0.871726    4.176372   -4.772082
     80          1           0       -0.836027    5.156990   -5.010581
     81          1           0       -1.389733    3.586728   -5.408593
     82          6           0        0.134336    3.617255   -4.048054
     83          8           0        5.478323    0.184685   -0.483773
 ---------------------------------------------------------------------
 Rotational constants (GHZ):           0.1467962           0.0356534           0.0309209
 Standard basis: 6-31G(d) (6D, 7F)
   660 basis functions,  1244 primitive gaussians,   660 cartesian basis functions
   147 alpha electrons      147 beta electrons
       nuclear repulsion energy      4526.3305632745 Hartrees.
 NAtoms=   83 NActive=   83 NUniq=   83 SFac= 1.00D+00 NAtFMM=   60 NAOKFM=T Big=T
 Integral buffers will be    131072 words long.
 Raffenetti 2 integral format.
 Two-electron integral symmetry is turned off.
 Nuclear repulsion after empirical dispersion term =     4526.2257524578 Hartrees.
 One-electron integrals computed using PRISM.
 NBasis=   660 RedAO= T EigKep=  1.81D-03  NBF=   660
 NBsUse=   660 1.00D-06 EigRej= -1.00D+00 NBFU=   660
 Initial guess from the checkpoint file:  "conf-746.chk"
 B after Tr=     0.000000    0.000000    0.000000
         Rot=    1.000000    0.000000    0.000000    0.000000 Ang=   0.00 deg.
 Requested convergence on RMS density matrix=1.00D-08 within 128 cycles.
 Requested convergence on MAX density matrix=1.00D-06.
 Requested convergence on             energy=1.00D-06.
 No special actions if energy rises.
 SCF Done:  E(RB3LYP) =  -1868.09057898     A.U. after    2 cycles
            NFock=  2  Conv=0.74D-08     -V/T= 2.0094

 **********************************************************************

            Population analysis using the SCF Density.

 **********************************************************************

 Alpha  occ. eigenvalues --  -19.28099 -19.23356 -19.22486 -19.20589 -19.20230
 Alpha  occ. eigenvalues --  -19.09132 -19.07767 -14.60921 -14.50520 -14.49206
 Alpha  occ. eigenvalues --  -14.49051 -14.46829 -14.46538 -14.44414 -14.39670
 Alpha  occ. eigenvalues --  -10.44784 -10.44691 -10.41686 -10.40385 -10.37462
 Alpha  occ. eigenvalues --  -10.36098 -10.35804 -10.35195 -10.32567 -10.32507
 Alpha  occ. eigenvalues --  -10.32085 -10.32001 -10.31331 -10.29746 -10.29404
 Alpha  occ. eigenvalues --  -10.26723 -10.25452 -10.24424 -10.23850 -10.23820
 Alpha  occ. eigenvalues --  -10.22431 -10.21554 -10.21326  -1.20470  -1.15442
 Alpha  occ. eigenvalues --   -1.14749  -1.13325  -1.12680  -1.10526  -1.09601
 Alpha  occ. eigenvalues --   -1.07289  -1.03341  -1.02809  -1.02145  -1.01057
 Alpha  occ. eigenvalues --   -1.00786  -0.97108  -0.96643  -0.93289  -0.90639
 Alpha  occ. eigenvalues --   -0.87306  -0.86624  -0.86152  -0.84391  -0.83183
 Alpha  occ. eigenvalues --   -0.81230  -0.79444  -0.78480  -0.75664  -0.75450
 Alpha  occ. eigenvalues --   -0.74936  -0.74664  -0.72834  -0.72618  -0.72361
 Alpha  occ. eigenvalues --   -0.71687  -0.70625  -0.70243  -0.69119  -0.68094
 Alpha  occ. eigenvalues --   -0.67391  -0.66581  -0.65304  -0.63697  -0.62828
 Alpha  occ. eigenvalues --   -0.62650  -0.61596  -0.61402  -0.60927  -0.60418
 Alpha  occ. eigenvalues --   -0.60060  -0.59866  -0.58861  -0.58215  -0.57092
 Alpha  occ. eigenvalues --   -0.56904  -0.56510  -0.56209  -0.55447  -0.54957
 Alpha  occ. eigenvalues --   -0.54548  -0.54094  -0.53457  -0.53286  -0.52425
 Alpha  occ. eigenvalues --   -0.52261  -0.51775  -0.51318  -0.50842  -0.50566
 Alpha  occ. eigenvalues --   -0.50320  -0.50050  -0.49583  -0.49472  -0.48922
 Alpha  occ. eigenvalues --   -0.48733  -0.48621  -0.48239  -0.47856  -0.47411
 Alpha  occ. eigenvalues --   -0.46982  -0.46459  -0.45735  -0.45243  -0.44187
 Alpha  occ. eigenvalues --   -0.43621  -0.42824  -0.42519  -0.42331  -0.41819
 Alpha  occ. eigenvalues --   -0.41019  -0.40844  -0.40477  -0.40004  -0.39613
 Alpha  occ. eigenvalues --   -0.38976  -0.38106  -0.37998  -0.37754  -0.37450
 Alpha  occ. eigenvalues --   -0.37222  -0.37117  -0.36646  -0.36220  -0.35328
 Alpha  occ. eigenvalues --   -0.35071  -0.34112  -0.33143  -0.31770  -0.24054
 Alpha  occ. eigenvalues --   -0.23966  -0.21805
 Alpha virt. eigenvalues --   -0.13433  -0.12452  -0.09394  -0.08906  -0.07903
 Alpha virt. eigenvalues --   -0.06787  -0.05493  -0.05247  -0.05005  -0.03565
 Alpha virt. eigenvalues --   -0.01990  -0.01622  -0.01163  -0.00721  -0.00052
 Alpha virt. eigenvalues --    0.00751   0.00910   0.01283   0.01683   0.02260
 Alpha virt. eigenvalues --    0.02735   0.03397   0.03989   0.04079   0.04425
 Alpha virt. eigenvalues --    0.04813   0.05074   0.05436   0.05805   0.05940
 Alpha virt. eigenvalues --    0.06533   0.06764   0.06953   0.07053   0.07640
 Alpha virt. eigenvalues --    0.07811   0.08253   0.08542   0.08680   0.09333
 Alpha virt. eigenvalues --    0.09473   0.09700   0.09996   0.10511   0.10700
 Alpha virt. eigenvalues --    0.10891   0.11048   0.11144   0.11524   0.11936
 Alpha virt. eigenvalues --    0.12540   0.12967   0.13120   0.13321   0.13940
 Alpha virt. eigenvalues --    0.14342   0.14903   0.15159   0.15241   0.15488
 Alpha virt. eigenvalues --    0.16111   0.16345   0.17305   0.17767   0.18368
 Alpha virt. eigenvalues --    0.18588   0.19011   0.19550   0.19880   0.20508
 Alpha virt. eigenvalues --    0.21297   0.22283   0.22532   0.22871   0.23237
 Alpha virt. eigenvalues --    0.24563   0.25188   0.25515   0.26806   0.28288
 Alpha virt. eigenvalues --    0.28619   0.29308   0.30610   0.32769   0.33692
 Alpha virt. eigenvalues --    0.33883   0.35502   0.35600   0.36417   0.37358
 Alpha virt. eigenvalues --    0.39033   0.39305   0.39898   0.41124   0.41411
 Alpha virt. eigenvalues --    0.41762   0.42019   0.43229   0.43466   0.44359
 Alpha virt. eigenvalues --    0.44667   0.44833   0.44975   0.45722   0.46150
 Alpha virt. eigenvalues --    0.46552   0.47101   0.47466   0.47608   0.48288
 Alpha virt. eigenvalues --    0.48582   0.48896   0.49247   0.49533   0.50536
 Alpha virt. eigenvalues --    0.50916   0.51242   0.51482   0.51757   0.52289
 Alpha virt. eigenvalues --    0.52953   0.53482   0.54270   0.54620   0.55494
 Alpha virt. eigenvalues --    0.55637   0.56181   0.56460   0.56576   0.57275
 Alpha virt. eigenvalues --    0.58024   0.58438   0.59004   0.59628   0.59978
 Alpha virt. eigenvalues --    0.60483   0.60725   0.60945   0.61425   0.61842
 Alpha virt. eigenvalues --    0.62461   0.62873   0.63256   0.63892   0.64424
 Alpha virt. eigenvalues --    0.64963   0.65411   0.66091   0.66365   0.66902
 Alpha virt. eigenvalues --    0.67564   0.67689   0.67961   0.68484   0.69091
 Alpha virt. eigenvalues --    0.69171   0.69349   0.69749   0.70940   0.71155
 Alpha virt. eigenvalues --    0.71593   0.71967   0.72618   0.72954   0.73599
 Alpha virt. eigenvalues --    0.73657   0.74190   0.74752   0.74817   0.75302
 Alpha virt. eigenvalues --    0.75505   0.75974   0.76200   0.76838   0.77211
 Alpha virt. eigenvalues --    0.77440   0.77849   0.78188   0.78401   0.78582
 Alpha virt. eigenvalues --    0.78962   0.79286   0.79952   0.80180   0.80552
 Alpha virt. eigenvalues --    0.80865   0.81230   0.81394   0.81858   0.82365
 Alpha virt. eigenvalues --    0.82720   0.83038   0.83219   0.83452   0.83964
 Alpha virt. eigenvalues --    0.84101   0.84654   0.84829   0.85597   0.85914
 Alpha virt. eigenvalues --    0.86463   0.86718   0.87086   0.87542   0.87704
 Alpha virt. eigenvalues --    0.87928   0.88428   0.88843   0.89103   0.89390
 Alpha virt. eigenvalues --    0.90199   0.90996   0.91210   0.91323   0.92036
 Alpha virt. eigenvalues --    0.92758   0.93001   0.93509   0.94226   0.94572
 Alpha virt. eigenvalues --    0.95399   0.95764   0.96036   0.97224   0.97885
 Alpha virt. eigenvalues --    0.98003   0.99324   0.99803   1.00666   1.01012
 Alpha virt. eigenvalues --    1.01375   1.02387   1.03002   1.05006   1.05472
 Alpha virt. eigenvalues --    1.06233   1.06772   1.07369   1.08222   1.09578
 Alpha virt. eigenvalues --    1.10134   1.11453   1.12347   1.13809   1.14627
 Alpha virt. eigenvalues --    1.15600   1.16034   1.16634   1.17285   1.17862
 Alpha virt. eigenvalues --    1.18372   1.19567   1.20381   1.21244   1.21678
 Alpha virt. eigenvalues --    1.22325   1.23090   1.24014   1.25586   1.26284
 Alpha virt. eigenvalues --    1.27969   1.28410   1.29035   1.30140   1.30457
 Alpha virt. eigenvalues --    1.31880   1.33426   1.34045   1.35130   1.35291
 Alpha virt. eigenvalues --    1.35961   1.36952   1.37867   1.38970   1.39706
 Alpha virt. eigenvalues --    1.40893   1.41749   1.41948   1.43135   1.44121
 Alpha virt. eigenvalues --    1.45532   1.45859   1.47899   1.48420   1.49263
 Alpha virt. eigenvalues --    1.49541   1.50074   1.50676   1.50933   1.53548
 Alpha virt. eigenvalues --    1.54533   1.54687   1.55358   1.56613   1.57401
 Alpha virt. eigenvalues --    1.57760   1.58145   1.58502   1.59579   1.60466
 Alpha virt. eigenvalues --    1.61167   1.61749   1.62469   1.62720   1.63561
 Alpha virt. eigenvalues --    1.63741   1.64220   1.64923   1.65570   1.65751
 Alpha virt. eigenvalues --    1.66835   1.67209   1.68017   1.68556   1.69304
 Alpha virt. eigenvalues --    1.70405   1.70919   1.72192   1.72429   1.72676
 Alpha virt. eigenvalues --    1.73343   1.73836   1.74479   1.74756   1.75629
 Alpha virt. eigenvalues --    1.76504   1.77024   1.77408   1.77865   1.78868
 Alpha virt. eigenvalues --    1.79502   1.79632   1.80181   1.80963   1.81546
 Alpha virt. eigenvalues --    1.81772   1.83079   1.83619   1.84388   1.84682
 Alpha virt. eigenvalues --    1.85017   1.85709   1.86376   1.86946   1.87242
 Alpha virt. eigenvalues --    1.87804   1.87944   1.88420   1.89145   1.89358
 Alpha virt. eigenvalues --    1.89857   1.90329   1.90783   1.92058   1.92170
 Alpha virt. eigenvalues --    1.92719   1.93860   1.93961   1.94443   1.94691
 Alpha virt. eigenvalues --    1.95309   1.96371   1.96531   1.97613   1.97697
 Alpha virt. eigenvalues --    1.98165   1.98476   1.98928   1.99487   1.99826
 Alpha virt. eigenvalues --    2.00394   2.01773   2.02428   2.03113   2.04305
 Alpha virt. eigenvalues --    2.05172   2.05557   2.07217   2.07349   2.07977
 Alpha virt. eigenvalues --    2.08608   2.11305   2.11396   2.11519   2.11995
 Alpha virt. eigenvalues --    2.12161   2.13485   2.13984   2.14504   2.15067
 Alpha virt. eigenvalues --    2.15809   2.17017   2.17631   2.18496   2.19193
 Alpha virt. eigenvalues --    2.19557   2.19830   2.20861   2.21657   2.22667
 Alpha virt. eigenvalues --    2.24118   2.24723   2.25335   2.25481   2.25790
 Alpha virt. eigenvalues --    2.26566   2.28730   2.29069   2.29695   2.30148
 Alpha virt. eigenvalues --    2.30763   2.32751   2.33683   2.34000   2.35424
 Alpha virt. eigenvalues --    2.37018   2.37278   2.37897   2.39684   2.40614
 Alpha virt. eigenvalues --    2.42096   2.43191   2.43340   2.44463   2.44504
 Alpha virt. eigenvalues --    2.45445   2.45466   2.46593   2.47044   2.47446
 Alpha virt. eigenvalues --    2.48538   2.49774   2.50808   2.52165   2.53368
 Alpha virt. eigenvalues --    2.54355   2.54685   2.55601   2.55986   2.56978
 Alpha virt. eigenvalues --    2.58184   2.58872   2.60851   2.62265   2.63755
 Alpha virt. eigenvalues --    2.64383   2.65172   2.67096   2.68422   2.70151
 Alpha virt. eigenvalues --    2.72407   2.73364   2.74261   2.76655   2.77703
 Alpha virt. eigenvalues --    2.78355   2.80640   2.81225   2.84315   2.84728
 Alpha virt. eigenvalues --    2.85993   2.86796   2.89493   2.90551   2.92957
 Alpha virt. eigenvalues --    2.93966   2.94535   2.97043   2.98830   3.01821
 Alpha virt. eigenvalues --    3.03581   3.07680   3.09374   3.11333   3.18636
 Alpha virt. eigenvalues --    3.63251   3.68395   3.81582   3.84977   3.89035
 Alpha virt. eigenvalues --    3.89855   3.92267   3.96314   3.97494   3.99872
 Alpha virt. eigenvalues --    4.01056   4.06327   4.06731   4.08740   4.12140
 Alpha virt. eigenvalues --    4.13164   4.15183   4.16418   4.16799   4.23778
 Alpha virt. eigenvalues --    4.24256   4.25346   4.27673   4.30501   4.31513
 Alpha virt. eigenvalues --    4.34026   4.35291   4.35483   4.37187   4.41095
 Alpha virt. eigenvalues --    4.46269   4.46916   4.49813   4.50388   4.51740
 Alpha virt. eigenvalues --    4.57602   4.60368   4.63740
          Condensed to atoms (all electrons):
 Mulliken charges:
               1
     1  N   -0.762843
     2  H    0.418354
     3  H    0.436144
     4  H    0.410841
     5  C   -0.100552
     6  H    0.216282
     7  C    0.657308
     8  C   -0.125677
     9  H    0.190756
    10  O   -0.548675
    11  C   -0.463061
    12  H    0.140575
    13  H    0.175292
    14  H    0.200993
    15  C   -0.476282
    16  H    0.143708
    17  H    0.185413
    18  H    0.198981
    19  N   -0.615302
    20  H    0.378263
    21  C   -0.052478
    22  H    0.195327
    23  C    0.625510
    24  C   -0.461901
    25  H    0.183820
    26  H    0.192827
    27  H    0.174109
    28  O   -0.541777
    29  N   -0.616592
    30  H    0.363340
    31  C   -0.073525
    32  H    0.189351
    33  C    0.601612
    34  C   -0.031462
    35  H    0.163982
    36  H    0.126633
    37  O   -0.539982
    38  O   -0.671942
    39  H    0.444596
    40  N   -0.586502
    41  H    0.341692
    42  C   -0.082426
    43  H    0.201312
    44  C    0.631657
    45  C   -0.313346
    46  H    0.214753
    47  H    0.132976
    48  O   -0.632613
    49  C   -0.066301
    50  H    0.112026
    51  C   -0.446780
    52  H    0.169012
    53  H    0.139036
    54  H    0.144768
    55  C   -0.459766
    56  H    0.174126
    57  H    0.138064
    58  H    0.146832
    59  N   -0.575890
    60  H    0.373949
    61  C   -0.102127
    62  H    0.146890
    63  C    0.599903
    64  C   -0.266232
    65  H    0.196516
    66  H    0.139118
    67  O   -0.552501
    68  C   -0.271307
    69  H    0.139424
    70  H    0.147831
    71  C   -0.187891
    72  H    0.180868
    73  H    0.204736
    74  N   -0.585923
    75  H    0.350120
    76  N   -0.792168
    77  H    0.373403
    78  H    0.439458
    79  N   -0.762047
    80  H    0.364199
    81  H    0.373933
    82  C    0.784311
    83  O   -0.609054
 Sum of Mulliken charges =   1.00000
 Mulliken charges with hydrogens summed into heavy atoms:
               1
     1  N    0.502495
     5  C    0.115730
     7  C    0.657308
     8  C    0.065079
    10  O   -0.548675
    11  C    0.053799
    15  C    0.051820
    19  N   -0.237039
    21  C    0.142849
    23  C    0.625510
    24  C    0.088855
    28  O   -0.541777
    29  N   -0.253252
    31  C    0.115826
    33  C    0.601612
    34  C    0.259153
    37  O   -0.539982
    38  O   -0.227346
    40  N   -0.244810
    42  C    0.118885
    44  C    0.631657
    45  C    0.034383
    48  O   -0.632613
    49  C    0.045725
    51  C    0.006035
    55  C   -0.000744
    59  N   -0.201941
    61  C    0.044763
    63  C    0.599903
    64  C    0.069401
    67  O   -0.552501
    68  C    0.015948
    71  C    0.197712
    74  N   -0.235802
    76  N    0.020694
    79  N   -0.023916
    82  C    0.784311
    83  O   -0.609054
 Electronic spatial extent (au):  <R**2>=          37449.6987
 Charge=              1.0000 electrons
 Dipole moment (field-independent basis, Debye):
    X=            -46.5313    Y=             20.3761    Z=              8.0833  Tot=             51.4362
 Quadrupole moment (field-independent basis, Debye-Ang):
   XX=              3.1351   YY=           -142.3993   ZZ=           -106.4532
   XY=            -86.2186   XZ=           -116.1364   YZ=            -20.7646
 Traceless Quadrupole moment (field-independent basis, Debye-Ang):
   XX=             85.0409   YY=            -60.4935   ZZ=            -24.5474
   XY=            -86.2186   XZ=           -116.1364   YZ=            -20.7646
 Octapole moment (field-independent basis, Debye-Ang**2):
  XXX=          -2839.7355  YYY=           -652.4992  ZZZ=            -57.8455  XYY=             51.6818
  XXY=            511.0069  XXZ=           1386.4628  XZZ=           -485.8697  YZZ=             99.1171
  YYZ=           -228.0245  XYZ=           -359.1333
 Hexadecapole moment (field-independent basis, Debye-Ang**3):
 XXXX=          -7113.4387 YYYY=          -5989.2986 ZZZZ=          -6555.0328 XXXY=          -4534.4105
 XXXZ=          -5466.2380 YYYX=           2783.3968 YYYZ=           -709.3483 ZZZX=           2537.0426
 ZZZY=            -39.0112 XXYY=          -3941.1929 XXZZ=          -1100.9736 YYZZ=          -1196.8571
 XXYZ=           3344.4750 YYXZ=            774.8174 ZZXY=           -610.0778
 N-N= 4.526225752458D+03 E-N=-1.337972212459D+04  KE= 1.850732009767D+03
 Unable to Open any file for archive entry.
 1\1\GINC-AMR-157\SP\RB3LYP\6-31G(d)\C23H45N8O7(1+)\KENGMITH\26-Jun-202
 2\0\\# B3LYP/6-31G* empiricaldispersion=gd3 guess=read geom=check nosy
 mm integral(ultrafinegrid)\\Candidate Structure: Conf:746 Charge calc 
 in gas phase\\1,1\N,0,-8.9405439138,2.9964341821,4.6901587113\H,0,-9.1
 635189778,2.5147187442,5.5644266958\H,0,-8.2004205228,3.7441846087,4.8
 717196924\H,0,-9.7975320544,3.4188807533,4.3238782293\C,0,-8.234011636
 5,2.1124524361,3.678956204\H,0,-8.2212613725,1.095475233,4.07942627\C,
 0,-6.7995778679,2.7087861296,3.6586554896\C,0,-8.9333980282,2.13547016
 32,2.302012979\H,0,-8.3070074142,1.5012062243,1.6616814368\O,0,-6.6036
 257012,3.7641902838,4.2841838691\C,0,-10.3290782434,1.4977087373,2.372
 9947633\H,0,-11.0297024592,2.094576216,2.9733308703\H,0,-10.2948605397
 ,0.4873316773,2.7949661224\H,0,-10.7600053535,1.4281471648,1.370153170
 9\C,0,-8.9695419284,3.5427682026,1.6851796334\H,0,-9.6045678243,4.2340
 47835,2.2560166891\H,0,-7.9722624945,3.9870652363,1.6093472191\H,0,-9.
 39344267,3.4921746695,0.6785116633\N,0,-5.8981068944,2.0451665875,2.95
 28569436\H,0,-6.1147335603,1.2013257501,2.4150153652\C,0,-4.5064661354
 ,2.4600036228,2.775175849\H,0,-4.4902316574,3.5019097344,2.4337924304\
 C,0,-3.9774489907,1.5328640568,1.6548711334\C,0,-3.6985734992,2.328260
 5319,4.0753468556\H,0,-2.6656145871,2.6558606801,3.9260070148\H,0,-4.1
 453185924,2.9534446533,4.8523455458\H,0,-3.6839870737,1.287110304,4.41
 24527628\O,0,-4.6921918682,0.6279118793,1.2129339096\N,0,-2.7242403139
 ,1.7775146616,1.2453625151\H,0,-2.1417495895,2.4872329261,1.6838347975
 \C,0,-1.9835241771,0.8966208223,0.355438189\H,0,-2.3786941025,-0.11958
 74706,0.4380277265\C,0,-0.5137889016,1.0022526551,0.7764309739\C,0,-2.
 1101697569,1.3662003196,-1.1198241531\H,0,-3.1738786457,1.3794181427,-
 1.376449937\H,0,-1.7246574978,2.3977916145,-1.1780892062\O,0,-0.098372
 9622,2.0484764504,1.2768783962\O,0,-1.4672806367,0.5013574751,-2.03109
 22817\H,0,-0.4913405183,0.5235757601,-1.8635976062\N,0,0.261317353,-0.
 067627078,0.4923899403\H,0,-0.1612167003,-0.8257689329,-0.0304387268\C
 ,0,1.7093700992,0.0656789766,0.3832972676\H,0,2.0470849068,0.679940294
 4,1.2202668723\C,0,2.0768097524,0.780378341,-0.9270434195\C,0,2.396663
 0404,-1.313661985,0.4100171752\H,0,3.4644444188,-1.1652348729,0.202341
 6505\H,0,1.9999311867,-1.9074511224,-0.4277325784\O,0,1.2452190603,0.8
 178651645,-1.8777606726\C,0,2.2307536947,-2.0923213783,1.7279324498\H,
 0,1.1551740666,-2.2163043112,1.9272901446\C,0,2.8552740506,-3.48701001
 76,1.5751974977\H,0,3.9304503406,-3.4086996798,1.3737656979\H,0,2.3996
 216885,-4.0433612386,0.7472180175\H,0,2.7264730641,-4.0768841402,2.489
 7681037\C,0,2.8578057513,-1.344097401,2.9134774854\H,0,3.9168660179,-1
 .1338959954,2.7197646127\H,0,2.3556253829,-0.3909183182,3.1164781419\H
 ,0,2.7952686182,-1.9457886074,3.8272404138\N,0,3.3077202028,1.25741717
 88,-0.9821248589\H,0,3.9811408784,0.9431128185,-0.2345215365\C,0,4.158
 9721896,1.2777244853,-2.1813055097\H,0,3.6946931428,0.6597151543,-2.95
 85753462\C,0,5.5047817762,0.5455464709,-1.7006690435\C,0,4.4896879605,
 2.6561923532,-2.7529633286\H,0,5.3693836637,2.495226118,-3.3839131357\
 H,0,4.8004249738,3.328628673,-1.9415073228\O,0,6.3751109992,0.44301167
 42,-2.5679631403\C,0,3.3833308047,3.3054615456,-3.5977165331\H,0,3.807
 8023396,4.0996071085,-4.2275122199\H,0,2.9647919905,2.5546353721,-4.28
 16983181\C,0,2.2496207541,3.9109791634,-2.7629375742\H,0,2.6029071456,
 4.7728303428,-2.1897692161\H,0,1.8461425917,3.1981989309,-2.0430187793
 \N,0,1.1308231279,4.3904962185,-3.6035234928\H,0,1.2753722908,5.270193
 9824,-4.0826738096\N,0,0.0776075901,2.3204322091,-3.7693364231\H,0,-0.
 8135244684,1.8320377589,-3.7561127895\H,0,0.7950215119,1.8511501725,-3
 .1910032051\N,0,-0.8717263078,4.1763718688,-4.7720821176\H,0,-0.836027
 2986,5.1569904013,-5.0105813157\H,0,-1.3897325785,3.5867282444,-5.4085
 926244\C,0,0.1343363528,3.6172554917,-4.0480537584\O,0,5.4783232773,0.
 1846851411,-0.4837726676\\Version=ES64L-G16RevC.01\HF=-1868.090579\RMS
 D=7.374e-09\Dipole=-16.2007025,5.1852686,2.7818293\Quadrupole=63.22580
 78,-44.9754074,-18.2504004,-64.1014064,-86.3445442,-15.4379475\PG=C01 
 [X(C23H45N8O7)]\\@
 The archive entry for this job was punched.


 Everywhere is walking distance if you have the time.
                                    -- Steven Wright
 Job cpu time:       0 days  0 hours  2 minutes 16.1 seconds.
 Elapsed time:       0 days  0 hours  0 minutes 34.6 seconds.
 File lengths (MBytes):  RWF=    344 Int=      0 D2E=      0 Chk=     48 Scr=     16
 Normal termination of Gaussian 16 at Sun Jun 26 14:46:20 2022.
