 Entering Gaussian System, Link 0=/opt/software/Gaussian/g16-AVX2-C.01/g16/g16
 Input=charge-conf-549.com
 Output=charge-conf-549.log
 Initial command:
 /opt/software/Gaussian/g16-AVX2-C.01/g16/l1.exe "/mnt/gs18/scratch/users/kengmith/Gau-42390.inp" -scrdir="/mnt/gs18/scratch/users/kengmith/"
 Entering Link 1 = /opt/software/Gaussian/g16-AVX2-C.01/g16/l1.exe PID=     42400.
  
 Copyright (c) 1988-2019, Gaussian, Inc.  All Rights Reserved.
  
 This is part of the Gaussian(R) 16 program.  It is based on
 the Gaussian(R) 09 system (copyright 2009, Gaussian, Inc.),
 the Gaussian(R) 03 system (copyright 2003, Gaussian, Inc.),
 the Gaussian(R) 98 system (copyright 1998, Gaussian, Inc.),
 the Gaussian(R) 94 system (copyright 1995, Gaussian, Inc.),
 the Gaussian 92(TM) system (copyright 1992, Gaussian, Inc.),
 the Gaussian 90(TM) system (copyright 1990, Gaussian, Inc.),
 the Gaussian 88(TM) system (copyright 1988, Gaussian, Inc.),
 the Gaussian 86(TM) system (copyright 1986, Carnegie Mellon
 University), and the Gaussian 82(TM) system (copyright 1983,
 Carnegie Mellon University). Gaussian is a federally registered
 trademark of Gaussian, Inc.
  
 This software contains proprietary and confidential information,
 including trade secrets, belonging to Gaussian, Inc.
  
 This software is provided under written license and may be
 used, copied, transmitted, or stored only in accord with that
 written license.
  
 The following legend is applicable only to US Government
 contracts under FAR:
  
                    RESTRICTED RIGHTS LEGEND
  
 Use, reproduction and disclosure by the US Government is
 subject to restrictions as set forth in subparagraphs (a)
 and (c) of the Commercial Computer Software - Restricted
 Rights clause in FAR 52.227-19.
  
 Gaussian, Inc.
 340 Quinnipiac St., Bldg. 40, Wallingford CT 06492
  
  
 ---------------------------------------------------------------
 Warning -- This program may not be used in any manner that
 competes with the business of Gaussian, Inc. or will provide
 assistance to any competitor of Gaussian, Inc.  The licensee
 of this program is prohibited from giving any competitor of
 Gaussian, Inc. access to this program.  By using this program,
 the user acknowledges that Gaussian, Inc. is engaged in the
 business of creating and licensing software in the field of
 computational chemistry and represents and warrants to the
 licensee that it is not a competitor of Gaussian, Inc. and that
 it will not use this program in any manner prohibited above.
 ---------------------------------------------------------------
  

 Cite this work as:
 Gaussian 16, Revision C.01,
 M. J. Frisch, G. W. Trucks, H. B. Schlegel, G. E. Scuseria, 
 M. A. Robb, J. R. Cheeseman, G. Scalmani, V. Barone, 
 G. A. Petersson, H. Nakatsuji, X. Li, M. Caricato, A. V. Marenich, 
 J. Bloino, B. G. Janesko, R. Gomperts, B. Mennucci, H. P. Hratchian, 
 J. V. Ortiz, A. F. Izmaylov, J. L. Sonnenberg, D. Williams-Young, 
 F. Ding, F. Lipparini, F. Egidi, J. Goings, B. Peng, A. Petrone, 
 T. Henderson, D. Ranasinghe, V. G. Zakrzewski, J. Gao, N. Rega, 
 G. Zheng, W. Liang, M. Hada, M. Ehara, K. Toyota, R. Fukuda, 
 J. Hasegawa, M. Ishida, T. Nakajima, Y. Honda, O. Kitao, H. Nakai, 
 T. Vreven, K. Throssell, J. A. Montgomery, Jr., J. E. Peralta, 
 F. Ogliaro, M. J. Bearpark, J. J. Heyd, E. N. Brothers, K. N. Kudin, 
 V. N. Staroverov, T. A. Keith, R. Kobayashi, J. Normand, 
 K. Raghavachari, A. P. Rendell, J. C. Burant, S. S. Iyengar, 
 J. Tomasi, M. Cossi, J. M. Millam, M. Klene, C. Adamo, R. Cammi, 
 J. W. Ochterski, R. L. Martin, K. Morokuma, O. Farkas, 
 J. B. Foresman, and D. J. Fox, Gaussian, Inc., Wallingford CT, 2019.
 
 ******************************************
 Gaussian 16:  ES64L-G16RevC.01  3-Jul-2019
                26-Jun-2022 
 ******************************************
 %mem=8gb
 %nproc=4
 Will use up to    4 processors via shared memory.
 %chk=conf-549.chk
 ----------------------------------------------------------------------
 # B3LYP/6-31G* empiricaldispersion=gd3 guess=read geom=check nosymm in
 tegral(ultrafinegrid)
 ----------------------------------------------------------------------
 1/29=2,38=1,172=1/1;
 2/12=2,15=1,40=1/2;
 3/5=1,6=6,7=1,11=2,14=-4,25=1,30=1,74=-5,75=-5,116=-2,124=31/1,2,3;
 4/5=1/1;
 5/5=2,38=6/2;
 6/7=2,8=2,9=2,10=2,28=1/1;
 99/5=1,9=1/99;
 ------------------------------------------------------
 Candidate Structure: Conf:549 Charge calc in gas phase
 ------------------------------------------------------
 Structure from the checkpoint file:  "conf-549.chk"
 Charge =  1 Multiplicity = 1
 Redundant internal coordinates found in file.  (old form).
 N,0,-7.9860485301,-0.6753612295,3.4814811404
 H,0,-8.7611344869,-0.0074054365,3.5100820304
 H,0,-7.4718373705,-0.5580249891,2.559175958
 H,0,-8.3644210599,-1.6199107553,3.5855473449
 C,0,-6.8887869026,-0.3635277442,4.4862373911
 H,0,-7.3110975471,0.280519787,5.2630725023
 C,0,-5.8657706593,0.3947638742,3.5975751872
 C,0,-6.345472357,-1.6736286775,5.1134270893
 H,0,-5.9372298435,-2.2802453686,4.2934476202
 O,0,-5.9645106725,0.2575024233,2.372256311
 C,0,-5.2000695597,-1.3767629196,6.0957679792
 H,0,-5.5104217521,-0.6523593444,6.8616281227
 H,0,-4.3113452756,-1.0247918706,5.5689346206
 H,0,-4.9260372801,-2.2975834066,6.6185477127
 C,0,-7.4679153843,-2.4477998602,5.8283825574
 H,0,-7.9020396513,-1.8524623873,6.6405811029
 H,0,-8.2882804302,-2.7713266834,5.1721435246
 H,0,-7.0582171062,-3.3617867446,6.26710505
 N,0,-4.9691170468,1.1842114813,4.2007950894
 H,0,-4.8812875236,1.1107786143,5.2069517082
 C,0,-3.7686542073,1.6071572815,3.4753010486
 H,0,-4.0991881238,2.0873903121,2.5493266268
 C,0,-2.9412940667,0.3408531826,3.1142389133
 C,0,-2.9658903105,2.5911035247,4.3313607088
 H,0,-2.0860626004,2.9411194209,3.7859669326
 H,0,-3.5740460645,3.4615753547,4.5957286346
 H,0,-2.6140408227,2.1089682084,5.2512576824
 O,0,-3.2067563356,-0.7578900041,3.6049456115
 N,0,-1.9336845796,0.5641889973,2.2589383519
 H,0,-1.7163649308,1.4893507441,1.8936966461
 C,0,-0.973041161,-0.4501950406,1.8633373884
 H,0,-0.7133391847,-1.0695819544,2.7278972987
 C,0,0.2496708552,0.2970199554,1.3251947141
 C,0,-1.5546749244,-1.3848651831,0.7598363437
 H,0,-2.4449217624,-1.8627697329,1.1811154751
 H,0,-1.8623399209,-0.7618387733,-0.0921883992
 O,0,0.1834770358,1.4914725142,1.0332648331
 O,0,-0.6406969723,-2.3879192021,0.3826111231
 H,0,-0.0953817818,-2.0211050706,-0.3534687013
 N,0,1.3579944495,-0.4711362504,1.1684129804
 H,0,1.1944358879,-1.4710676973,1.2440214851
 C,0,2.3920759389,-0.0737784376,0.2254604985
 H,0,2.5415203163,1.0018615279,0.3449941266
 C,0,1.901698834,-0.3339595427,-1.2190541129
 C,0,3.7021448829,-0.8323317759,0.5037097143
 H,0,4.4515022166,-0.5043091832,-0.2275595928
 H,0,3.5329891503,-1.9013814573,0.3081261391
 O,0,0.9129923688,-1.0471620125,-1.4656310697
 C,0,4.2649734401,-0.6518342649,1.925928077
 H,0,3.5150817226,-1.028268792,2.6358748249
 C,0,5.5407220551,-1.4911322516,2.0859545886
 H,0,6.3258731163,-1.1418535562,1.4033402118
 H,0,5.3554347649,-2.5498410249,1.8685348424
 H,0,5.931668754,-1.4201417322,3.107198933
 C,0,4.5340198881,0.8226485272,2.2579541219
 H,0,5.2225461054,1.2682362215,1.528040519
 H,0,3.6144082356,1.4182337416,2.2647053345
 H,0,4.9937400056,0.9179374777,3.2480970812
 N,0,2.6424909431,0.2369669134,-2.1717353134
 H,0,3.4427107449,0.8343149992,-1.9656404077
 C,0,2.4662143094,0.0398491009,-3.6058079262
 H,0,2.243540126,-1.0178527261,-3.7814430122
 C,0,3.8366295012,0.403644809,-4.2595058626
 C,0,1.2868669471,0.9159561813,-4.095441499
 H,0,1.4712160942,1.9340017305,-3.7320376848
 H,0,0.3908282161,0.5500821449,-3.5790639652
 O,0,4.0751935618,-0.2090840929,-5.3578521328
 C,0,1.0036459968,1.0054733761,-5.6062576472
 H,0,0.1091121535,1.6295710472,-5.7274850965
 H,0,1.8200144143,1.5353823872,-6.112543624
 C,0,0.7578389503,-0.3255337519,-6.3538688836
 H,0,0.1133010658,-0.1550207429,-7.2211218364
 H,0,0.2514053889,-1.0523381039,-5.7103518085
 N,0,2.0286724454,-0.9197150931,-6.8038201439
 H,0,2.7733073327,-0.8850956518,-6.0561151489
 N,0,1.8465972472,-0.5681536413,-9.1133184806
 H,0,2.2653044429,-0.2954089822,-9.9898588721
 H,0,0.972389764,-1.0698349479,-9.1564024822
 N,0,3.9023001684,-0.379148002,-8.0258232894
 H,0,4.3739710824,-0.1970992244,-7.1230933477
 H,0,4.4288281672,-0.436065074,-8.8848030463
 C,0,2.5899399944,-0.6259053457,-7.9821467511
 O,0,4.5469158172,1.2247613557,-3.6699012954
 Recover connectivity data from disk.
                           ----------------------------
                           !    Current Parameters    !
                           ! (Angstroms and Degrees)  !
 --------------------------                            --------------------------
 ! Name  Definition              Value                                          !
 --------------------------------------------------------------------------------
 ! R1    R(1,2)                  1.0236                                         !
 ! R2    R(1,3)                  1.0625                                         !
 ! R3    R(1,4)                  1.0228                                         !
 ! R4    R(1,5)                  1.5201                                         !
 ! R5    R(5,6)                  1.0939                                         !
 ! R6    R(5,7)                  1.5528                                         !
 ! R7    R(5,8)                  1.5508                                         !
 ! R8    R(7,10)                 1.2369                                         !
 ! R9    R(7,19)                 1.3383                                         !
 ! R10   R(8,9)                  1.0986                                         !
 ! R11   R(8,11)                 1.5379                                         !
 ! R12   R(8,15)                 1.5396                                         !
 ! R13   R(11,12)                1.0989                                         !
 ! R14   R(11,13)                1.0915                                         !
 ! R15   R(11,14)                1.0938                                         !
 ! R16   R(15,16)                1.0966                                         !
 ! R17   R(15,17)                1.0992                                         !
 ! R18   R(15,18)                1.0935                                         !
 ! R19   R(19,20)                1.0126                                         !
 ! R20   R(19,21)                1.465                                          !
 ! R21   R(21,22)                1.0942                                         !
 ! R22   R(21,23)                1.5551                                         !
 ! R23   R(21,24)                1.5315                                         !
 ! R24   R(23,28)                1.2323                                         !
 ! R25   R(23,29)                1.3404                                         !
 ! R26   R(24,25)                1.0927                                         !
 ! R27   R(24,26)                1.0943                                         !
 ! R28   R(24,27)                1.0966                                         !
 ! R29   R(29,30)                1.0181                                         !
 ! R30   R(29,31)                1.452                                          !
 ! R31   R(31,32)                1.0948                                         !
 ! R32   R(31,33)                1.5307                                         !
 ! R33   R(31,34)                1.5587                                         !
 ! R34   R(33,37)                1.2314                                         !
 ! R35   R(33,40)                1.3576                                         !
 ! R36   R(34,35)                1.0947                                         !
 ! R37   R(34,36)                1.0994                                         !
 ! R38   R(34,38)                1.4085                                         !
 ! R39   R(38,39)                0.9868                                         !
 ! R40   R(40,41)                1.016                                          !
 ! R41   R(40,42)                1.4548                                         !
 ! R42   R(42,43)                1.0925                                         !
 ! R43   R(42,44)                1.5475                                         !
 ! R44   R(42,45)                1.5392                                         !
 ! R45   R(44,48)                1.2438                                         !
 ! R46   R(44,59)                1.335                                          !
 ! R47   R(45,46)                1.0972                                         !
 ! R48   R(45,47)                1.0999                                         !
 ! R49   R(45,49)                1.5401                                         !
 ! R50   R(49,50)                1.0991                                         !
 ! R51   R(49,51)                1.5354                                         !
 ! R52   R(49,55)                1.5352                                         !
 ! R53   R(51,52)                1.0975                                         !
 ! R54   R(51,53)                1.0966                                         !
 ! R55   R(51,54)                1.0958                                         !
 ! R56   R(55,56)                1.0979                                         !
 ! R57   R(55,57)                1.0957                                         !
 ! R58   R(55,58)                1.0958                                         !
 ! R59   R(59,60)                1.0196                                         !
 ! R60   R(59,61)                1.4583                                         !
 ! R61   R(61,62)                1.0951                                         !
 ! R62   R(61,63)                1.5613                                         !
 ! R63   R(61,64)                1.5486                                         !
 ! R64   R(63,67)                1.2801                                         !
 ! R65   R(63,83)                1.2355                                         !
 ! R66   R(64,65)                1.0966                                         !
 ! R67   R(64,66)                1.097                                          !
 ! R68   R(64,68)                1.5397                                         !
 ! R69   R(68,69)                1.0974                                         !
 ! R70   R(68,70)                1.0971                                         !
 ! R71   R(68,71)                1.5463                                         !
 ! R72   R(71,72)                1.0939                                         !
 ! R73   R(71,73)                1.0949                                         !
 ! R74   R(71,74)                1.4733                                         !
 ! R75   R(74,75)                1.0558                                         !
 ! R76   R(74,82)                1.3378                                         !
 ! R77   R(76,77)                1.009                                          !
 ! R78   R(76,78)                1.0089                                         !
 ! R79   R(76,82)                1.3548                                         !
 ! R80   R(79,80)                1.0347                                         !
 ! R81   R(79,81)                1.0091                                         !
 ! R82   R(79,82)                1.3361                                         !
 ! A1    A(2,1,3)              108.5824                                         !
 ! A2    A(2,1,4)              108.6424                                         !
 ! A3    A(2,1,5)              113.2192                                         !
 ! A4    A(3,1,4)              111.6753                                         !
 ! A5    A(3,1,5)              101.6407                                         !
 ! A6    A(4,1,5)              112.9056                                         !
 ! A7    A(1,5,6)              108.1497                                         !
 ! A8    A(1,5,7)              101.3881                                         !
 ! A9    A(1,5,8)              110.2985                                         !
 ! A10   A(6,5,7)              111.9155                                         !
 ! A11   A(6,5,8)              110.2082                                         !
 ! A12   A(7,5,8)              114.4047                                         !
 ! A13   A(5,7,10)             117.3957                                         !
 ! A14   A(5,7,19)             118.1318                                         !
 ! A15   A(10,7,19)            124.4329                                         !
 ! A16   A(5,8,9)              107.145                                          !
 ! A17   A(5,8,11)             110.867                                          !
 ! A18   A(5,8,15)             110.9275                                         !
 ! A19   A(9,8,11)             107.8529                                         !
 ! A20   A(9,8,15)             109.8679                                         !
 ! A21   A(11,8,15)            110.0859                                         !
 ! A22   A(8,11,12)            111.2277                                         !
 ! A23   A(8,11,13)            111.1235                                         !
 ! A24   A(8,11,14)            109.2321                                         !
 ! A25   A(12,11,13)           110.7187                                         !
 ! A26   A(12,11,14)           107.015                                          !
 ! A27   A(13,11,14)           107.3493                                         !
 ! A28   A(8,15,16)            111.0735                                         !
 ! A29   A(8,15,17)            114.5102                                         !
 ! A30   A(8,15,18)            109.4788                                         !
 ! A31   A(16,15,17)           107.8483                                         !
 ! A32   A(16,15,18)           107.7545                                         !
 ! A33   A(17,15,18)           105.8511                                         !
 ! A34   A(7,19,20)            117.5922                                         !
 ! A35   A(7,19,21)            119.7411                                         !
 ! A36   A(20,19,21)           116.2249                                         !
 ! A37   A(19,21,22)           107.3523                                         !
 ! A38   A(19,21,23)           108.4116                                         !
 ! A39   A(19,21,24)           109.7664                                         !
 ! A40   A(22,21,23)           108.7601                                         !
 ! A41   A(22,21,24)           110.4504                                         !
 ! A42   A(23,21,24)           111.9666                                         !
 ! A43   A(21,23,28)           121.2636                                         !
 ! A44   A(21,23,29)           114.3561                                         !
 ! A45   A(28,23,29)           124.3743                                         !
 ! A46   A(21,24,25)           110.4171                                         !
 ! A47   A(21,24,26)           110.7814                                         !
 ! A48   A(21,24,27)           110.7704                                         !
 ! A49   A(25,24,26)           108.2555                                         !
 ! A50   A(25,24,27)           107.5287                                         !
 ! A51   A(26,24,27)           108.9901                                         !
 ! A52   A(23,29,30)           122.7363                                         !
 ! A53   A(23,29,31)           123.6958                                         !
 ! A54   A(30,29,31)           113.3201                                         !
 ! A55   A(29,31,32)           109.6962                                         !
 ! A56   A(29,31,33)           106.4538                                         !
 ! A57   A(29,31,34)           111.4028                                         !
 ! A58   A(32,31,33)           111.3665                                         !
 ! A59   A(32,31,34)           107.9592                                         !
 ! A60   A(33,31,34)           109.9925                                         !
 ! A61   A(31,33,37)           120.9258                                         !
 ! A62   A(31,33,40)           114.6157                                         !
 ! A63   A(37,33,40)           124.4274                                         !
 ! A64   A(31,34,35)           107.0248                                         !
 ! A65   A(31,34,36)           108.2556                                         !
 ! A66   A(31,34,38)           111.9938                                         !
 ! A67   A(35,34,36)           108.5447                                         !
 ! A68   A(35,34,38)           108.6559                                         !
 ! A69   A(36,34,38)           112.1852                                         !
 ! A70   A(34,38,39)           107.0771                                         !
 ! A71   A(33,40,41)           114.6355                                         !
 ! A72   A(33,40,42)           120.0406                                         !
 ! A73   A(41,40,42)           115.5609                                         !
 ! A74   A(40,42,43)           107.1714                                         !
 ! A75   A(40,42,44)           109.5038                                         !
 ! A76   A(40,42,45)           110.6845                                         !
 ! A77   A(43,42,44)           108.1197                                         !
 ! A78   A(43,42,45)           110.4263                                         !
 ! A79   A(44,42,45)           110.8301                                         !
 ! A80   A(42,44,48)           122.2324                                         !
 ! A81   A(42,44,59)           114.7318                                         !
 ! A82   A(48,44,59)           123.0135                                         !
 ! A83   A(42,45,46)           108.269                                          !
 ! A84   A(42,45,47)           108.4191                                         !
 ! A85   A(42,45,49)           114.8483                                         !
 ! A86   A(46,45,47)           106.0872                                         !
 ! A87   A(46,45,49)           109.319                                          !
 ! A88   A(47,45,49)           109.5311                                         !
 ! A89   A(45,49,50)           107.8786                                         !
 ! A90   A(45,49,51)           109.6219                                         !
 ! A91   A(45,49,55)           112.1064                                         !
 ! A92   A(50,49,51)           108.2006                                         !
 ! A93   A(50,49,55)           107.9881                                         !
 ! A94   A(51,49,55)           110.9072                                         !
 ! A95   A(49,51,52)           110.8322                                         !
 ! A96   A(49,51,53)           111.5116                                         !
 ! A97   A(49,51,54)           110.9861                                         !
 ! A98   A(52,51,53)           107.7481                                         !
 ! A99   A(52,51,54)           107.6866                                         !
 ! A100  A(53,51,54)           107.9151                                         !
 ! A101  A(49,55,56)           110.8505                                         !
 ! A102  A(49,55,57)           112.1071                                         !
 ! A103  A(49,55,58)           110.6384                                         !
 ! A104  A(56,55,57)           108.0499                                         !
 ! A105  A(56,55,58)           107.5975                                         !
 ! A106  A(57,55,58)           107.4145                                         !
 ! A107  A(44,59,60)           122.8048                                         !
 ! A108  A(44,59,61)           125.2317                                         !
 ! A109  A(60,59,61)           111.8907                                         !
 ! A110  A(59,61,62)           108.2324                                         !
 ! A111  A(59,61,63)           105.911                                          !
 ! A112  A(59,61,64)           109.0577                                         !
 ! A113  A(62,61,63)           109.6568                                         !
 ! A114  A(62,61,64)           109.9299                                         !
 ! A115  A(63,61,64)           113.8437                                         !
 ! A116  A(61,63,67)           114.2851                                         !
 ! A117  A(61,63,83)           117.3659                                         !
 ! A118  A(67,63,83)           128.3487                                         !
 ! A119  A(61,64,65)           107.0028                                         !
 ! A120  A(61,64,66)           106.5307                                         !
 ! A121  A(61,64,68)           118.8954                                         !
 ! A122  A(65,64,66)           106.9156                                         !
 ! A123  A(65,64,68)           107.5852                                         !
 ! A124  A(66,64,68)           109.3309                                         !
 ! A125  A(64,68,69)           106.9407                                         !
 ! A126  A(64,68,70)           110.1221                                         !
 ! A127  A(64,68,71)           116.9756                                         !
 ! A128  A(69,68,70)           106.3129                                         !
 ! A129  A(69,68,71)           107.8503                                         !
 ! A130  A(70,68,71)           108.1161                                         !
 ! A131  A(68,71,72)           110.048                                          !
 ! A132  A(68,71,73)           111.1466                                         !
 ! A133  A(68,71,74)           110.9592                                         !
 ! A134  A(72,71,73)           107.2715                                         !
 ! A135  A(72,71,74)           109.207                                          !
 ! A136  A(73,71,74)           108.1051                                         !
 ! A137  A(71,74,75)           112.2627                                         !
 ! A138  A(71,74,82)           122.8411                                         !
 ! A139  A(75,74,82)           108.7027                                         !
 ! A140  A(77,76,78)           117.1887                                         !
 ! A141  A(77,76,82)           120.6095                                         !
 ! A142  A(78,76,82)           119.3347                                         !
 ! A143  A(80,79,81)           120.9801                                         !
 ! A144  A(80,79,82)           116.8561                                         !
 ! A145  A(81,79,82)           122.0001                                         !
 ! A146  A(74,82,76)           120.9686                                         !
 ! A147  A(74,82,79)           118.7797                                         !
 ! A148  A(76,82,79)           120.25                                           !
 ! D1    D(2,1,5,6)             20.2719                                         !
 ! D2    D(2,1,5,7)            -97.5482                                         !
 ! D3    D(2,1,5,8)            140.8585                                         !
 ! D4    D(3,1,5,6)            136.5299                                         !
 ! D5    D(3,1,5,7)             18.7098                                         !
 ! D6    D(3,1,5,8)           -102.8835                                         !
 ! D7    D(4,1,5,6)           -103.706                                          !
 ! D8    D(4,1,5,7)            138.4739                                         !
 ! D9    D(4,1,5,8)             16.8806                                         !
 ! D10   D(1,5,7,10)           -18.3719                                         !
 ! D11   D(1,5,7,19)           159.4405                                         !
 ! D12   D(6,5,7,10)          -133.4303                                         !
 ! D13   D(6,5,7,19)            44.3822                                         !
 ! D14   D(8,5,7,10)           100.3127                                         !
 ! D15   D(8,5,7,19)           -81.8749                                         !
 ! D16   D(1,5,8,9)             60.5504                                         !
 ! D17   D(1,5,8,11)           177.999                                          !
 ! D18   D(1,5,8,15)           -59.367                                          !
 ! D19   D(6,5,8,9)            179.8951                                         !
 ! D20   D(6,5,8,11)           -62.6563                                         !
 ! D21   D(6,5,8,15)            59.9776                                         !
 ! D22   D(7,5,8,9)            -52.9657                                         !
 ! D23   D(7,5,8,11)            64.4829                                         !
 ! D24   D(7,5,8,15)          -172.8831                                         !
 ! D25   D(5,7,19,20)           11.7198                                         !
 ! D26   D(5,7,19,21)          162.5098                                         !
 ! D27   D(10,7,19,20)        -170.635                                          !
 ! D28   D(10,7,19,21)         -19.845                                          !
 ! D29   D(5,8,11,12)           54.7301                                         !
 ! D30   D(5,8,11,13)          -69.1141                                         !
 ! D31   D(5,8,11,14)          172.6338                                         !
 ! D32   D(9,8,11,12)          171.745                                          !
 ! D33   D(9,8,11,13)           47.9008                                         !
 ! D34   D(9,8,11,14)          -70.3513                                         !
 ! D35   D(15,8,11,12)         -68.3908                                         !
 ! D36   D(15,8,11,13)         167.7649                                         !
 ! D37   D(15,8,11,14)          49.5128                                         !
 ! D38   D(5,8,15,16)          -60.7234                                         !
 ! D39   D(5,8,15,17)           61.7351                                         !
 ! D40   D(5,8,15,18)         -179.6004                                         !
 ! D41   D(9,8,15,16)         -179.003                                          !
 ! D42   D(9,8,15,17)          -56.5446                                         !
 ! D43   D(9,8,15,18)           62.12                                           !
 ! D44   D(11,8,15,16)          62.3621                                         !
 ! D45   D(11,8,15,17)        -175.1794                                         !
 ! D46   D(11,8,15,18)         -56.5149                                         !
 ! D47   D(7,19,21,22)          55.2088                                         !
 ! D48   D(7,19,21,23)         -62.1223                                         !
 ! D49   D(7,19,21,24)         175.2924                                         !
 ! D50   D(20,19,21,22)       -153.6163                                         !
 ! D51   D(20,19,21,23)         89.0526                                         !
 ! D52   D(20,19,21,24)        -33.5327                                         !
 ! D53   D(19,21,23,28)        -11.3976                                         !
 ! D54   D(19,21,23,29)        169.4641                                         !
 ! D55   D(22,21,23,28)       -127.8232                                         !
 ! D56   D(22,21,23,29)         53.0385                                         !
 ! D57   D(24,21,23,28)        109.8408                                         !
 ! D58   D(24,21,23,29)        -69.2975                                         !
 ! D59   D(19,21,24,25)       -177.9866                                         !
 ! D60   D(19,21,24,26)        -58.0677                                         !
 ! D61   D(19,21,24,27)         63.0082                                         !
 ! D62   D(22,21,24,25)        -59.8067                                         !
 ! D63   D(22,21,24,26)         60.1122                                         !
 ! D64   D(22,21,24,27)       -178.8119                                         !
 ! D65   D(23,21,24,25)         61.5602                                         !
 ! D66   D(23,21,24,26)       -178.5209                                         !
 ! D67   D(23,21,24,27)        -57.4451                                         !
 ! D68   D(21,23,29,30)          1.3206                                         !
 ! D69   D(21,23,29,31)        175.2174                                         !
 ! D70   D(28,23,29,30)       -177.787                                          !
 ! D71   D(28,23,29,31)         -3.8902                                         !
 ! D72   D(23,29,31,32)        -39.2227                                         !
 ! D73   D(23,29,31,33)       -159.8347                                         !
 ! D74   D(23,29,31,34)         80.254                                          !
 ! D75   D(30,29,31,32)        135.1884                                         !
 ! D76   D(30,29,31,33)         14.5765                                         !
 ! D77   D(30,29,31,34)       -105.3349                                         !
 ! D78   D(29,31,33,37)        -15.1279                                         !
 ! D79   D(29,31,33,40)        166.8143                                         !
 ! D80   D(32,31,33,37)       -134.6595                                         !
 ! D81   D(32,31,33,40)         47.2827                                         !
 ! D82   D(34,31,33,37)        105.6929                                         !
 ! D83   D(34,31,33,40)        -72.3649                                         !
 ! D84   D(29,31,34,35)        -60.0285                                         !
 ! D85   D(29,31,34,36)         56.7955                                         !
 ! D86   D(29,31,34,38)       -179.0067                                         !
 ! D87   D(32,31,34,35)         60.4744                                         !
 ! D88   D(32,31,34,36)        177.2985                                         !
 ! D89   D(32,31,34,38)        -58.5038                                         !
 ! D90   D(33,31,34,35)       -177.825                                          !
 ! D91   D(33,31,34,36)        -61.0009                                         !
 ! D92   D(33,31,34,38)         63.1968                                         !
 ! D93   D(31,33,40,41)         11.8355                                         !
 ! D94   D(31,33,40,42)        156.2778                                         !
 ! D95   D(37,33,40,41)       -166.1446                                         !
 ! D96   D(37,33,40,42)        -21.7023                                         !
 ! D97   D(31,34,38,39)        -89.289                                          !
 ! D98   D(35,34,38,39)        152.6999                                         !
 ! D99   D(36,34,38,39)         32.6867                                         !
 ! D100  D(33,40,42,43)         42.9036                                         !
 ! D101  D(33,40,42,44)        -74.1468                                         !
 ! D102  D(33,40,42,45)        163.3759                                         !
 ! D103  D(41,40,42,43)       -172.9657                                         !
 ! D104  D(41,40,42,44)         69.9838                                         !
 ! D105  D(41,40,42,45)        -52.4934                                         !
 ! D106  D(40,42,44,48)        -14.7053                                         !
 ! D107  D(40,42,44,59)        166.9612                                         !
 ! D108  D(43,42,44,48)       -131.1574                                         !
 ! D109  D(43,42,44,59)         50.5092                                         !
 ! D110  D(45,42,44,48)        107.6851                                         !
 ! D111  D(45,42,44,59)        -70.6484                                         !
 ! D112  D(40,42,45,46)        179.9596                                         !
 ! D113  D(40,42,45,47)         65.2826                                         !
 ! D114  D(40,42,45,49)        -57.5741                                         !
 ! D115  D(43,42,45,46)        -61.5274                                         !
 ! D116  D(43,42,45,47)       -176.2044                                         !
 ! D117  D(43,42,45,49)         60.9389                                         !
 ! D118  D(44,42,45,46)         58.2592                                         !
 ! D119  D(44,42,45,47)        -56.4178                                         !
 ! D120  D(44,42,45,49)       -179.2745                                         !
 ! D121  D(42,44,59,60)         -2.7784                                         !
 ! D122  D(42,44,59,61)        173.8606                                         !
 ! D123  D(48,44,59,60)        178.9027                                         !
 ! D124  D(48,44,59,61)         -4.4582                                         !
 ! D125  D(42,45,49,50)         60.5839                                         !
 ! D126  D(42,45,49,51)        178.1927                                         !
 ! D127  D(42,45,49,55)        -58.184                                          !
 ! D128  D(46,45,49,50)       -177.5176                                         !
 ! D129  D(46,45,49,51)        -59.9088                                         !
 ! D130  D(46,45,49,55)         63.7144                                         !
 ! D131  D(47,45,49,50)        -61.6739                                         !
 ! D132  D(47,45,49,51)         55.9349                                         !
 ! D133  D(47,45,49,55)        179.5581                                         !
 ! D134  D(45,49,51,52)         63.3369                                         !
 ! D135  D(45,49,51,53)        -56.6994                                         !
 ! D136  D(45,49,51,54)       -177.0518                                         !
 ! D137  D(50,49,51,52)       -179.2557                                         !
 ! D138  D(50,49,51,53)         60.7079                                         !
 ! D139  D(50,49,51,54)        -59.6445                                         !
 ! D140  D(55,49,51,52)        -60.9876                                         !
 ! D141  D(55,49,51,53)        178.9761                                         !
 ! D142  D(55,49,51,54)         58.6237                                         !
 ! D143  D(45,49,55,56)        -57.034                                          !
 ! D144  D(45,49,55,57)         63.8018                                         !
 ! D145  D(45,49,55,58)       -176.3189                                         !
 ! D146  D(50,49,55,56)       -175.7373                                         !
 ! D147  D(50,49,55,57)        -54.9015                                         !
 ! D148  D(50,49,55,58)         64.9778                                         !
 ! D149  D(51,49,55,56)         65.8658                                         !
 ! D150  D(51,49,55,57)       -173.2984                                         !
 ! D151  D(51,49,55,58)        -53.4191                                         !
 ! D152  D(44,59,61,62)        -40.2731                                         !
 ! D153  D(44,59,61,63)       -157.8009                                         !
 ! D154  D(44,59,61,64)         79.2975                                         !
 ! D155  D(60,59,61,62)        136.6827                                         !
 ! D156  D(60,59,61,63)         19.155                                          !
 ! D157  D(60,59,61,64)       -103.7467                                         !
 ! D158  D(59,61,63,67)        151.8912                                         !
 ! D159  D(59,61,63,83)        -27.9172                                         !
 ! D160  D(62,61,63,67)         35.321                                          !
 ! D161  D(62,61,63,83)       -144.4874                                         !
 ! D162  D(64,61,63,67)        -88.2939                                         !
 ! D163  D(64,61,63,83)         91.8976                                         !
 ! D164  D(59,61,64,65)         51.1323                                         !
 ! D165  D(59,61,64,66)        -62.9554                                         !
 ! D166  D(59,61,64,68)        173.1127                                         !
 ! D167  D(62,61,64,65)        169.6454                                         !
 ! D168  D(62,61,64,66)         55.5576                                         !
 ! D169  D(62,61,64,68)        -68.3742                                         !
 ! D170  D(63,61,64,65)        -66.8879                                         !
 ! D171  D(63,61,64,66)        179.0243                                         !
 ! D172  D(63,61,64,68)         55.0925                                         !
 ! D173  D(61,64,68,69)        177.33                                           !
 ! D174  D(61,64,68,70)        -67.5628                                         !
 ! D175  D(61,64,68,71)         56.3597                                         !
 ! D176  D(65,64,68,69)        -60.9816                                         !
 ! D177  D(65,64,68,70)         54.1255                                         !
 ! D178  D(65,64,68,71)        178.048                                          !
 ! D179  D(66,64,68,69)         54.7809                                         !
 ! D180  D(66,64,68,70)        169.8881                                         !
 ! D181  D(66,64,68,71)        -66.1894                                         !
 ! D182  D(64,68,71,72)        152.0949                                         !
 ! D183  D(64,68,71,73)         33.4082                                         !
 ! D184  D(64,68,71,74)        -86.9212                                         !
 ! D185  D(69,68,71,72)         31.604                                          !
 ! D186  D(69,68,71,73)        -87.0828                                         !
 ! D187  D(69,68,71,74)        152.5879                                         !
 ! D188  D(70,68,71,72)        -82.968                                          !
 ! D189  D(70,68,71,73)        158.3453                                         !
 ! D190  D(70,68,71,74)         38.0159                                         !
 ! D191  D(68,71,74,75)         44.3246                                         !
 ! D192  D(68,71,74,82)        -88.2564                                         !
 ! D193  D(72,71,74,75)        165.8031                                         !
 ! D194  D(72,71,74,82)         33.222                                          !
 ! D195  D(73,71,74,75)        -77.7941                                         !
 ! D196  D(73,71,74,82)        149.6248                                         !
 ! D197  D(71,74,82,76)        -44.4202                                         !
 ! D198  D(71,74,82,79)        135.1079                                         !
 ! D199  D(75,74,82,76)       -178.4134                                         !
 ! D200  D(75,74,82,79)          1.1147                                         !
 ! D201  D(77,76,82,74)        176.5358                                         !
 ! D202  D(77,76,82,79)         -2.9854                                         !
 ! D203  D(78,76,82,74)        -23.1654                                         !
 ! D204  D(78,76,82,79)        157.3134                                         !
 ! D205  D(80,79,82,74)        -14.784                                          !
 ! D206  D(80,79,82,76)        164.7476                                         !
 ! D207  D(81,79,82,74)        160.6059                                         !
 ! D208  D(81,79,82,76)        -19.8625                                         !
 --------------------------------------------------------------------------------
 Symmetry turned off by external request.
 Stoichiometry    C23H45N8O7(1+)
 Framework group  C1[X(C23H45N8O7)]
 Deg. of freedom   243
 Full point group                 C1      NOp   1
                          Input orientation:                          
 ---------------------------------------------------------------------
 Center     Atomic      Atomic             Coordinates (Angstroms)
 Number     Number       Type             X           Y           Z
 ---------------------------------------------------------------------
      1          7           0       -7.986049   -0.675361    3.481481
      2          1           0       -8.761134   -0.007405    3.510082
      3          1           0       -7.471837   -0.558025    2.559176
      4          1           0       -8.364421   -1.619911    3.585547
      5          6           0       -6.888787   -0.363528    4.486237
      6          1           0       -7.311098    0.280520    5.263073
      7          6           0       -5.865771    0.394764    3.597575
      8          6           0       -6.345472   -1.673629    5.113427
      9          1           0       -5.937230   -2.280245    4.293448
     10          8           0       -5.964511    0.257502    2.372256
     11          6           0       -5.200070   -1.376763    6.095768
     12          1           0       -5.510422   -0.652359    6.861628
     13          1           0       -4.311345   -1.024792    5.568935
     14          1           0       -4.926037   -2.297583    6.618548
     15          6           0       -7.467915   -2.447800    5.828383
     16          1           0       -7.902040   -1.852462    6.640581
     17          1           0       -8.288280   -2.771327    5.172144
     18          1           0       -7.058217   -3.361787    6.267105
     19          7           0       -4.969117    1.184211    4.200795
     20          1           0       -4.881288    1.110779    5.206952
     21          6           0       -3.768654    1.607157    3.475301
     22          1           0       -4.099188    2.087390    2.549327
     23          6           0       -2.941294    0.340853    3.114239
     24          6           0       -2.965890    2.591104    4.331361
     25          1           0       -2.086063    2.941119    3.785967
     26          1           0       -3.574046    3.461575    4.595729
     27          1           0       -2.614041    2.108968    5.251258
     28          8           0       -3.206756   -0.757890    3.604946
     29          7           0       -1.933685    0.564189    2.258938
     30          1           0       -1.716365    1.489351    1.893697
     31          6           0       -0.973041   -0.450195    1.863337
     32          1           0       -0.713339   -1.069582    2.727897
     33          6           0        0.249671    0.297020    1.325195
     34          6           0       -1.554675   -1.384865    0.759836
     35          1           0       -2.444922   -1.862770    1.181115
     36          1           0       -1.862340   -0.761839   -0.092188
     37          8           0        0.183477    1.491473    1.033265
     38          8           0       -0.640697   -2.387919    0.382611
     39          1           0       -0.095382   -2.021105   -0.353469
     40          7           0        1.357994   -0.471136    1.168413
     41          1           0        1.194436   -1.471068    1.244021
     42          6           0        2.392076   -0.073778    0.225460
     43          1           0        2.541520    1.001862    0.344994
     44          6           0        1.901699   -0.333960   -1.219054
     45          6           0        3.702145   -0.832332    0.503710
     46          1           0        4.451502   -0.504309   -0.227560
     47          1           0        3.532989   -1.901381    0.308126
     48          8           0        0.912992   -1.047162   -1.465631
     49          6           0        4.264973   -0.651834    1.925928
     50          1           0        3.515082   -1.028269    2.635875
     51          6           0        5.540722   -1.491132    2.085955
     52          1           0        6.325873   -1.141854    1.403340
     53          1           0        5.355435   -2.549841    1.868535
     54          1           0        5.931669   -1.420142    3.107199
     55          6           0        4.534020    0.822649    2.257954
     56          1           0        5.222546    1.268236    1.528041
     57          1           0        3.614408    1.418234    2.264705
     58          1           0        4.993740    0.917937    3.248097
     59          7           0        2.642491    0.236967   -2.171735
     60          1           0        3.442711    0.834315   -1.965640
     61          6           0        2.466214    0.039849   -3.605808
     62          1           0        2.243540   -1.017853   -3.781443
     63          6           0        3.836630    0.403645   -4.259506
     64          6           0        1.286867    0.915956   -4.095441
     65          1           0        1.471216    1.934002   -3.732038
     66          1           0        0.390828    0.550082   -3.579064
     67          8           0        4.075194   -0.209084   -5.357852
     68          6           0        1.003646    1.005473   -5.606258
     69          1           0        0.109112    1.629571   -5.727485
     70          1           0        1.820014    1.535382   -6.112544
     71          6           0        0.757839   -0.325534   -6.353869
     72          1           0        0.113301   -0.155021   -7.221122
     73          1           0        0.251405   -1.052338   -5.710352
     74          7           0        2.028672   -0.919715   -6.803820
     75          1           0        2.773307   -0.885096   -6.056115
     76          7           0        1.846597   -0.568154   -9.113318
     77          1           0        2.265304   -0.295409   -9.989859
     78          1           0        0.972390   -1.069835   -9.156402
     79          7           0        3.902300   -0.379148   -8.025823
     80          1           0        4.373971   -0.197099   -7.123093
     81          1           0        4.428828   -0.436065   -8.884803
     82          6           0        2.589940   -0.625905   -7.982147
     83          8           0        4.546916    1.224761   -3.669901
 ---------------------------------------------------------------------
 Rotational constants (GHZ):           0.1377421           0.0319441           0.0278674
 Standard basis: 6-31G(d) (6D, 7F)
   660 basis functions,  1244 primitive gaussians,   660 cartesian basis functions
   147 alpha electrons      147 beta electrons
       nuclear repulsion energy      4432.6137715781 Hartrees.
 NAtoms=   83 NActive=   83 NUniq=   83 SFac= 1.00D+00 NAtFMM=   60 NAOKFM=T Big=T
 Integral buffers will be    131072 words long.
 Raffenetti 2 integral format.
 Two-electron integral symmetry is turned off.
 Nuclear repulsion after empirical dispersion term =     4432.5113022646 Hartrees.
 One-electron integrals computed using PRISM.
 NBasis=   660 RedAO= T EigKep=  1.89D-03  NBF=   660
 NBsUse=   660 1.00D-06 EigRej= -1.00D+00 NBFU=   660
 Initial guess from the checkpoint file:  "conf-549.chk"
 B after Tr=     0.000000    0.000000    0.000000
         Rot=    1.000000    0.000000    0.000000    0.000000 Ang=   0.00 deg.
 Requested convergence on RMS density matrix=1.00D-08 within 128 cycles.
 Requested convergence on MAX density matrix=1.00D-06.
 Requested convergence on             energy=1.00D-06.
 No special actions if energy rises.
 SCF Done:  E(RB3LYP) =  -1868.12019839     A.U. after    2 cycles
            NFock=  2  Conv=0.80D-08     -V/T= 2.0094

 **********************************************************************

            Population analysis using the SCF Density.

 **********************************************************************

 Alpha  occ. eigenvalues --  -19.26895 -19.20698 -19.18883 -19.18732 -19.17477
 Alpha  occ. eigenvalues --  -19.13752 -19.12425 -14.59798 -14.49663 -14.46333
 Alpha  occ. eigenvalues --  -14.44378 -14.44247 -14.42391 -14.41856 -14.40346
 Alpha  occ. eigenvalues --  -10.43551 -10.41028 -10.40541 -10.37876 -10.35370
 Alpha  occ. eigenvalues --  -10.34492 -10.34018 -10.33991 -10.31017 -10.30980
 Alpha  occ. eigenvalues --  -10.29944 -10.29644 -10.29321 -10.28960 -10.28937
 Alpha  occ. eigenvalues --  -10.28693 -10.26391 -10.24892 -10.24108 -10.23740
 Alpha  occ. eigenvalues --  -10.23606 -10.21733 -10.21611  -1.19467  -1.13871
 Alpha  occ. eigenvalues --   -1.12530  -1.10608  -1.09648  -1.08698  -1.06549
 Alpha  occ. eigenvalues --   -1.06240  -1.06191  -1.00882  -0.99309  -0.98860
 Alpha  occ. eigenvalues --   -0.97910  -0.97690  -0.96581  -0.94924  -0.89159
 Alpha  occ. eigenvalues --   -0.86424  -0.85437  -0.84876  -0.82746  -0.81007
 Alpha  occ. eigenvalues --   -0.80450  -0.78067  -0.76002  -0.74581  -0.73915
 Alpha  occ. eigenvalues --   -0.73793  -0.72683  -0.72614  -0.71536  -0.71256
 Alpha  occ. eigenvalues --   -0.69808  -0.69578  -0.67136  -0.66626  -0.65842
 Alpha  occ. eigenvalues --   -0.65388  -0.64241  -0.63487  -0.63446  -0.62581
 Alpha  occ. eigenvalues --   -0.62025  -0.60973  -0.59680  -0.59227  -0.58429
 Alpha  occ. eigenvalues --   -0.58324  -0.57748  -0.57739  -0.56700  -0.55518
 Alpha  occ. eigenvalues --   -0.54995  -0.54519  -0.54344  -0.53599  -0.53100
 Alpha  occ. eigenvalues --   -0.52735  -0.51940  -0.51705  -0.51467  -0.51008
 Alpha  occ. eigenvalues --   -0.50681  -0.50366  -0.50147  -0.49564  -0.49391
 Alpha  occ. eigenvalues --   -0.49384  -0.48930  -0.48291  -0.48140  -0.47907
 Alpha  occ. eigenvalues --   -0.47835  -0.47391  -0.46698  -0.46237  -0.46029
 Alpha  occ. eigenvalues --   -0.45847  -0.45607  -0.44994  -0.44545  -0.43969
 Alpha  occ. eigenvalues --   -0.43546  -0.42906  -0.42720  -0.42527  -0.41994
 Alpha  occ. eigenvalues --   -0.41384  -0.40902  -0.40132  -0.39792  -0.39748
 Alpha  occ. eigenvalues --   -0.38914  -0.38406  -0.37399  -0.37223  -0.37137
 Alpha  occ. eigenvalues --   -0.36847  -0.35648  -0.34638  -0.33501  -0.33140
 Alpha  occ. eigenvalues --   -0.32582  -0.31535  -0.30992  -0.30414  -0.28659
 Alpha  occ. eigenvalues --   -0.27953  -0.26667
 Alpha virt. eigenvalues --   -0.12598  -0.10943  -0.06713  -0.06667  -0.06402
 Alpha virt. eigenvalues --   -0.05146  -0.04615  -0.02927  -0.02471  -0.01851
 Alpha virt. eigenvalues --   -0.01167  -0.00567   0.00681   0.00974   0.01842
 Alpha virt. eigenvalues --    0.02248   0.02802   0.03100   0.03538   0.04171
 Alpha virt. eigenvalues --    0.04529   0.04828   0.04903   0.05350   0.05817
 Alpha virt. eigenvalues --    0.05923   0.06130   0.06384   0.06579   0.06868
 Alpha virt. eigenvalues --    0.07461   0.07629   0.07933   0.08623   0.08854
 Alpha virt. eigenvalues --    0.09348   0.09911   0.10196   0.10381   0.10567
 Alpha virt. eigenvalues --    0.10873   0.10954   0.11354   0.11506   0.11936
 Alpha virt. eigenvalues --    0.11989   0.12134   0.12372   0.12758   0.13030
 Alpha virt. eigenvalues --    0.13178   0.13425   0.13638   0.14144   0.14267
 Alpha virt. eigenvalues --    0.14926   0.15269   0.15517   0.16277   0.16321
 Alpha virt. eigenvalues --    0.17127   0.17486   0.17699   0.18354   0.18864
 Alpha virt. eigenvalues --    0.19120   0.19338   0.19746   0.20795   0.21117
 Alpha virt. eigenvalues --    0.21419   0.22270   0.23046   0.23424   0.24925
 Alpha virt. eigenvalues --    0.25735   0.26331   0.27139   0.27947   0.29488
 Alpha virt. eigenvalues --    0.31029   0.31771   0.33387   0.33746   0.34705
 Alpha virt. eigenvalues --    0.35154   0.36140   0.36821   0.38253   0.38543
 Alpha virt. eigenvalues --    0.39347   0.40352   0.41182   0.41695   0.42454
 Alpha virt. eigenvalues --    0.43610   0.44116   0.44263   0.45019   0.45571
 Alpha virt. eigenvalues --    0.46259   0.46768   0.46902   0.47163   0.47325
 Alpha virt. eigenvalues --    0.47700   0.47764   0.47862   0.48676   0.48894
 Alpha virt. eigenvalues --    0.49251   0.49935   0.50407   0.51096   0.51511
 Alpha virt. eigenvalues --    0.51901   0.51986   0.52541   0.53294   0.54244
 Alpha virt. eigenvalues --    0.54348   0.54596   0.55389   0.55978   0.56296
 Alpha virt. eigenvalues --    0.56657   0.57429   0.58009   0.58319   0.58699
 Alpha virt. eigenvalues --    0.59191   0.59458   0.60158   0.60420   0.60542
 Alpha virt. eigenvalues --    0.60880   0.61321   0.61512   0.61777   0.62312
 Alpha virt. eigenvalues --    0.62662   0.62939   0.64383   0.64466   0.65502
 Alpha virt. eigenvalues --    0.65916   0.66080   0.66432   0.66911   0.67027
 Alpha virt. eigenvalues --    0.67643   0.67813   0.67985   0.68627   0.68987
 Alpha virt. eigenvalues --    0.69398   0.70017   0.70293   0.70920   0.72193
 Alpha virt. eigenvalues --    0.72995   0.73447   0.73866   0.74550   0.75051
 Alpha virt. eigenvalues --    0.75310   0.75550   0.76388   0.76404   0.76515
 Alpha virt. eigenvalues --    0.76870   0.77496   0.77691   0.78109   0.78531
 Alpha virt. eigenvalues --    0.78783   0.79079   0.79206   0.79454   0.79564
 Alpha virt. eigenvalues --    0.79748   0.80362   0.80881   0.81235   0.81330
 Alpha virt. eigenvalues --    0.81740   0.82020   0.82562   0.83066   0.83207
 Alpha virt. eigenvalues --    0.83724   0.84242   0.84354   0.84570   0.84935
 Alpha virt. eigenvalues --    0.85301   0.85533   0.85911   0.86258   0.86312
 Alpha virt. eigenvalues --    0.86737   0.87077   0.87418   0.87877   0.88356
 Alpha virt. eigenvalues --    0.88826   0.89082   0.89630   0.90005   0.90414
 Alpha virt. eigenvalues --    0.90755   0.91207   0.91487   0.91698   0.92668
 Alpha virt. eigenvalues --    0.92979   0.93424   0.94119   0.94323   0.94707
 Alpha virt. eigenvalues --    0.95414   0.95714   0.96558   0.96922   0.98698
 Alpha virt. eigenvalues --    0.99289   0.99518   1.00182   1.00309   1.00959
 Alpha virt. eigenvalues --    1.02038   1.03595   1.05810   1.06711   1.07059
 Alpha virt. eigenvalues --    1.07859   1.08093   1.09704   1.10693   1.11060
 Alpha virt. eigenvalues --    1.11566   1.11915   1.12849   1.13690   1.14632
 Alpha virt. eigenvalues --    1.15773   1.16367   1.17763   1.18677   1.19985
 Alpha virt. eigenvalues --    1.20298   1.21346   1.22488   1.23152   1.23317
 Alpha virt. eigenvalues --    1.24009   1.24390   1.25268   1.26491   1.27047
 Alpha virt. eigenvalues --    1.27679   1.29991   1.31115   1.31938   1.32746
 Alpha virt. eigenvalues --    1.33732   1.34238   1.35289   1.36178   1.36757
 Alpha virt. eigenvalues --    1.37517   1.37719   1.39567   1.40088   1.40872
 Alpha virt. eigenvalues --    1.41815   1.42553   1.42913   1.44512   1.44566
 Alpha virt. eigenvalues --    1.44758   1.46774   1.46952   1.47421   1.48635
 Alpha virt. eigenvalues --    1.50535   1.50992   1.51961   1.52959   1.53847
 Alpha virt. eigenvalues --    1.54173   1.55198   1.57639   1.58152   1.58386
 Alpha virt. eigenvalues --    1.58535   1.59448   1.60479   1.61053   1.61958
 Alpha virt. eigenvalues --    1.62684   1.63317   1.64031   1.64366   1.65216
 Alpha virt. eigenvalues --    1.65983   1.66497   1.67133   1.67640   1.68481
 Alpha virt. eigenvalues --    1.69112   1.69464   1.69959   1.70659   1.71402
 Alpha virt. eigenvalues --    1.71947   1.72362   1.72869   1.73873   1.73982
 Alpha virt. eigenvalues --    1.74699   1.75039   1.75531   1.76511   1.76838
 Alpha virt. eigenvalues --    1.77660   1.77981   1.78463   1.78618   1.79175
 Alpha virt. eigenvalues --    1.79978   1.80325   1.80452   1.81562   1.82010
 Alpha virt. eigenvalues --    1.82236   1.83702   1.84125   1.84415   1.85422
 Alpha virt. eigenvalues --    1.85878   1.86149   1.86281   1.87135   1.87483
 Alpha virt. eigenvalues --    1.88410   1.88692   1.89193   1.89431   1.90347
 Alpha virt. eigenvalues --    1.90884   1.91141   1.91542   1.92474   1.93436
 Alpha virt. eigenvalues --    1.93542   1.94329   1.94951   1.95508   1.95663
 Alpha virt. eigenvalues --    1.96496   1.96832   1.97824   1.97957   1.98450
 Alpha virt. eigenvalues --    1.99540   2.00486   2.01052   2.01402   2.01755
 Alpha virt. eigenvalues --    2.02358   2.02757   2.03068   2.04233   2.04638
 Alpha virt. eigenvalues --    2.04933   2.05986   2.06307   2.08085   2.08738
 Alpha virt. eigenvalues --    2.10212   2.11078   2.11641   2.12606   2.13641
 Alpha virt. eigenvalues --    2.14215   2.14420   2.14668   2.15471   2.15935
 Alpha virt. eigenvalues --    2.16873   2.18826   2.19244   2.19716   2.20380
 Alpha virt. eigenvalues --    2.20902   2.21210   2.22109   2.23476   2.24041
 Alpha virt. eigenvalues --    2.24335   2.25849   2.26498   2.27510   2.27723
 Alpha virt. eigenvalues --    2.28063   2.29028   2.30711   2.31188   2.33519
 Alpha virt. eigenvalues --    2.34181   2.34500   2.35333   2.35845   2.36310
 Alpha virt. eigenvalues --    2.37196   2.40155   2.40534   2.40702   2.41496
 Alpha virt. eigenvalues --    2.42352   2.43673   2.44151   2.45019   2.46329
 Alpha virt. eigenvalues --    2.46992   2.47257   2.47911   2.48631   2.49034
 Alpha virt. eigenvalues --    2.49946   2.50649   2.52048   2.53324   2.54006
 Alpha virt. eigenvalues --    2.54709   2.55664   2.56421   2.59546   2.60880
 Alpha virt. eigenvalues --    2.61210   2.62503   2.62524   2.63007   2.64778
 Alpha virt. eigenvalues --    2.65517   2.65951   2.67560   2.68762   2.69653
 Alpha virt. eigenvalues --    2.70315   2.72679   2.73582   2.74821   2.78038
 Alpha virt. eigenvalues --    2.79093   2.80569   2.83420   2.84441   2.87173
 Alpha virt. eigenvalues --    2.88397   2.89872   2.90926   2.92458   2.93948
 Alpha virt. eigenvalues --    2.94252   2.96179   2.96509   2.97467   3.01913
 Alpha virt. eigenvalues --    3.03495   3.07742   3.10408   3.13893   3.18033
 Alpha virt. eigenvalues --    3.65281   3.71407   3.78886   3.81244   3.91938
 Alpha virt. eigenvalues --    3.94318   3.97062   3.98356   3.98919   4.01483
 Alpha virt. eigenvalues --    4.03848   4.06531   4.07102   4.09236   4.12004
 Alpha virt. eigenvalues --    4.14140   4.16521   4.17817   4.18234   4.19921
 Alpha virt. eigenvalues --    4.24122   4.24181   4.24793   4.28898   4.32468
 Alpha virt. eigenvalues --    4.33664   4.34769   4.37074   4.38279   4.40495
 Alpha virt. eigenvalues --    4.45293   4.50518   4.51299   4.52710   4.56411
 Alpha virt. eigenvalues --    4.57277   4.61771   4.65322
          Condensed to atoms (all electrons):
 Mulliken charges:
               1
     1  N   -0.759579
     2  H    0.414885
     3  H    0.434145
     4  H    0.410193
     5  C   -0.118045
     6  H    0.202068
     7  C    0.672554
     8  C   -0.097532
     9  H    0.186249
    10  O   -0.535052
    11  C   -0.501502
    12  H    0.143332
    13  H    0.218342
    14  H    0.187350
    15  C   -0.475192
    16  H    0.172964
    17  H    0.135846
    18  H    0.203657
    19  N   -0.578172
    20  H    0.352431
    21  C   -0.077398
    22  H    0.201976
    23  C    0.647303
    24  C   -0.481289
    25  H    0.196885
    26  H    0.180642
    27  H    0.169944
    28  O   -0.542286
    29  N   -0.615501
    30  H    0.360106
    31  C   -0.067939
    32  H    0.184460
    33  C    0.605312
    34  C   -0.032232
    35  H    0.161070
    36  H    0.141318
    37  O   -0.541234
    38  O   -0.653912
    39  H    0.444093
    40  N   -0.589595
    41  H    0.342606
    42  C   -0.088420
    43  H    0.193607
    44  C    0.649734
    45  C   -0.283859
    46  H    0.161364
    47  H    0.142548
    48  O   -0.587765
    49  C   -0.062980
    50  H    0.128771
    51  C   -0.445387
    52  H    0.150065
    53  H    0.143401
    54  H    0.147850
    55  C   -0.457881
    56  H    0.148727
    57  H    0.151631
    58  H    0.149001
    59  N   -0.603341
    60  H    0.358849
    61  C   -0.058811
    62  H    0.154600
    63  C    0.606639
    64  C   -0.267097
    65  H    0.157243
    66  H    0.160508
    67  O   -0.645801
    68  C   -0.284617
    69  H    0.149007
    70  H    0.163551
    71  C   -0.169372
    72  H    0.146429
    73  H    0.179240
    74  N   -0.600008
    75  H    0.408177
    76  N   -0.748633
    77  H    0.362245
    78  H    0.369277
    79  N   -0.765236
    80  H    0.423573
    81  H    0.350431
    82  C    0.750946
    83  O   -0.541475
 Sum of Mulliken charges =   1.00000
 Mulliken charges with hydrogens summed into heavy atoms:
               1
     1  N    0.499644
     5  C    0.084023
     7  C    0.672554
     8  C    0.088717
    10  O   -0.535052
    11  C    0.047522
    15  C    0.037275
    19  N   -0.225741
    21  C    0.124578
    23  C    0.647303
    24  C    0.066182
    28  O   -0.542286
    29  N   -0.255395
    31  C    0.116522
    33  C    0.605312
    34  C    0.270156
    37  O   -0.541234
    38  O   -0.209819
    40  N   -0.246989
    42  C    0.105187
    44  C    0.649734
    45  C    0.020053
    48  O   -0.587765
    49  C    0.065791
    51  C   -0.004071
    55  C   -0.008522
    59  N   -0.244492
    61  C    0.095788
    63  C    0.606639
    64  C    0.050654
    67  O   -0.645801
    68  C    0.027941
    71  C    0.156296
    74  N   -0.191831
    76  N   -0.017111
    79  N    0.008768
    82  C    0.750946
    83  O   -0.541475
 Electronic spatial extent (au):  <R**2>=          37527.8397
 Charge=              1.0000 electrons
 Dipole moment (field-independent basis, Debye):
    X=            -27.9547    Y=             -1.9391    Z=              3.7814  Tot=             28.2759
 Quadrupole moment (field-independent basis, Debye-Ang):
   XX=             -6.5025   YY=           -225.0181   ZZ=             26.5104
   XY=              2.8736   XZ=           -141.9512   YZ=             10.5087
 Traceless Quadrupole moment (field-independent basis, Debye-Ang):
   XX=             61.8342   YY=           -156.6813   ZZ=             94.8472
   XY=              2.8736   XZ=           -141.9512   YZ=             10.5087
 Octapole moment (field-independent basis, Debye-Ang**2):
  XXX=          -1669.8314  YYY=            126.7231  ZZZ=          -1239.8935  XYY=             -6.4831
  XXY=           -166.1507  XXZ=            928.5471  XZZ=           -145.1229  YZZ=            -95.8235
  YYZ=             76.1489  XYZ=            101.0450
 Hexadecapole moment (field-independent basis, Debye-Ang**3):
 XXXX=          -6665.0647 YYYY=          -2055.6544 ZZZZ=          -5966.6374 XXXY=            834.7626
 XXXZ=            161.6744 YYYX=           -281.7217 YYYZ=            152.7165 ZZZX=            615.2701
 ZZZY=           1099.1990 XXYY=          -3533.3475 XXZZ=          -2553.4372 YYZZ=          -4279.3868
 XXYZ=           -380.6402 YYXZ=           2220.4545 ZZXY=            -51.6156
 N-N= 4.432511302265D+03 E-N=-1.319558155370D+04  KE= 1.850718763237D+03
 Unable to Open any file for archive entry.
 1\1\GINC-AMR-094\SP\RB3LYP\6-31G(d)\C23H45N8O7(1+)\KENGMITH\26-Jun-202
 2\0\\# B3LYP/6-31G* empiricaldispersion=gd3 guess=read geom=check nosy
 mm integral(ultrafinegrid)\\Candidate Structure: Conf:549 Charge calc 
 in gas phase\\1,1\N,0,-7.9860485301,-0.6753612295,3.4814811404\H,0,-8.
 7611344869,-0.0074054365,3.5100820304\H,0,-7.4718373705,-0.5580249891,
 2.559175958\H,0,-8.3644210599,-1.6199107553,3.5855473449\C,0,-6.888786
 9026,-0.3635277442,4.4862373911\H,0,-7.3110975471,0.280519787,5.263072
 5023\C,0,-5.8657706593,0.3947638742,3.5975751872\C,0,-6.345472357,-1.6
 736286775,5.1134270893\H,0,-5.9372298435,-2.2802453686,4.2934476202\O,
 0,-5.9645106725,0.2575024233,2.372256311\C,0,-5.2000695597,-1.37676291
 96,6.0957679792\H,0,-5.5104217521,-0.6523593444,6.8616281227\H,0,-4.31
 13452756,-1.0247918706,5.5689346206\H,0,-4.9260372801,-2.2975834066,6.
 6185477127\C,0,-7.4679153843,-2.4477998602,5.8283825574\H,0,-7.9020396
 513,-1.8524623873,6.6405811029\H,0,-8.2882804302,-2.7713266834,5.17214
 35246\H,0,-7.0582171062,-3.3617867446,6.26710505\N,0,-4.9691170468,1.1
 842114813,4.2007950894\H,0,-4.8812875236,1.1107786143,5.2069517082\C,0
 ,-3.7686542073,1.6071572815,3.4753010486\H,0,-4.0991881238,2.087390312
 1,2.5493266268\C,0,-2.9412940667,0.3408531826,3.1142389133\C,0,-2.9658
 903105,2.5911035247,4.3313607088\H,0,-2.0860626004,2.9411194209,3.7859
 669326\H,0,-3.5740460645,3.4615753547,4.5957286346\H,0,-2.6140408227,2
 .1089682084,5.2512576824\O,0,-3.2067563356,-0.7578900041,3.6049456115\
 N,0,-1.9336845796,0.5641889973,2.2589383519\H,0,-1.7163649308,1.489350
 7441,1.8936966461\C,0,-0.973041161,-0.4501950406,1.8633373884\H,0,-0.7
 133391847,-1.0695819544,2.7278972987\C,0,0.2496708552,0.2970199554,1.3
 251947141\C,0,-1.5546749244,-1.3848651831,0.7598363437\H,0,-2.44492176
 24,-1.8627697329,1.1811154751\H,0,-1.8623399209,-0.7618387733,-0.09218
 83992\O,0,0.1834770358,1.4914725142,1.0332648331\O,0,-0.6406969723,-2.
 3879192021,0.3826111231\H,0,-0.0953817818,-2.0211050706,-0.3534687013\
 N,0,1.3579944495,-0.4711362504,1.1684129804\H,0,1.1944358879,-1.471067
 6973,1.2440214851\C,0,2.3920759389,-0.0737784376,0.2254604985\H,0,2.54
 15203163,1.0018615279,0.3449941266\C,0,1.901698834,-0.3339595427,-1.21
 90541129\C,0,3.7021448829,-0.8323317759,0.5037097143\H,0,4.4515022166,
 -0.5043091832,-0.2275595928\H,0,3.5329891503,-1.9013814573,0.308126139
 1\O,0,0.9129923688,-1.0471620125,-1.4656310697\C,0,4.2649734401,-0.651
 8342649,1.925928077\H,0,3.5150817226,-1.028268792,2.6358748249\C,0,5.5
 407220551,-1.4911322516,2.0859545886\H,0,6.3258731163,-1.1418535562,1.
 4033402118\H,0,5.3554347649,-2.5498410249,1.8685348424\H,0,5.931668754
 ,-1.4201417322,3.107198933\C,0,4.5340198881,0.8226485272,2.2579541219\
 H,0,5.2225461054,1.2682362215,1.528040519\H,0,3.6144082356,1.418233741
 6,2.2647053345\H,0,4.9937400056,0.9179374777,3.2480970812\N,0,2.642490
 9431,0.2369669134,-2.1717353134\H,0,3.4427107449,0.8343149992,-1.96564
 04077\C,0,2.4662143094,0.0398491009,-3.6058079262\H,0,2.243540126,-1.0
 178527261,-3.7814430122\C,0,3.8366295012,0.403644809,-4.2595058626\C,0
 ,1.2868669471,0.9159561813,-4.095441499\H,0,1.4712160942,1.9340017305,
 -3.7320376848\H,0,0.3908282161,0.5500821449,-3.5790639652\O,0,4.075193
 5618,-0.2090840929,-5.3578521328\C,0,1.0036459968,1.0054733761,-5.6062
 576472\H,0,0.1091121535,1.6295710472,-5.7274850965\H,0,1.8200144143,1.
 5353823872,-6.112543624\C,0,0.7578389503,-0.3255337519,-6.3538688836\H
 ,0,0.1133010658,-0.1550207429,-7.2211218364\H,0,0.2514053889,-1.052338
 1039,-5.7103518085\N,0,2.0286724454,-0.9197150931,-6.8038201439\H,0,2.
 7733073327,-0.8850956518,-6.0561151489\N,0,1.8465972472,-0.5681536413,
 -9.1133184806\H,0,2.2653044429,-0.2954089822,-9.9898588721\H,0,0.97238
 9764,-1.0698349479,-9.1564024822\N,0,3.9023001684,-0.379148002,-8.0258
 232894\H,0,4.3739710824,-0.1970992244,-7.1230933477\H,0,4.4288281672,-
 0.436065074,-8.8848030463\C,0,2.5899399944,-0.6259053457,-7.9821467511
 \O,0,4.5469158172,1.2247613557,-3.6699012954\\Version=ES64L-G16RevC.01
 \HF=-1868.1201984\RMSD=7.992e-09\Dipole=-10.3077692,-0.4233866,1.64698
 14\Quadrupole=45.9721983,-116.488738,70.5165397,2.1364407,-105.5372172
 ,7.8129687\PG=C01 [X(C23H45N8O7)]\\@
 The archive entry for this job was punched.


 TOWERING GENIUS DISDAINS A BEATEN PATH.  IT SEEKS 
 REGIONS HITHERTO UNEXPLORED.

                                -- ABRAHAM LINCOLN
 Job cpu time:       0 days  0 hours  2 minutes 16.1 seconds.
 Elapsed time:       0 days  0 hours  0 minutes 34.6 seconds.
 File lengths (MBytes):  RWF=    344 Int=      0 D2E=      0 Chk=     48 Scr=     16
 Normal termination of Gaussian 16 at Sun Jun 26 14:46:17 2022.
