 Entering Gaussian System, Link 0=/opt/software/Gaussian/g16-AVX2-C.01/g16/g16
 Input=charge-conf-126.com
 Output=charge-conf-126.log
 Initial command:
 /opt/software/Gaussian/g16-AVX2-C.01/g16/l1.exe "/mnt/gs18/scratch/users/kengmith/Gau-20613.inp" -scrdir="/mnt/gs18/scratch/users/kengmith/"
 Entering Link 1 = /opt/software/Gaussian/g16-AVX2-C.01/g16/l1.exe PID=     20639.
  
 Copyright (c) 1988-2019, Gaussian, Inc.  All Rights Reserved.
  
 This is part of the Gaussian(R) 16 program.  It is based on
 the Gaussian(R) 09 system (copyright 2009, Gaussian, Inc.),
 the Gaussian(R) 03 system (copyright 2003, Gaussian, Inc.),
 the Gaussian(R) 98 system (copyright 1998, Gaussian, Inc.),
 the Gaussian(R) 94 system (copyright 1995, Gaussian, Inc.),
 the Gaussian 92(TM) system (copyright 1992, Gaussian, Inc.),
 the Gaussian 90(TM) system (copyright 1990, Gaussian, Inc.),
 the Gaussian 88(TM) system (copyright 1988, Gaussian, Inc.),
 the Gaussian 86(TM) system (copyright 1986, Carnegie Mellon
 University), and the Gaussian 82(TM) system (copyright 1983,
 Carnegie Mellon University). Gaussian is a federally registered
 trademark of Gaussian, Inc.
  
 This software contains proprietary and confidential information,
 including trade secrets, belonging to Gaussian, Inc.
  
 This software is provided under written license and may be
 used, copied, transmitted, or stored only in accord with that
 written license.
  
 The following legend is applicable only to US Government
 contracts under FAR:
  
                    RESTRICTED RIGHTS LEGEND
  
 Use, reproduction and disclosure by the US Government is
 subject to restrictions as set forth in subparagraphs (a)
 and (c) of the Commercial Computer Software - Restricted
 Rights clause in FAR 52.227-19.
  
 Gaussian, Inc.
 340 Quinnipiac St., Bldg. 40, Wallingford CT 06492
  
  
 ---------------------------------------------------------------
 Warning -- This program may not be used in any manner that
 competes with the business of Gaussian, Inc. or will provide
 assistance to any competitor of Gaussian, Inc.  The licensee
 of this program is prohibited from giving any competitor of
 Gaussian, Inc. access to this program.  By using this program,
 the user acknowledges that Gaussian, Inc. is engaged in the
 business of creating and licensing software in the field of
 computational chemistry and represents and warrants to the
 licensee that it is not a competitor of Gaussian, Inc. and that
 it will not use this program in any manner prohibited above.
 ---------------------------------------------------------------
  

 Cite this work as:
 Gaussian 16, Revision C.01,
 M. J. Frisch, G. W. Trucks, H. B. Schlegel, G. E. Scuseria, 
 M. A. Robb, J. R. Cheeseman, G. Scalmani, V. Barone, 
 G. A. Petersson, H. Nakatsuji, X. Li, M. Caricato, A. V. Marenich, 
 J. Bloino, B. G. Janesko, R. Gomperts, B. Mennucci, H. P. Hratchian, 
 J. V. Ortiz, A. F. Izmaylov, J. L. Sonnenberg, D. Williams-Young, 
 F. Ding, F. Lipparini, F. Egidi, J. Goings, B. Peng, A. Petrone, 
 T. Henderson, D. Ranasinghe, V. G. Zakrzewski, J. Gao, N. Rega, 
 G. Zheng, W. Liang, M. Hada, M. Ehara, K. Toyota, R. Fukuda, 
 J. Hasegawa, M. Ishida, T. Nakajima, Y. Honda, O. Kitao, H. Nakai, 
 T. Vreven, K. Throssell, J. A. Montgomery, Jr., J. E. Peralta, 
 F. Ogliaro, M. J. Bearpark, J. J. Heyd, E. N. Brothers, K. N. Kudin, 
 V. N. Staroverov, T. A. Keith, R. Kobayashi, J. Normand, 
 K. Raghavachari, A. P. Rendell, J. C. Burant, S. S. Iyengar, 
 J. Tomasi, M. Cossi, J. M. Millam, M. Klene, C. Adamo, R. Cammi, 
 J. W. Ochterski, R. L. Martin, K. Morokuma, O. Farkas, 
 J. B. Foresman, and D. J. Fox, Gaussian, Inc., Wallingford CT, 2019.
 
 ******************************************
 Gaussian 16:  ES64L-G16RevC.01  3-Jul-2019
                26-Jun-2022 
 ******************************************
 %mem=8gb
 %nproc=4
 Will use up to    4 processors via shared memory.
 %chk=conf-126.chk
 ----------------------------------------------------------------------
 # B3LYP/6-31G* empiricaldispersion=gd3 guess=read geom=check nosymm in
 tegral(ultrafinegrid)
 ----------------------------------------------------------------------
 1/29=2,38=1,172=1/1;
 2/12=2,15=1,40=1/2;
 3/5=1,6=6,7=1,11=2,14=-4,25=1,30=1,74=-5,75=-5,116=-2,124=31/1,2,3;
 4/5=1/1;
 5/5=2,38=6/2;
 6/7=2,8=2,9=2,10=2,28=1/1;
 99/5=1,9=1/99;
 ------------------------------------------------------
 Candidate Structure: Conf:126 Charge calc in gas phase
 ------------------------------------------------------
 Structure from the checkpoint file:  "conf-126.chk"
 Charge =  1 Multiplicity = 1
 Redundant internal coordinates found in file.  (old form).
 N,0,-9.1896020495,2.6535322219,1.69032661
 H,0,-9.6969419998,3.3634126454,2.2254581854
 H,0,-8.3469825378,3.1114135066,1.2331451938
 H,0,-9.8240791767,2.2528692161,0.99526016
 C,0,-8.5301725038,1.6001327366,2.5657041391
 H,0,-9.0210661461,1.6133939664,3.5431877359
 C,0,-7.0733091914,2.1319299828,2.6414356069
 C,0,-8.6670241794,0.1980516296,1.9166802325
 H,0,-8.1569650677,0.2398169173,0.9445738411
 O,0,-6.7229221265,2.9561824524,1.7883725129
 C,0,-7.9665206953,-0.8719771161,2.7708139456
 H,0,-8.3344474914,-0.8586976487,3.8062121232
 H,0,-6.8824712846,-0.7484502794,2.7441115042
 H,0,-8.191476874,-1.8619192306,2.3637667975
 C,0,-10.1477279695,-0.1728215591,1.7155380946
 H,0,-10.6807761756,-0.2022109414,2.6734467963
 H,0,-10.6992027054,0.4997853617,1.0434607186
 H,0,-10.2164637498,-1.1668196933,1.2650658049
 N,0,-6.2946403547,1.7041857059,3.6428158047
 H,0,-6.6276137601,0.9233701817,4.194947367
 C,0,-4.840267479,1.8519874941,3.5413522597
 H,0,-4.6306401725,2.9122858298,3.3707923305
 C,0,-4.350454827,1.0391181576,2.3096956404
 C,0,-4.1784413846,1.377211907,4.8379481576
 H,0,-3.0957654089,1.5151711987,4.7839593765
 H,0,-4.5543885377,1.9425721523,5.6961806424
 H,0,-4.367940203,0.3098294979,5.0028224558
 O,0,-5.0879931456,0.2288671564,1.7454975162
 N,0,-3.0832020488,1.2861068598,1.9497661772
 H,0,-2.4871002994,1.9454988759,2.4458644133
 C,0,-2.4021097296,0.5836213889,0.8767977058
 H,0,-2.6489103163,-0.4822400149,0.9184906107
 C,0,-0.9037035594,0.8160269228,1.0844614356
 C,0,-2.8375684718,1.1229273932,-0.5196742878
 H,0,-3.9178737181,0.9668918089,-0.6006199669
 H,0,-2.636224641,2.2031909028,-0.5495822441
 O,0,-0.4975322118,1.6978229377,1.8419384158
 O,0,-2.202352866,0.4347937055,-1.5716185706
 H,0,-1.3629554347,0.9161009936,-1.7628158245
 N,0,-0.1005826367,0.008242158,0.345199313
 H,0,-0.5808943003,-0.5088160695,-0.3860068081
 C,0,1.2585593424,0.4202426384,0.0307459617
 H,0,1.6850863939,0.8478859222,0.9413706149
 C,0,1.2245220643,1.5296132316,-1.0487313918
 C,0,2.094535317,-0.7832601535,-0.4405844402
 H,0,3.1089600701,-0.4321032286,-0.6676110613
 H,0,1.6781964,-1.1444992466,-1.3922542058
 O,0,0.1946091729,1.7982444579,-1.6904418842
 C,0,2.1728569853,-1.949334754,0.5625255351
 H,0,1.1504067432,-2.3117734998,0.7388635917
 C,0,2.9910203307,-3.0980386741,-0.0445642421
 H,0,4.0271727603,-2.7855802221,-0.2269831469
 H,0,2.5692449259,-3.4306523613,-1.0004724199
 H,0,3.0173714382,-3.9607313224,0.6306128693
 C,0,2.7597514167,-1.5120784453,1.9119882286
 H,0,3.7565641282,-1.0710181382,1.7798308824
 H,0,2.1262961735,-0.7748469928,2.4176766695
 H,0,2.864195262,-2.3709923677,2.5843942083
 N,0,2.388960041,2.1528287077,-1.2516402829
 H,0,3.2274435707,1.9409166177,-0.7136576906
 C,0,2.6350544335,3.143660338,-2.2945140203
 H,0,2.1225164878,2.8348683972,-3.2096679822
 C,0,4.1715886566,3.1560782096,-2.5137915981
 C,0,2.0784206986,4.5184777404,-1.8284699027
 H,0,2.6805451689,4.8553031942,-0.9737407797
 H,0,1.0752834949,4.3100329515,-1.4438751782
 O,0,4.5735096955,3.5419143828,-3.6656516155
 C,0,1.9596664743,5.6414537379,-2.8876364754
 H,0,1.8973626715,5.2113957402,-3.8957360733
 H,0,1.0159675013,6.1777107952,-2.7326078826
 C,0,3.0671701146,6.7091797576,-2.8677817851
 H,0,3.1707624728,7.1136817226,-1.853013641
 H,0,2.7925900716,7.5372691429,-3.5338041112
 N,0,4.3389434016,6.12707721,-3.2997634123
 H,0,4.2594411556,5.1913147133,-3.7506159849
 N,0,5.7589337647,7.3666951562,-1.9173175333
 H,0,6.6899066435,7.5141173563,-1.5552064713
 H,0,5.2176944947,8.2044652764,-2.0743308479
 N,0,6.4561020104,5.3482976575,-2.8913558636
 H,0,6.0917568286,4.4188826315,-3.1917730692
 H,0,7.3253506229,5.3883701081,-2.3796934534
 C,0,5.518926574,6.2826781423,-2.6996822749
 O,0,4.8835571274,2.8579970467,-1.5390569423
 Recover connectivity data from disk.
                           ----------------------------
                           !    Current Parameters    !
                           ! (Angstroms and Degrees)  !
 --------------------------                            --------------------------
 ! Name  Definition              Value                                          !
 --------------------------------------------------------------------------------
 ! R1    R(1,2)                  1.0236                                         !
 ! R2    R(1,3)                  1.0624                                         !
 ! R3    R(1,4)                  1.0228                                         !
 ! R4    R(1,5)                  1.5201                                         !
 ! R5    R(5,6)                  1.0939                                         !
 ! R6    R(5,7)                  1.5527                                         !
 ! R7    R(5,8)                  1.5511                                         !
 ! R8    R(7,10)                 1.2369                                         !
 ! R9    R(7,19)                 1.3387                                         !
 ! R10   R(8,9)                  1.0986                                         !
 ! R11   R(8,11)                 1.5379                                         !
 ! R12   R(8,15)                 1.5396                                         !
 ! R13   R(11,12)                1.0989                                         !
 ! R14   R(11,13)                1.0914                                         !
 ! R15   R(11,14)                1.0937                                         !
 ! R16   R(15,16)                1.0966                                         !
 ! R17   R(15,17)                1.0992                                         !
 ! R18   R(15,18)                1.0935                                         !
 ! R19   R(19,20)                1.0126                                         !
 ! R20   R(19,21)                1.4654                                         !
 ! R21   R(21,22)                1.0942                                         !
 ! R22   R(21,23)                1.5549                                         !
 ! R23   R(21,24)                1.5312                                         !
 ! R24   R(23,28)                1.2324                                         !
 ! R25   R(23,29)                1.3403                                         !
 ! R26   R(24,25)                1.0928                                         !
 ! R27   R(24,26)                1.0943                                         !
 ! R28   R(24,27)                1.0965                                         !
 ! R29   R(29,30)                1.018                                          !
 ! R30   R(29,31)                1.4521                                         !
 ! R31   R(31,32)                1.0949                                         !
 ! R32   R(31,33)                1.5305                                         !
 ! R33   R(31,34)                1.559                                          !
 ! R34   R(33,37)                1.2314                                         !
 ! R35   R(33,40)                1.3579                                         !
 ! R36   R(34,35)                1.0945                                         !
 ! R37   R(34,36)                1.0993                                         !
 ! R38   R(34,38)                1.4084                                         !
 ! R39   R(38,39)                0.9863                                         !
 ! R40   R(40,41)                1.0162                                         !
 ! R41   R(40,42)                1.4546                                         !
 ! R42   R(42,43)                1.0927                                         !
 ! R43   R(42,44)                1.5483                                         !
 ! R44   R(42,45)                1.5393                                         !
 ! R45   R(44,48)                1.2428                                         !
 ! R46   R(44,59)                1.3362                                         !
 ! R47   R(45,46)                1.0972                                         !
 ! R48   R(45,47)                1.0998                                         !
 ! R49   R(45,49)                1.5402                                         !
 ! R50   R(49,50)                1.099                                          !
 ! R51   R(49,51)                1.5354                                         !
 ! R52   R(49,55)                1.5352                                         !
 ! R53   R(51,52)                1.0975                                         !
 ! R54   R(51,53)                1.0965                                         !
 ! R55   R(51,54)                1.0958                                         !
 ! R56   R(55,56)                1.098                                          !
 ! R57   R(55,57)                1.0957                                         !
 ! R58   R(55,58)                1.0958                                         !
 ! R59   R(59,60)                1.0185                                         !
 ! R60   R(59,61)                1.4594                                         !
 ! R61   R(61,62)                1.0934                                         !
 ! R62   R(61,63)                1.5522                                         !
 ! R63   R(61,64)                1.5547                                         !
 ! R64   R(63,67)                1.2795                                         !
 ! R65   R(63,83)                1.2433                                         !
 ! R66   R(64,65)                1.0984                                         !
 ! R67   R(64,66)                1.0944                                         !
 ! R68   R(64,68)                1.5482                                         !
 ! R69   R(68,69)                1.0978                                         !
 ! R70   R(68,70)                1.0964                                         !
 ! R71   R(68,71)                1.5385                                         !
 ! R72   R(71,72)                1.0973                                         !
 ! R73   R(71,73)                1.0976                                         !
 ! R74   R(71,74)                1.4639                                         !
 ! R75   R(74,75)                1.0417                                         !
 ! R76   R(74,82)                1.3329                                         !
 ! R77   R(76,77)                1.0097                                         !
 ! R78   R(76,78)                1.0097                                         !
 ! R79   R(76,82)                1.3582                                         !
 ! R80   R(79,80)                1.0425                                         !
 ! R81   R(79,81)                1.0095                                         !
 ! R82   R(79,82)                1.3372                                         !
 ! A1    A(2,1,3)              108.6144                                         !
 ! A2    A(2,1,4)              108.6315                                         !
 ! A3    A(2,1,5)              113.2379                                         !
 ! A4    A(3,1,4)              111.6159                                         !
 ! A5    A(3,1,5)              101.6781                                         !
 ! A6    A(4,1,5)              112.89                                           !
 ! A7    A(1,5,6)              108.1498                                         !
 ! A8    A(1,5,7)              101.4063                                         !
 ! A9    A(1,5,8)              110.3145                                         !
 ! A10   A(6,5,7)              111.92                                           !
 ! A11   A(6,5,8)              110.1983                                         !
 ! A12   A(7,5,8)              114.3799                                         !
 ! A13   A(5,7,10)             117.412                                          !
 ! A14   A(5,7,19)             118.2165                                         !
 ! A15   A(10,7,19)            124.3375                                         !
 ! A16   A(5,8,9)              107.1535                                         !
 ! A17   A(5,8,11)             110.8764                                         !
 ! A18   A(5,8,15)             110.9324                                         !
 ! A19   A(9,8,11)             107.8433                                         !
 ! A20   A(9,8,15)             109.8811                                         !
 ! A21   A(11,8,15)            110.0604                                         !
 ! A22   A(8,11,12)            111.2461                                         !
 ! A23   A(8,11,13)            111.1055                                         !
 ! A24   A(8,11,14)            109.2298                                         !
 ! A25   A(12,11,13)           110.7471                                         !
 ! A26   A(12,11,14)           107.0212                                         !
 ! A27   A(13,11,14)           107.3152                                         !
 ! A28   A(8,15,16)            111.0886                                         !
 ! A29   A(8,15,17)            114.5184                                         !
 ! A30   A(8,15,18)            109.4658                                         !
 ! A31   A(16,15,17)           107.8554                                         !
 ! A32   A(16,15,18)           107.7543                                         !
 ! A33   A(17,15,18)           105.8322                                         !
 ! A34   A(7,19,20)            117.5799                                         !
 ! A35   A(7,19,21)            119.5563                                         !
 ! A36   A(20,19,21)           116.224                                          !
 ! A37   A(19,21,22)           107.3779                                         !
 ! A38   A(19,21,23)           108.3468                                         !
 ! A39   A(19,21,24)           109.8204                                         !
 ! A40   A(22,21,23)           108.8302                                         !
 ! A41   A(22,21,24)           110.4658                                         !
 ! A42   A(23,21,24)           111.8698                                         !
 ! A43   A(21,23,28)           121.1866                                         !
 ! A44   A(21,23,29)           114.4702                                         !
 ! A45   A(28,23,29)           124.3361                                         !
 ! A46   A(21,24,25)           110.3195                                         !
 ! A47   A(21,24,26)           110.8192                                         !
 ! A48   A(21,24,27)           110.7596                                         !
 ! A49   A(25,24,26)           108.2942                                         !
 ! A50   A(25,24,27)           107.5501                                         !
 ! A51   A(26,24,27)           109.0022                                         !
 ! A52   A(23,29,30)           122.8302                                         !
 ! A53   A(23,29,31)           123.5552                                         !
 ! A54   A(30,29,31)           113.5034                                         !
 ! A55   A(29,31,32)           109.6996                                         !
 ! A56   A(29,31,33)           106.588                                          !
 ! A57   A(29,31,34)           111.3153                                         !
 ! A58   A(32,31,33)           111.3066                                         !
 ! A59   A(32,31,34)           107.9332                                         !
 ! A60   A(33,31,34)           110.0273                                         !
 ! A61   A(31,33,37)           121.0071                                         !
 ! A62   A(31,33,40)           114.5087                                         !
 ! A63   A(37,33,40)           124.4563                                         !
 ! A64   A(31,34,35)           107.0146                                         !
 ! A65   A(31,34,36)           108.2492                                         !
 ! A66   A(31,34,38)           111.9645                                         !
 ! A67   A(35,34,36)           108.5944                                         !
 ! A68   A(35,34,38)           108.6793                                         !
 ! A69   A(36,34,38)           112.161                                          !
 ! A70   A(34,38,39)           106.8699                                         !
 ! A71   A(33,40,41)           114.5095                                         !
 ! A72   A(33,40,42)           120.1195                                         !
 ! A73   A(41,40,42)           115.4796                                         !
 ! A74   A(40,42,43)           107.1822                                         !
 ! A75   A(40,42,44)           109.4587                                         !
 ! A76   A(40,42,45)           110.6213                                         !
 ! A77   A(43,42,44)           108.0106                                         !
 ! A78   A(43,42,45)           110.4365                                         !
 ! A79   A(44,42,45)           111.0185                                         !
 ! A80   A(42,44,48)           122.2135                                         !
 ! A81   A(42,44,59)           114.8917                                         !
 ! A82   A(48,44,59)           122.8829                                         !
 ! A83   A(42,45,46)           108.3751                                         !
 ! A84   A(42,45,47)           108.432                                          !
 ! A85   A(42,45,49)           114.8435                                         !
 ! A86   A(46,45,47)           106.0261                                         !
 ! A87   A(46,45,49)           109.2719                                         !
 ! A88   A(47,45,49)           109.5213                                         !
 ! A89   A(45,49,50)           107.8709                                         !
 ! A90   A(45,49,51)           109.6337                                         !
 ! A91   A(45,49,55)           112.1057                                         !
 ! A92   A(50,49,51)           108.2071                                         !
 ! A93   A(50,49,55)           107.9722                                         !
 ! A94   A(51,49,55)           110.9127                                         !
 ! A95   A(49,51,52)           110.8425                                         !
 ! A96   A(49,51,53)           111.5106                                         !
 ! A97   A(49,51,54)           110.9886                                         !
 ! A98   A(52,51,53)           107.7351                                         !
 ! A99   A(52,51,54)           107.6885                                         !
 ! A100  A(53,51,54)           107.9139                                         !
 ! A101  A(49,55,56)           110.8351                                         !
 ! A102  A(49,55,57)           112.1066                                         !
 ! A103  A(49,55,58)           110.6453                                         !
 ! A104  A(56,55,57)           108.0669                                         !
 ! A105  A(56,55,58)           107.5887                                         !
 ! A106  A(57,55,58)           107.4156                                         !
 ! A107  A(44,59,60)           122.6941                                         !
 ! A108  A(44,59,61)           124.8975                                         !
 ! A109  A(60,59,61)           112.3262                                         !
 ! A110  A(59,61,62)           109.1053                                         !
 ! A111  A(59,61,63)           105.8614                                         !
 ! A112  A(59,61,64)           109.0132                                         !
 ! A113  A(62,61,63)           110.3682                                         !
 ! A114  A(62,61,64)           109.4386                                         !
 ! A115  A(63,61,64)           112.9358                                         !
 ! A116  A(61,63,67)           116.1387                                         !
 ! A117  A(61,63,83)           117.0133                                         !
 ! A118  A(67,63,83)           126.7391                                         !
 ! A119  A(61,64,65)           107.9479                                         !
 ! A120  A(61,64,66)           105.3726                                         !
 ! A121  A(61,64,68)           117.6319                                         !
 ! A122  A(65,64,66)           106.7031                                         !
 ! A123  A(65,64,68)           110.6074                                         !
 ! A124  A(66,64,68)           107.9546                                         !
 ! A125  A(64,68,69)           110.3916                                         !
 ! A126  A(64,68,70)           108.9075                                         !
 ! A127  A(64,68,71)           116.0615                                         !
 ! A128  A(69,68,70)           105.819                                          !
 ! A129  A(69,68,71)           108.9405                                         !
 ! A130  A(70,68,71)           106.1602                                         !
 ! A131  A(68,71,72)           109.6164                                         !
 ! A132  A(68,71,73)           109.614                                          !
 ! A133  A(68,71,74)           110.2198                                         !
 ! A134  A(72,71,73)           107.8578                                         !
 ! A135  A(72,71,74)           109.7226                                         !
 ! A136  A(73,71,74)           109.7724                                         !
 ! A137  A(71,74,75)           114.7467                                         !
 ! A138  A(71,74,82)           126.1449                                         !
 ! A139  A(75,74,82)           111.5468                                         !
 ! A140  A(77,76,78)           115.3954                                         !
 ! A141  A(77,76,82)           119.0792                                         !
 ! A142  A(78,76,82)           118.5499                                         !
 ! A143  A(80,79,81)           118.8426                                         !
 ! A144  A(80,79,82)           114.792                                          !
 ! A145  A(81,79,82)           120.2062                                         !
 ! A146  A(74,82,76)           120.5922                                         !
 ! A147  A(74,82,79)           118.316                                          !
 ! A148  A(76,82,79)           121.0916                                         !
 ! D1    D(2,1,5,6)             19.9212                                         !
 ! D2    D(2,1,5,7)            -97.9127                                         !
 ! D3    D(2,1,5,8)            140.5053                                         !
 ! D4    D(3,1,5,6)            136.2468                                         !
 ! D5    D(3,1,5,7)             18.4129                                         !
 ! D6    D(3,1,5,8)           -103.1691                                         !
 ! D7    D(4,1,5,6)           -104.0445                                         !
 ! D8    D(4,1,5,7)            138.1216                                         !
 ! D9    D(4,1,5,8)             16.5396                                         !
 ! D10   D(1,5,7,10)           -18.1023                                         !
 ! D11   D(1,5,7,19)           159.8721                                         !
 ! D12   D(6,5,7,10)          -133.1724                                         !
 ! D13   D(6,5,7,19)            44.802                                          !
 ! D14   D(8,5,7,10)           100.601                                          !
 ! D15   D(8,5,7,19)           -81.4247                                         !
 ! D16   D(1,5,8,9)             60.8201                                         !
 ! D17   D(1,5,8,11)           178.2673                                         !
 ! D18   D(1,5,8,15)           -59.1215                                         !
 ! D19   D(6,5,8,9)           -179.8314                                         !
 ! D20   D(6,5,8,11)           -62.3842                                         !
 ! D21   D(6,5,8,15)            60.2271                                         !
 ! D22   D(7,5,8,9)            -52.7144                                         !
 ! D23   D(7,5,8,11)            64.7328                                         !
 ! D24   D(7,5,8,15)          -172.6559                                         !
 ! D25   D(5,7,19,20)           11.6603                                         !
 ! D26   D(5,7,19,21)          162.0394                                         !
 ! D27   D(10,7,19,20)        -170.5174                                         !
 ! D28   D(10,7,19,21)         -20.1384                                         !
 ! D29   D(5,8,11,12)           54.5752                                         !
 ! D30   D(5,8,11,13)          -69.3061                                         !
 ! D31   D(5,8,11,14)          172.4962                                         !
 ! D32   D(9,8,11,12)          171.6                                            !
 ! D33   D(9,8,11,13)           47.7187                                         !
 ! D34   D(9,8,11,14)          -70.4791                                         !
 ! D35   D(15,8,11,12)         -68.5406                                         !
 ! D36   D(15,8,11,13)         167.5781                                         !
 ! D37   D(15,8,11,14)          49.3804                                         !
 ! D38   D(5,8,15,16)          -60.6644                                         !
 ! D39   D(5,8,15,17)           61.8214                                         !
 ! D40   D(5,8,15,18)         -179.5422                                         !
 ! D41   D(9,8,15,16)         -178.9659                                         !
 ! D42   D(9,8,15,17)          -56.4801                                         !
 ! D43   D(9,8,15,18)           62.1564                                         !
 ! D44   D(11,8,15,16)          62.4186                                         !
 ! D45   D(11,8,15,17)        -175.0956                                         !
 ! D46   D(11,8,15,18)         -56.4591                                         !
 ! D47   D(7,19,21,22)          56.1747                                         !
 ! D48   D(7,19,21,23)         -61.2187                                         !
 ! D49   D(7,19,21,24)         176.323                                          !
 ! D50   D(20,19,21,22)       -153.0582                                         !
 ! D51   D(20,19,21,23)         89.5484                                         !
 ! D52   D(20,19,21,24)        -32.9099                                         !
 ! D53   D(19,21,23,28)        -12.8782                                         !
 ! D54   D(19,21,23,29)        168.0449                                         !
 ! D55   D(22,21,23,28)       -129.3367                                         !
 ! D56   D(22,21,23,29)         51.5864                                         !
 ! D57   D(24,21,23,28)        108.3229                                         !
 ! D58   D(24,21,23,29)        -70.7539                                         !
 ! D59   D(19,21,24,25)       -178.105                                          !
 ! D60   D(19,21,24,26)        -58.1769                                         !
 ! D61   D(19,21,24,27)         62.9323                                         !
 ! D62   D(22,21,24,25)        -59.851                                          !
 ! D63   D(22,21,24,26)         60.0771                                         !
 ! D64   D(22,21,24,27)       -178.8136                                         !
 ! D65   D(23,21,24,25)         61.55                                           !
 ! D66   D(23,21,24,26)       -178.5219                                         !
 ! D67   D(23,21,24,27)        -57.4126                                         !
 ! D68   D(21,23,29,30)          0.4892                                         !
 ! D69   D(21,23,29,31)        176.4036                                         !
 ! D70   D(28,23,29,30)       -178.5544                                         !
 ! D71   D(28,23,29,31)         -2.64                                           !
 ! D72   D(23,29,31,32)        -41.3393                                         !
 ! D73   D(23,29,31,33)       -161.9606                                         !
 ! D74   D(23,29,31,34)         78.0519                                         !
 ! D75   D(30,29,31,32)        134.9176                                         !
 ! D76   D(30,29,31,33)         14.2962                                         !
 ! D77   D(30,29,31,34)       -105.6912                                         !
 ! D78   D(29,31,33,37)        -15.0354                                         !
 ! D79   D(29,31,33,40)        166.8013                                         !
 ! D80   D(32,31,33,37)       -134.6202                                         !
 ! D81   D(32,31,33,40)         47.2165                                         !
 ! D82   D(34,31,33,37)        105.7803                                         !
 ! D83   D(34,31,33,40)        -72.383                                          !
 ! D84   D(29,31,34,35)        -59.9785                                         !
 ! D85   D(29,31,34,36)         56.8952                                         !
 ! D86   D(29,31,34,38)       -178.962                                          !
 ! D87   D(32,31,34,35)         60.4589                                         !
 ! D88   D(32,31,34,36)        177.3326                                         !
 ! D89   D(32,31,34,38)        -58.5246                                         !
 ! D90   D(33,31,34,35)       -177.9091                                         !
 ! D91   D(33,31,34,36)        -61.0354                                         !
 ! D92   D(33,31,34,38)         63.1074                                         !
 ! D93   D(31,33,40,41)         12.0315                                         !
 ! D94   D(31,33,40,42)        156.2341                                         !
 ! D95   D(37,33,40,41)       -166.0593                                         !
 ! D96   D(37,33,40,42)        -21.8567                                         !
 ! D97   D(31,34,38,39)        -89.7541                                         !
 ! D98   D(35,34,38,39)        152.25                                           !
 ! D99   D(36,34,38,39)         32.1742                                         !
 ! D100  D(33,40,42,43)         43.052                                          !
 ! D101  D(33,40,42,44)        -73.8515                                         !
 ! D102  D(33,40,42,45)        163.5066                                         !
 ! D103  D(41,40,42,43)       -173.0735                                         !
 ! D104  D(41,40,42,44)         70.023                                          !
 ! D105  D(41,40,42,45)        -52.6189                                         !
 ! D106  D(40,42,44,48)        -12.4344                                         !
 ! D107  D(40,42,44,59)        168.7856                                         !
 ! D108  D(43,42,44,48)       -128.8141                                         !
 ! D109  D(43,42,44,59)         52.4058                                         !
 ! D110  D(45,42,44,48)        109.9707                                         !
 ! D111  D(45,42,44,59)        -68.8094                                         !
 ! D112  D(40,42,45,46)        179.966                                          !
 ! D113  D(40,42,45,47)         65.2989                                         !
 ! D114  D(40,42,45,49)        -57.5516                                         !
 ! D115  D(43,42,45,46)        -61.541                                          !
 ! D116  D(43,42,45,47)       -176.2081                                         !
 ! D117  D(43,42,45,49)         60.9414                                         !
 ! D118  D(44,42,45,46)         58.2378                                         !
 ! D119  D(44,42,45,47)        -56.4292                                         !
 ! D120  D(44,42,45,49)       -179.2797                                         !
 ! D121  D(42,44,59,60)         -2.2516                                         !
 ! D122  D(42,44,59,61)        174.196                                          !
 ! D123  D(48,44,59,60)        178.9775                                         !
 ! D124  D(48,44,59,61)         -4.5749                                         !
 ! D125  D(42,45,49,50)         60.4867                                         !
 ! D126  D(42,45,49,51)        178.1053                                         !
 ! D127  D(42,45,49,55)        -58.2563                                         !
 ! D128  D(46,45,49,50)       -177.5155                                         !
 ! D129  D(46,45,49,51)        -59.8969                                         !
 ! D130  D(46,45,49,55)         63.7414                                         !
 ! D131  D(47,45,49,50)        -61.7771                                         !
 ! D132  D(47,45,49,51)         55.8415                                         !
 ! D133  D(47,45,49,55)        179.4798                                         !
 ! D134  D(45,49,51,52)         63.3115                                         !
 ! D135  D(45,49,51,53)        -56.7146                                         !
 ! D136  D(45,49,51,54)       -177.0665                                         !
 ! D137  D(50,49,51,52)       -179.2801                                         !
 ! D138  D(50,49,51,53)         60.6937                                         !
 ! D139  D(50,49,51,54)        -59.6581                                         !
 ! D140  D(55,49,51,52)        -61.0241                                         !
 ! D141  D(55,49,51,53)        178.9497                                         !
 ! D142  D(55,49,51,54)         58.5978                                         !
 ! D143  D(45,49,55,56)        -57.1112                                         !
 ! D144  D(45,49,55,57)         63.7352                                         !
 ! D145  D(45,49,55,58)       -176.3796                                         !
 ! D146  D(50,49,55,56)       -175.7944                                         !
 ! D147  D(50,49,55,57)        -54.948                                          !
 ! D148  D(50,49,55,58)         64.9372                                         !
 ! D149  D(51,49,55,56)         65.8073                                         !
 ! D150  D(51,49,55,57)       -173.3463                                         !
 ! D151  D(51,49,55,58)        -53.4611                                         !
 ! D152  D(44,59,61,62)        -39.2256                                         !
 ! D153  D(44,59,61,63)       -157.9984                                         !
 ! D154  D(44,59,61,64)         80.2385                                         !
 ! D155  D(60,59,61,62)        137.5429                                         !
 ! D156  D(60,59,61,63)         18.77                                           !
 ! D157  D(60,59,61,64)       -102.993                                          !
 ! D158  D(59,61,63,67)        154.677                                          !
 ! D159  D(59,61,63,83)        -28.8579                                         !
 ! D160  D(62,61,63,67)         36.7438                                         !
 ! D161  D(62,61,63,83)       -146.7911                                         !
 ! D162  D(64,61,63,67)        -86.1148                                         !
 ! D163  D(64,61,63,83)         90.3503                                         !
 ! D164  D(59,61,64,65)         66.697                                          !
 ! D165  D(59,61,64,66)        -47.03                                           !
 ! D166  D(59,61,64,68)       -167.3471                                         !
 ! D167  D(62,61,64,65)       -174.0461                                         !
 ! D168  D(62,61,64,66)         72.2269                                         !
 ! D169  D(62,61,64,68)        -48.0902                                         !
 ! D170  D(63,61,64,65)        -50.6715                                         !
 ! D171  D(63,61,64,66)       -164.3985                                         !
 ! D172  D(63,61,64,68)         75.2844                                         !
 ! D173  D(61,64,68,69)         23.2514                                         !
 ! D174  D(61,64,68,70)        139.02                                           !
 ! D175  D(61,64,68,71)       -101.3095                                         !
 ! D176  D(65,64,68,69)        147.8934                                         !
 ! D177  D(65,64,68,70)        -96.3381                                         !
 ! D178  D(65,64,68,71)         23.3325                                         !
 ! D179  D(66,64,68,69)        -95.7072                                         !
 ! D180  D(66,64,68,70)         20.0614                                         !
 ! D181  D(66,64,68,71)        139.7319                                         !
 ! D182  D(64,68,71,72)        -52.082                                          !
 ! D183  D(64,68,71,73)       -170.286                                          !
 ! D184  D(64,68,71,74)         68.7859                                         !
 ! D185  D(69,68,71,72)       -177.3854                                         !
 ! D186  D(69,68,71,73)         64.4106                                         !
 ! D187  D(69,68,71,74)        -56.5176                                         !
 ! D188  D(70,68,71,72)         69.0676                                         !
 ! D189  D(70,68,71,73)        -49.1364                                         !
 ! D190  D(70,68,71,74)       -170.0645                                         !
 ! D191  D(68,71,74,75)         13.5163                                         !
 ! D192  D(68,71,74,82)       -133.3564                                         !
 ! D193  D(72,71,74,75)        134.3206                                         !
 ! D194  D(72,71,74,82)        -12.5522                                         !
 ! D195  D(73,71,74,75)       -107.317                                          !
 ! D196  D(73,71,74,82)        105.8102                                         !
 ! D197  D(71,74,82,76)        -24.2061                                         !
 ! D198  D(71,74,82,79)        155.9667                                         !
 ! D199  D(75,74,82,76)       -171.9568                                         !
 ! D200  D(75,74,82,79)          8.2159                                         !
 ! D201  D(77,76,82,74)       -173.4252                                         !
 ! D202  D(77,76,82,79)          6.3972                                         !
 ! D203  D(78,76,82,74)        -23.971                                          !
 ! D204  D(78,76,82,79)        155.8513                                         !
 ! D205  D(80,79,82,74)        -21.7912                                         !
 ! D206  D(80,79,82,76)        158.3825                                         !
 ! D207  D(81,79,82,74)       -173.8907                                         !
 ! D208  D(81,79,82,76)          6.283                                          !
 --------------------------------------------------------------------------------
 Symmetry turned off by external request.
 Stoichiometry    C23H45N8O7(1+)
 Framework group  C1[X(C23H45N8O7)]
 Deg. of freedom   243
 Full point group                 C1      NOp   1
                          Input orientation:                          
 ---------------------------------------------------------------------
 Center     Atomic      Atomic             Coordinates (Angstroms)
 Number     Number       Type             X           Y           Z
 ---------------------------------------------------------------------
      1          7           0       -9.189602    2.653532    1.690327
      2          1           0       -9.696942    3.363413    2.225458
      3          1           0       -8.346983    3.111414    1.233145
      4          1           0       -9.824079    2.252869    0.995260
      5          6           0       -8.530173    1.600133    2.565704
      6          1           0       -9.021066    1.613394    3.543188
      7          6           0       -7.073309    2.131930    2.641436
      8          6           0       -8.667024    0.198052    1.916680
      9          1           0       -8.156965    0.239817    0.944574
     10          8           0       -6.722922    2.956182    1.788373
     11          6           0       -7.966521   -0.871977    2.770814
     12          1           0       -8.334447   -0.858698    3.806212
     13          1           0       -6.882471   -0.748450    2.744112
     14          1           0       -8.191477   -1.861919    2.363767
     15          6           0      -10.147728   -0.172822    1.715538
     16          1           0      -10.680776   -0.202211    2.673447
     17          1           0      -10.699203    0.499785    1.043461
     18          1           0      -10.216464   -1.166820    1.265066
     19          7           0       -6.294640    1.704186    3.642816
     20          1           0       -6.627614    0.923370    4.194947
     21          6           0       -4.840267    1.851987    3.541352
     22          1           0       -4.630640    2.912286    3.370792
     23          6           0       -4.350455    1.039118    2.309696
     24          6           0       -4.178441    1.377212    4.837948
     25          1           0       -3.095765    1.515171    4.783959
     26          1           0       -4.554389    1.942572    5.696181
     27          1           0       -4.367940    0.309829    5.002822
     28          8           0       -5.087993    0.228867    1.745498
     29          7           0       -3.083202    1.286107    1.949766
     30          1           0       -2.487100    1.945499    2.445864
     31          6           0       -2.402110    0.583621    0.876798
     32          1           0       -2.648910   -0.482240    0.918491
     33          6           0       -0.903704    0.816027    1.084461
     34          6           0       -2.837568    1.122927   -0.519674
     35          1           0       -3.917874    0.966892   -0.600620
     36          1           0       -2.636225    2.203191   -0.549582
     37          8           0       -0.497532    1.697823    1.841938
     38          8           0       -2.202353    0.434794   -1.571619
     39          1           0       -1.362955    0.916101   -1.762816
     40          7           0       -0.100583    0.008242    0.345199
     41          1           0       -0.580894   -0.508816   -0.386007
     42          6           0        1.258559    0.420243    0.030746
     43          1           0        1.685086    0.847886    0.941371
     44          6           0        1.224522    1.529613   -1.048731
     45          6           0        2.094535   -0.783260   -0.440584
     46          1           0        3.108960   -0.432103   -0.667611
     47          1           0        1.678196   -1.144499   -1.392254
     48          8           0        0.194609    1.798244   -1.690442
     49          6           0        2.172857   -1.949335    0.562526
     50          1           0        1.150407   -2.311773    0.738864
     51          6           0        2.991020   -3.098039   -0.044564
     52          1           0        4.027173   -2.785580   -0.226983
     53          1           0        2.569245   -3.430652   -1.000472
     54          1           0        3.017371   -3.960731    0.630613
     55          6           0        2.759751   -1.512078    1.911988
     56          1           0        3.756564   -1.071018    1.779831
     57          1           0        2.126296   -0.774847    2.417677
     58          1           0        2.864195   -2.370992    2.584394
     59          7           0        2.388960    2.152829   -1.251640
     60          1           0        3.227444    1.940917   -0.713658
     61          6           0        2.635054    3.143660   -2.294514
     62          1           0        2.122516    2.834868   -3.209668
     63          6           0        4.171589    3.156078   -2.513792
     64          6           0        2.078421    4.518478   -1.828470
     65          1           0        2.680545    4.855303   -0.973741
     66          1           0        1.075283    4.310033   -1.443875
     67          8           0        4.573510    3.541914   -3.665652
     68          6           0        1.959666    5.641454   -2.887636
     69          1           0        1.897363    5.211396   -3.895736
     70          1           0        1.015968    6.177711   -2.732608
     71          6           0        3.067170    6.709180   -2.867782
     72          1           0        3.170762    7.113682   -1.853014
     73          1           0        2.792590    7.537269   -3.533804
     74          7           0        4.338943    6.127077   -3.299763
     75          1           0        4.259441    5.191315   -3.750616
     76          7           0        5.758934    7.366695   -1.917318
     77          1           0        6.689907    7.514117   -1.555206
     78          1           0        5.217694    8.204465   -2.074331
     79          7           0        6.456102    5.348298   -2.891356
     80          1           0        6.091757    4.418883   -3.191773
     81          1           0        7.325351    5.388370   -2.379693
     82          6           0        5.518927    6.282678   -2.699682
     83          8           0        4.883557    2.857997   -1.539057
 ---------------------------------------------------------------------
 Rotational constants (GHZ):           0.1473810           0.0316706           0.0282357
 Standard basis: 6-31G(d) (6D, 7F)
   660 basis functions,  1244 primitive gaussians,   660 cartesian basis functions
   147 alpha electrons      147 beta electrons
       nuclear repulsion energy      4449.2580083526 Hartrees.
 NAtoms=   83 NActive=   83 NUniq=   83 SFac= 1.00D+00 NAtFMM=   60 NAOKFM=T Big=T
 Integral buffers will be    131072 words long.
 Raffenetti 2 integral format.
 Two-electron integral symmetry is turned off.
 Nuclear repulsion after empirical dispersion term =     4449.1546945715 Hartrees.
 One-electron integrals computed using PRISM.
 NBasis=   660 RedAO= T EigKep=  1.88D-03  NBF=   660
 NBsUse=   660 1.00D-06 EigRej= -1.00D+00 NBFU=   660
 Initial guess from the checkpoint file:  "conf-126.chk"
 B after Tr=     0.000000    0.000000    0.000000
         Rot=    1.000000    0.000000    0.000000    0.000000 Ang=   0.00 deg.
 Requested convergence on RMS density matrix=1.00D-08 within 128 cycles.
 Requested convergence on MAX density matrix=1.00D-06.
 Requested convergence on             energy=1.00D-06.
 No special actions if energy rises.
 SCF Done:  E(RB3LYP) =  -1868.12545367     A.U. after    2 cycles
            NFock=  2  Conv=0.86D-08     -V/T= 2.0094

 **********************************************************************

            Population analysis using the SCF Density.

 **********************************************************************

 Alpha  occ. eigenvalues --  -19.26958 -19.20767 -19.18934 -19.18844 -19.17621
 Alpha  occ. eigenvalues --  -19.13696 -19.13198 -14.59813 -14.49708 -14.46099
 Alpha  occ. eigenvalues --  -14.44495 -14.43042 -14.42996 -14.41951 -14.40503
 Alpha  occ. eigenvalues --  -10.43606 -10.40704 -10.40578 -10.37955 -10.35484
 Alpha  occ. eigenvalues --  -10.34579 -10.34145 -10.34036 -10.31259 -10.31027
 Alpha  occ. eigenvalues --  -10.30035 -10.30023 -10.29341 -10.29048 -10.29006
 Alpha  occ. eigenvalues --  -10.28876 -10.26557 -10.25421 -10.24292 -10.24051
 Alpha  occ. eigenvalues --  -10.23917 -10.21978 -10.21769  -1.19528  -1.13904
 Alpha  occ. eigenvalues --   -1.12608  -1.10712  -1.09538  -1.08874  -1.06801
 Alpha  occ. eigenvalues --   -1.06539  -1.06246  -1.00970  -0.99306  -0.98974
 Alpha  occ. eigenvalues --   -0.98080  -0.97296  -0.96694  -0.94947  -0.89225
 Alpha  occ. eigenvalues --   -0.86593  -0.85497  -0.85274  -0.82866  -0.81037
 Alpha  occ. eigenvalues --   -0.80768  -0.78390  -0.76064  -0.74604  -0.73942
 Alpha  occ. eigenvalues --   -0.73486  -0.72870  -0.72671  -0.71584  -0.71098
 Alpha  occ. eigenvalues --   -0.69863  -0.69678  -0.67342  -0.66519  -0.65687
 Alpha  occ. eigenvalues --   -0.65365  -0.64333  -0.63488  -0.63159  -0.62956
 Alpha  occ. eigenvalues --   -0.62194  -0.61128  -0.59789  -0.59190  -0.57962
 Alpha  occ. eigenvalues --   -0.57898  -0.57795  -0.57043  -0.56733  -0.55644
 Alpha  occ. eigenvalues --   -0.54806  -0.54527  -0.54326  -0.53649  -0.53184
 Alpha  occ. eigenvalues --   -0.53032  -0.52622  -0.52144  -0.51737  -0.51419
 Alpha  occ. eigenvalues --   -0.50731  -0.50428  -0.50096  -0.49758  -0.49610
 Alpha  occ. eigenvalues --   -0.49495  -0.49242  -0.48557  -0.48223  -0.48052
 Alpha  occ. eigenvalues --   -0.47744  -0.47430  -0.46721  -0.46389  -0.46046
 Alpha  occ. eigenvalues --   -0.45963  -0.45830  -0.45323  -0.45086  -0.44369
 Alpha  occ. eigenvalues --   -0.43760  -0.43181  -0.42973  -0.42337  -0.41673
 Alpha  occ. eigenvalues --   -0.41446  -0.41393  -0.40619  -0.39943  -0.39813
 Alpha  occ. eigenvalues --   -0.38970  -0.38564  -0.37566  -0.37412  -0.37314
 Alpha  occ. eigenvalues --   -0.36590  -0.35741  -0.34708  -0.33298  -0.33259
 Alpha  occ. eigenvalues --   -0.32673  -0.31619  -0.31140  -0.30510  -0.29074
 Alpha  occ. eigenvalues --   -0.27991  -0.27441
 Alpha virt. eigenvalues --   -0.12658  -0.10964  -0.06814  -0.06411  -0.05516
 Alpha virt. eigenvalues --   -0.05171  -0.04698  -0.03114  -0.02130  -0.01902
 Alpha virt. eigenvalues --   -0.01180  -0.00598   0.00366   0.00586   0.02024
 Alpha virt. eigenvalues --    0.02211   0.02772   0.02898   0.03491   0.04288
 Alpha virt. eigenvalues --    0.04557   0.04737   0.04776   0.05202   0.05756
 Alpha virt. eigenvalues --    0.05805   0.05920   0.06147   0.06410   0.06824
 Alpha virt. eigenvalues --    0.07177   0.07504   0.07968   0.08531   0.08788
 Alpha virt. eigenvalues --    0.09210   0.09242   0.09677   0.09844   0.10105
 Alpha virt. eigenvalues --    0.10377   0.10733   0.11317   0.11370   0.11873
 Alpha virt. eigenvalues --    0.12068   0.12122   0.12361   0.12632   0.12778
 Alpha virt. eigenvalues --    0.13057   0.13475   0.13681   0.14112   0.14544
 Alpha virt. eigenvalues --    0.14866   0.15188   0.15552   0.16091   0.16552
 Alpha virt. eigenvalues --    0.17099   0.17298   0.17621   0.18023   0.18446
 Alpha virt. eigenvalues --    0.18729   0.19322   0.19676   0.20740   0.21347
 Alpha virt. eigenvalues --    0.21820   0.22568   0.23178   0.23716   0.24108
 Alpha virt. eigenvalues --    0.25443   0.26243   0.27106   0.27848   0.29106
 Alpha virt. eigenvalues --    0.30773   0.31087   0.33198   0.33726   0.33834
 Alpha virt. eigenvalues --    0.35005   0.36120   0.36749   0.38225   0.39140
 Alpha virt. eigenvalues --    0.39313   0.40119   0.40342   0.41758   0.42273
 Alpha virt. eigenvalues --    0.42408   0.44043   0.44170   0.44731   0.45014
 Alpha virt. eigenvalues --    0.46011   0.46259   0.46848   0.47087   0.47315
 Alpha virt. eigenvalues --    0.47699   0.48098   0.48501   0.48776   0.48882
 Alpha virt. eigenvalues --    0.49277   0.49765   0.50089   0.50922   0.51821
 Alpha virt. eigenvalues --    0.51938   0.52039   0.53045   0.53453   0.54196
 Alpha virt. eigenvalues --    0.54846   0.55256   0.55442   0.56240   0.56316
 Alpha virt. eigenvalues --    0.57272   0.57366   0.57635   0.58001   0.58822
 Alpha virt. eigenvalues --    0.59438   0.59878   0.60141   0.60491   0.60634
 Alpha virt. eigenvalues --    0.60825   0.61013   0.61580   0.61993   0.62529
 Alpha virt. eigenvalues --    0.62988   0.64318   0.64631   0.65302   0.65823
 Alpha virt. eigenvalues --    0.66182   0.66764   0.66931   0.67078   0.67687
 Alpha virt. eigenvalues --    0.67812   0.68455   0.68614   0.68958   0.69210
 Alpha virt. eigenvalues --    0.70186   0.70343   0.70417   0.71590   0.71716
 Alpha virt. eigenvalues --    0.72646   0.73281   0.73749   0.74109   0.74713
 Alpha virt. eigenvalues --    0.74991   0.75805   0.76299   0.76390   0.77227
 Alpha virt. eigenvalues --    0.77449   0.77674   0.77909   0.78153   0.78597
 Alpha virt. eigenvalues --    0.78751   0.79024   0.79340   0.79511   0.79885
 Alpha virt. eigenvalues --    0.80259   0.80516   0.80732   0.80954   0.81140
 Alpha virt. eigenvalues --    0.81327   0.81697   0.82141   0.82888   0.83095
 Alpha virt. eigenvalues --    0.83387   0.83768   0.84027   0.84383   0.84739
 Alpha virt. eigenvalues --    0.84793   0.84947   0.85567   0.85790   0.86315
 Alpha virt. eigenvalues --    0.86446   0.86723   0.87120   0.87448   0.87938
 Alpha virt. eigenvalues --    0.88354   0.88917   0.89185   0.89398   0.89720
 Alpha virt. eigenvalues --    0.90300   0.91086   0.91239   0.91962   0.92688
 Alpha virt. eigenvalues --    0.92766   0.92961   0.93253   0.94010   0.94226
 Alpha virt. eigenvalues --    0.95184   0.95659   0.96436   0.97356   0.98543
 Alpha virt. eigenvalues --    0.98840   0.99384   0.99729   1.00156   1.01023
 Alpha virt. eigenvalues --    1.01952   1.03814   1.05779   1.06198   1.06820
 Alpha virt. eigenvalues --    1.07713   1.08637   1.09577   1.09838   1.10931
 Alpha virt. eigenvalues --    1.11273   1.12175   1.12311   1.12681   1.14151
 Alpha virt. eigenvalues --    1.14545   1.16128   1.17193   1.18591   1.19184
 Alpha virt. eigenvalues --    1.20240   1.20976   1.22139   1.22456   1.23071
 Alpha virt. eigenvalues --    1.23273   1.24121   1.25227   1.25317   1.26161
 Alpha virt. eigenvalues --    1.26732   1.28944   1.30042   1.31734   1.32506
 Alpha virt. eigenvalues --    1.33010   1.33591   1.34458   1.35971   1.36288
 Alpha virt. eigenvalues --    1.36811   1.37530   1.38881   1.39138   1.40483
 Alpha virt. eigenvalues --    1.40981   1.41746   1.42190   1.42567   1.44285
 Alpha virt. eigenvalues --    1.44565   1.45992   1.47399   1.47620   1.48609
 Alpha virt. eigenvalues --    1.50358   1.51408   1.52412   1.53592   1.53758
 Alpha virt. eigenvalues --    1.53998   1.54773   1.56938   1.57830   1.57895
 Alpha virt. eigenvalues --    1.58524   1.59659   1.61055   1.61185   1.62224
 Alpha virt. eigenvalues --    1.62763   1.63474   1.64245   1.64932   1.65530
 Alpha virt. eigenvalues --    1.66323   1.66572   1.67113   1.67651   1.68428
 Alpha virt. eigenvalues --    1.68797   1.69253   1.69909   1.70637   1.70884
 Alpha virt. eigenvalues --    1.71930   1.72500   1.73157   1.73871   1.74041
 Alpha virt. eigenvalues --    1.74534   1.74727   1.75163   1.75708   1.76300
 Alpha virt. eigenvalues --    1.77297   1.77977   1.78462   1.79115   1.79814
 Alpha virt. eigenvalues --    1.80032   1.80593   1.81758   1.81942   1.82335
 Alpha virt. eigenvalues --    1.83372   1.84107   1.84326   1.84613   1.85428
 Alpha virt. eigenvalues --    1.85807   1.86103   1.86941   1.87046   1.87827
 Alpha virt. eigenvalues --    1.88047   1.88509   1.89243   1.89470   1.89938
 Alpha virt. eigenvalues --    1.90193   1.90806   1.91469   1.92623   1.92988
 Alpha virt. eigenvalues --    1.93368   1.94366   1.94442   1.94865   1.95558
 Alpha virt. eigenvalues --    1.96599   1.97113   1.97748   1.98252   1.99004
 Alpha virt. eigenvalues --    1.99237   2.00605   2.01010   2.01472   2.01793
 Alpha virt. eigenvalues --    2.02588   2.02964   2.03960   2.04343   2.05033
 Alpha virt. eigenvalues --    2.05778   2.05960   2.06265   2.06783   2.07768
 Alpha virt. eigenvalues --    2.10031   2.11210   2.11729   2.13194   2.13645
 Alpha virt. eigenvalues --    2.14173   2.14369   2.14980   2.15620   2.16099
 Alpha virt. eigenvalues --    2.17194   2.17705   2.18886   2.19142   2.20491
 Alpha virt. eigenvalues --    2.20713   2.21005   2.22046   2.23485   2.24020
 Alpha virt. eigenvalues --    2.25310   2.25809   2.26997   2.27464   2.27875
 Alpha virt. eigenvalues --    2.28809   2.29563   2.30539   2.31061   2.31723
 Alpha virt. eigenvalues --    2.34081   2.34644   2.35334   2.35830   2.36326
 Alpha virt. eigenvalues --    2.37295   2.39320   2.40377   2.40598   2.41839
 Alpha virt. eigenvalues --    2.43159   2.43515   2.44309   2.44917   2.45391
 Alpha virt. eigenvalues --    2.46945   2.47273   2.48403   2.48553   2.49498
 Alpha virt. eigenvalues --    2.49957   2.50630   2.51578   2.53131   2.54333
 Alpha virt. eigenvalues --    2.55428   2.55643   2.56135   2.59194   2.59841
 Alpha virt. eigenvalues --    2.61147   2.61206   2.62434   2.62698   2.63912
 Alpha virt. eigenvalues --    2.65084   2.65717   2.66940   2.68442   2.68773
 Alpha virt. eigenvalues --    2.70138   2.72048   2.72808   2.74629   2.77959
 Alpha virt. eigenvalues --    2.78901   2.79326   2.82735   2.84346   2.87103
 Alpha virt. eigenvalues --    2.87861   2.89074   2.90833   2.92726   2.93537
 Alpha virt. eigenvalues --    2.94487   2.95596   2.96752   3.01539   3.02386
 Alpha virt. eigenvalues --    3.03410   3.07767   3.10870   3.13831   3.17351
 Alpha virt. eigenvalues --    3.65264   3.71976   3.81146   3.82364   3.91916
 Alpha virt. eigenvalues --    3.93961   3.96168   3.97112   4.00826   4.01270
 Alpha virt. eigenvalues --    4.03970   4.06301   4.07094   4.08814   4.11135
 Alpha virt. eigenvalues --    4.12435   4.15617   4.16654   4.18130   4.20210
 Alpha virt. eigenvalues --    4.23266   4.24083   4.24591   4.29055   4.30347
 Alpha virt. eigenvalues --    4.33420   4.33801   4.35015   4.39282   4.41005
 Alpha virt. eigenvalues --    4.43852   4.49603   4.50634   4.51216   4.52747
 Alpha virt. eigenvalues --    4.57117   4.62534   4.65118
          Condensed to atoms (all electrons):
 Mulliken charges:
               1
     1  N   -0.759697
     2  H    0.414860
     3  H    0.434474
     4  H    0.410514
     5  C   -0.117853
     6  H    0.202124
     7  C    0.672157
     8  C   -0.097658
     9  H    0.187252
    10  O   -0.534817
    11  C   -0.501007
    12  H    0.143371
    13  H    0.217151
    14  H    0.187719
    15  C   -0.475522
    16  H    0.172792
    17  H    0.136309
    18  H    0.203985
    19  N   -0.578376
    20  H    0.352445
    21  C   -0.075859
    22  H    0.200619
    23  C    0.648435
    24  C   -0.480917
    25  H    0.195650
    26  H    0.180525
    27  H    0.170425
    28  O   -0.542839
    29  N   -0.616571
    30  H    0.359096
    31  C   -0.067059
    32  H    0.184664
    33  C    0.605627
    34  C   -0.032436
    35  H    0.161802
    36  H    0.141989
    37  O   -0.542731
    38  O   -0.652697
    39  H    0.444429
    40  N   -0.589531
    41  H    0.343115
    42  C   -0.088872
    43  H    0.192086
    44  C    0.651889
    45  C   -0.284114
    46  H    0.159152
    47  H    0.144653
    48  O   -0.585262
    49  C   -0.063068
    50  H    0.130013
    51  C   -0.445428
    52  H    0.148914
    53  H    0.145035
    54  H    0.148088
    55  C   -0.457521
    56  H    0.145928
    57  H    0.151556
    58  H    0.149506
    59  N   -0.602649
    60  H    0.356941
    61  C   -0.029882
    62  H    0.168364
    63  C    0.586699
    64  C   -0.273336
    65  H    0.142948
    66  H    0.171158
    67  O   -0.642762
    68  C   -0.303180
    69  H    0.172445
    70  H    0.154114
    71  C   -0.147661
    72  H    0.158392
    73  H    0.163998
    74  N   -0.603605
    75  H    0.405507
    76  N   -0.754189
    77  H    0.361533
    78  H    0.366681
    79  N   -0.755037
    80  H    0.413546
    81  H    0.347298
    82  C    0.758764
    83  O   -0.564602
 Sum of Mulliken charges =   1.00000
 Mulliken charges with hydrogens summed into heavy atoms:
               1
     1  N    0.500151
     5  C    0.084271
     7  C    0.672157
     8  C    0.089595
    10  O   -0.534817
    11  C    0.047234
    15  C    0.037565
    19  N   -0.225931
    21  C    0.124760
    23  C    0.648435
    24  C    0.065683
    28  O   -0.542839
    29  N   -0.257476
    31  C    0.117605
    33  C    0.605627
    34  C    0.271355
    37  O   -0.542731
    38  O   -0.208268
    40  N   -0.246416
    42  C    0.103213
    44  C    0.651889
    45  C    0.019692
    48  O   -0.585262
    49  C    0.066945
    51  C   -0.003391
    55  C   -0.010531
    59  N   -0.245708
    61  C    0.138482
    63  C    0.586699
    64  C    0.040769
    67  O   -0.642762
    68  C    0.023378
    71  C    0.174729
    74  N   -0.198099
    76  N   -0.025975
    79  N    0.005808
    82  C    0.758764
    83  O   -0.564602
 Electronic spatial extent (au):  <R**2>=          41850.8900
 Charge=              1.0000 electrons
 Dipole moment (field-independent basis, Debye):
    X=            -26.7704    Y=             18.4631    Z=             10.4152  Tot=             34.1471
 Quadrupole moment (field-independent basis, Debye-Ang):
   XX=            145.2553   YY=            -94.3769   ZZ=           -196.2203
   XY=              1.2493   XZ=            -94.6322   YZ=             -7.2491
 Traceless Quadrupole moment (field-independent basis, Debye-Ang):
   XX=            193.7026   YY=            -45.9296   ZZ=           -147.7730
   XY=              1.2493   XZ=            -94.6322   YZ=             -7.2491
 Octapole moment (field-independent basis, Debye-Ang**2):
  XXX=          -2044.7189  YYY=           -341.5469  ZZZ=             92.7049  XYY=            621.3452
  XXY=            690.4514  XXZ=            617.3293  XZZ=            -76.6873  YZZ=           -350.3213
  YYZ=           -216.1560  XYZ=           -266.2134
 Hexadecapole moment (field-independent basis, Debye-Ang**3):
 XXXX=           -528.5972 YYYY=          -6454.7410 ZZZZ=          -6891.4649 XXXY=          -4929.0211
 XXXZ=           -891.3980 YYYX=           2298.8861 YYYZ=            285.9366 ZZZX=           5070.4849
 ZZZY=           2250.7976 XXYY=          -1969.7109 XXZZ=          -4852.8731 YYZZ=          -3000.8424
 XXYZ=           1199.6140 YYXZ=            455.9047 ZZXY=          -1001.9624
 N-N= 4.449154694572D+03 E-N=-1.322859499425D+04  KE= 1.850726930133D+03
 Unable to Open any file for archive entry.
 1\1\GINC-NVL-000\SP\RB3LYP\6-31G(d)\C23H45N8O7(1+)\KENGMITH\26-Jun-202
 2\0\\# B3LYP/6-31G* empiricaldispersion=gd3 guess=read geom=check nosy
 mm integral(ultrafinegrid)\\Candidate Structure: Conf:126 Charge calc 
 in gas phase\\1,1\N,0,-9.1896020495,2.6535322219,1.69032661\H,0,-9.696
 9419998,3.3634126454,2.2254581854\H,0,-8.3469825378,3.1114135066,1.233
 1451938\H,0,-9.8240791767,2.2528692161,0.99526016\C,0,-8.5301725038,1.
 6001327366,2.5657041391\H,0,-9.0210661461,1.6133939664,3.5431877359\C,
 0,-7.0733091914,2.1319299828,2.6414356069\C,0,-8.6670241794,0.19805162
 96,1.9166802325\H,0,-8.1569650677,0.2398169173,0.9445738411\O,0,-6.722
 9221265,2.9561824524,1.7883725129\C,0,-7.9665206953,-0.8719771161,2.77
 08139456\H,0,-8.3344474914,-0.8586976487,3.8062121232\H,0,-6.882471284
 6,-0.7484502794,2.7441115042\H,0,-8.191476874,-1.8619192306,2.36376679
 75\C,0,-10.1477279695,-0.1728215591,1.7155380946\H,0,-10.6807761756,-0
 .2022109414,2.6734467963\H,0,-10.6992027054,0.4997853617,1.0434607186\
 H,0,-10.2164637498,-1.1668196933,1.2650658049\N,0,-6.2946403547,1.7041
 857059,3.6428158047\H,0,-6.6276137601,0.9233701817,4.194947367\C,0,-4.
 840267479,1.8519874941,3.5413522597\H,0,-4.6306401725,2.9122858298,3.3
 707923305\C,0,-4.350454827,1.0391181576,2.3096956404\C,0,-4.1784413846
 ,1.377211907,4.8379481576\H,0,-3.0957654089,1.5151711987,4.7839593765\
 H,0,-4.5543885377,1.9425721523,5.6961806424\H,0,-4.367940203,0.3098294
 979,5.0028224558\O,0,-5.0879931456,0.2288671564,1.7454975162\N,0,-3.08
 32020488,1.2861068598,1.9497661772\H,0,-2.4871002994,1.9454988759,2.44
 58644133\C,0,-2.4021097296,0.5836213889,0.8767977058\H,0,-2.6489103163
 ,-0.4822400149,0.9184906107\C,0,-0.9037035594,0.8160269228,1.084461435
 6\C,0,-2.8375684718,1.1229273932,-0.5196742878\H,0,-3.9178737181,0.966
 8918089,-0.6006199669\H,0,-2.636224641,2.2031909028,-0.5495822441\O,0,
 -0.4975322118,1.6978229377,1.8419384158\O,0,-2.202352866,0.4347937055,
 -1.5716185706\H,0,-1.3629554347,0.9161009936,-1.7628158245\N,0,-0.1005
 826367,0.008242158,0.345199313\H,0,-0.5808943003,-0.5088160695,-0.3860
 068081\C,0,1.2585593424,0.4202426384,0.0307459617\H,0,1.6850863939,0.8
 478859222,0.9413706149\C,0,1.2245220643,1.5296132316,-1.0487313918\C,0
 ,2.094535317,-0.7832601535,-0.4405844402\H,0,3.1089600701,-0.432103228
 6,-0.6676110613\H,0,1.6781964,-1.1444992466,-1.3922542058\O,0,0.194609
 1729,1.7982444579,-1.6904418842\C,0,2.1728569853,-1.949334754,0.562525
 5351\H,0,1.1504067432,-2.3117734998,0.7388635917\C,0,2.9910203307,-3.0
 980386741,-0.0445642421\H,0,4.0271727603,-2.7855802221,-0.2269831469\H
 ,0,2.5692449259,-3.4306523613,-1.0004724199\H,0,3.0173714382,-3.960731
 3224,0.6306128693\C,0,2.7597514167,-1.5120784453,1.9119882286\H,0,3.75
 65641282,-1.0710181382,1.7798308824\H,0,2.1262961735,-0.7748469928,2.4
 176766695\H,0,2.864195262,-2.3709923677,2.5843942083\N,0,2.388960041,2
 .1528287077,-1.2516402829\H,0,3.2274435707,1.9409166177,-0.7136576906\
 C,0,2.6350544335,3.143660338,-2.2945140203\H,0,2.1225164878,2.83486839
 72,-3.2096679822\C,0,4.1715886566,3.1560782096,-2.5137915981\C,0,2.078
 4206986,4.5184777404,-1.8284699027\H,0,2.6805451689,4.8553031942,-0.97
 37407797\H,0,1.0752834949,4.3100329515,-1.4438751782\O,0,4.5735096955,
 3.5419143828,-3.6656516155\C,0,1.9596664743,5.6414537379,-2.8876364754
 \H,0,1.8973626715,5.2113957402,-3.8957360733\H,0,1.0159675013,6.177710
 7952,-2.7326078826\C,0,3.0671701146,6.7091797576,-2.8677817851\H,0,3.1
 707624728,7.1136817226,-1.853013641\H,0,2.7925900716,7.5372691429,-3.5
 338041112\N,0,4.3389434016,6.12707721,-3.2997634123\H,0,4.2594411556,5
 .1913147133,-3.7506159849\N,0,5.7589337647,7.3666951562,-1.9173175333\
 H,0,6.6899066435,7.5141173563,-1.5552064713\H,0,5.2176944947,8.2044652
 764,-2.0743308479\N,0,6.4561020104,5.3482976575,-2.8913558636\H,0,6.09
 17568286,4.4188826315,-3.1917730692\H,0,7.3253506229,5.3883701081,-2.3
 796934534\C,0,5.518926574,6.2826781423,-2.6996822749\O,0,4.8835571274,
 2.8579970467,-1.5390569423\\Version=ES64L-G16RevC.01\HF=-1868.1254537\
 RMSD=8.637e-09\Dipole=-8.7376982,3.6176479,3.8329855\Quadrupole=144.01
 31347,-34.1475296,-109.8656051,0.9288409,-70.3566944,-5.3895275\PG=C01
  [X(C23H45N8O7)]\\@
 The archive entry for this job was punched.


 ... I FELL INTO A REVERIE ... THE ATOMS WERE GAMBOLING BEFORE MY EYES
 ... I SAW HOW TWO SMALL ONES UNITED TO FORM A PAIR;
 HOW THE LARGER ONES SEIZED TWO OF THE SMALLER ONES;
 HOW STILL LARGER ONES KEPT HOLD OF THREE OR FOUR
 SMALLER ONES ... I SAW HOW THE LARGER ONES FORMED A CHAIN ...
 THIS WAS THE ORIGIN OF THE STRUCTURE THEORY.

                                   -- C.F.KEKULE VON STRADONITZ
 Job cpu time:       0 days  0 hours  2 minutes 23.6 seconds.
 Elapsed time:       0 days  0 hours  0 minutes 36.5 seconds.
 File lengths (MBytes):  RWF=    344 Int=      0 D2E=      0 Chk=     48 Scr=     16
 Normal termination of Gaussian 16 at Sun Jun 26 14:46:18 2022.
