 Entering Gaussian System, Link 0=/opt/software/Gaussian/g16-AVX2-C.01/g16/g16
 Input=charge-conf-60.com
 Output=charge-conf-60.log
 Initial command:
 /opt/software/Gaussian/g16-AVX2-C.01/g16/l1.exe "/mnt/gs18/scratch/users/kengmith/Gau-58058.inp" -scrdir="/mnt/gs18/scratch/users/kengmith/"
 Entering Link 1 = /opt/software/Gaussian/g16-AVX2-C.01/g16/l1.exe PID=     58073.
  
 Copyright (c) 1988-2019, Gaussian, Inc.  All Rights Reserved.
  
 This is part of the Gaussian(R) 16 program.  It is based on
 the Gaussian(R) 09 system (copyright 2009, Gaussian, Inc.),
 the Gaussian(R) 03 system (copyright 2003, Gaussian, Inc.),
 the Gaussian(R) 98 system (copyright 1998, Gaussian, Inc.),
 the Gaussian(R) 94 system (copyright 1995, Gaussian, Inc.),
 the Gaussian 92(TM) system (copyright 1992, Gaussian, Inc.),
 the Gaussian 90(TM) system (copyright 1990, Gaussian, Inc.),
 the Gaussian 88(TM) system (copyright 1988, Gaussian, Inc.),
 the Gaussian 86(TM) system (copyright 1986, Carnegie Mellon
 University), and the Gaussian 82(TM) system (copyright 1983,
 Carnegie Mellon University). Gaussian is a federally registered
 trademark of Gaussian, Inc.
  
 This software contains proprietary and confidential information,
 including trade secrets, belonging to Gaussian, Inc.
  
 This software is provided under written license and may be
 used, copied, transmitted, or stored only in accord with that
 written license.
  
 The following legend is applicable only to US Government
 contracts under FAR:
  
                    RESTRICTED RIGHTS LEGEND
  
 Use, reproduction and disclosure by the US Government is
 subject to restrictions as set forth in subparagraphs (a)
 and (c) of the Commercial Computer Software - Restricted
 Rights clause in FAR 52.227-19.
  
 Gaussian, Inc.
 340 Quinnipiac St., Bldg. 40, Wallingford CT 06492
  
  
 ---------------------------------------------------------------
 Warning -- This program may not be used in any manner that
 competes with the business of Gaussian, Inc. or will provide
 assistance to any competitor of Gaussian, Inc.  The licensee
 of this program is prohibited from giving any competitor of
 Gaussian, Inc. access to this program.  By using this program,
 the user acknowledges that Gaussian, Inc. is engaged in the
 business of creating and licensing software in the field of
 computational chemistry and represents and warrants to the
 licensee that it is not a competitor of Gaussian, Inc. and that
 it will not use this program in any manner prohibited above.
 ---------------------------------------------------------------
  

 Cite this work as:
 Gaussian 16, Revision C.01,
 M. J. Frisch, G. W. Trucks, H. B. Schlegel, G. E. Scuseria, 
 M. A. Robb, J. R. Cheeseman, G. Scalmani, V. Barone, 
 G. A. Petersson, H. Nakatsuji, X. Li, M. Caricato, A. V. Marenich, 
 J. Bloino, B. G. Janesko, R. Gomperts, B. Mennucci, H. P. Hratchian, 
 J. V. Ortiz, A. F. Izmaylov, J. L. Sonnenberg, D. Williams-Young, 
 F. Ding, F. Lipparini, F. Egidi, J. Goings, B. Peng, A. Petrone, 
 T. Henderson, D. Ranasinghe, V. G. Zakrzewski, J. Gao, N. Rega, 
 G. Zheng, W. Liang, M. Hada, M. Ehara, K. Toyota, R. Fukuda, 
 J. Hasegawa, M. Ishida, T. Nakajima, Y. Honda, O. Kitao, H. Nakai, 
 T. Vreven, K. Throssell, J. A. Montgomery, Jr., J. E. Peralta, 
 F. Ogliaro, M. J. Bearpark, J. J. Heyd, E. N. Brothers, K. N. Kudin, 
 V. N. Staroverov, T. A. Keith, R. Kobayashi, J. Normand, 
 K. Raghavachari, A. P. Rendell, J. C. Burant, S. S. Iyengar, 
 J. Tomasi, M. Cossi, J. M. Millam, M. Klene, C. Adamo, R. Cammi, 
 J. W. Ochterski, R. L. Martin, K. Morokuma, O. Farkas, 
 J. B. Foresman, and D. J. Fox, Gaussian, Inc., Wallingford CT, 2019.
 
 ******************************************
 Gaussian 16:  ES64L-G16RevC.01  3-Jul-2019
                18-Jul-2022 
 ******************************************
 %mem=8gb
 %nproc=4
 Will use up to    4 processors via shared memory.
 %chk=conf-60.chk
 ----------------------------------------------------------------------
 # B3LYP/6-31G* empiricaldispersion=gd3 guess=read geom=check nosymm in
 tegral(ultrafinegrid)
 ----------------------------------------------------------------------
 1/29=2,38=1,172=1/1;
 2/12=2,15=1,40=1/2;
 3/5=1,6=6,7=1,11=2,14=-4,25=1,30=1,74=-5,75=-5,116=-2,124=31/1,2,3;
 4/5=1/1;
 5/5=2,38=6/2;
 6/7=2,8=2,9=2,10=2,28=1/1;
 99/5=1,9=1/99;
 -----------------------------------------------------
 Candidate Structure: Conf:60 Charge calc in gas phase
 -----------------------------------------------------
 Structure from the checkpoint file:  "conf-60.chk"
 Charge =  1 Multiplicity = 1
 Redundant internal coordinates found in file.  (old form).
 N,0,-2.5893473515,-1.0049601263,0.9282374245
 H,0,-3.4414469404,-1.5692912206,0.9252830949
 H,0,-2.0873103345,-1.1126915651,-0.0095621431
 H,0,-1.9502604509,-1.3045888418,1.6849063657
 C,0,-2.8454957728,0.4531074444,1.1364158567
 H,0,-3.727827492,0.5861161579,1.7672758706
 H,0,-2.9991229067,0.9192754963,0.1609214256
 C,0,-1.5878609062,1.0093831354,1.8358168351
 O,0,-0.7936451558,0.2166122277,2.3450084238
 N,0,-1.5030474848,2.3519721981,1.8449751925
 H,0,-2.0938404159,2.8154359879,1.158900139
 C,0,-0.2544069886,3.0666126089,2.1603565007
 H,0,-0.4937305528,3.9786027673,2.7160639819
 H,0,0.3993529185,2.4277676349,2.7575511055
 C,0,0.3827181462,3.3405305947,0.7941854609
 O,0,1.1395999685,2.5408101278,0.2600691339
 N,0,-0.1081378054,4.4239430371,0.1071993198
 H,0,-0.8380035327,4.9748446252,0.5390542333
 C,0,-0.1386982285,4.3143629097,-1.3434210407
 H,0,0.8809616416,4.2967428788,-1.7367157825
 H,0,-0.6539501146,5.1864717728,-1.755325829
 C,0,-0.9026376741,3.0280776853,-1.7188571899
 O,0,-1.8610475875,2.6404623741,-1.0457098235
 N,0,-0.4545204227,2.3223510285,-2.7851318367
 H,0,0.373590761,2.6278745182,-3.2783280197
 C,0,-1.0001656076,0.9946237385,-3.0382091257
 H,0,-2.0853308308,1.0435144775,-3.1388912048
 H,0,-0.5770168809,0.6112134401,-3.9707904409
 C,0,-0.7036115113,0.0168817586,-1.8856660993
 O,0,-1.5976040917,-0.7615314118,-1.4947238561
 N,0,0.5260510144,0.0603357086,-1.3789581199
 H,0,1.2035406183,0.7343318061,-1.721560107
 C,0,0.9935392641,-0.7190809709,-0.240812667
 H,0,1.2086631427,-1.7499237489,-0.5472668315
 H,0,0.2370056929,-0.7360479374,0.542122546
 C,0,2.294671924,-0.0612805311,0.2349864076
 O,0,3.1277429234,0.2949071612,-0.5917918619
 N,0,2.435105959,0.0682416201,1.573443962
 H,0,1.6020062936,0.074778547,2.1576394737
 C,0,3.5502544975,0.8431531443,2.0860770348
 H,0,4.4598453543,0.2333509578,2.1333965109
 H,0,3.7555966048,1.6771498006,1.4019404432
 C,0,3.1888261212,1.4032108997,3.4609086974
 O,0,2.014848746,1.5342156303,3.8233005302
 N,0,4.2338058374,1.7656963003,4.224496181
 H,0,5.2002777517,1.6117229337,3.9478148787
 C,0,4.070973604,2.3480482002,5.5376582943
 H,0,3.5439909513,3.3094660113,5.4787114327
 H,0,3.4674500014,1.6933602126,6.1790343427
 C,0,5.4716892911,2.5451023052,6.132638023
 O,0,6.4825862285,2.2389510514,5.5043793189
 N,0,5.5010313332,3.0731791887,7.3741190105
 H,0,4.6554460461,3.3145920407,7.8790371255
 C,0,6.7500248968,3.3154121669,8.0643115238
 H,0,7.3225566706,2.3888755256,8.1943337981
 H,0,7.3934952276,3.9997992008,7.4982370665
 C,0,6.4460177206,3.9151420079,9.4226926698
 O,0,5.3291822902,4.1419533522,9.8369920337
 O,0,7.5748049507,4.1611980922,10.1056406922
 H,0,7.3192827477,4.5424998533,10.9672946277
 Recover connectivity data from disk.
                           ----------------------------
                           !    Current Parameters    !
                           ! (Angstroms and Degrees)  !
 --------------------------                            --------------------------
 ! Name  Definition              Value                                          !
 --------------------------------------------------------------------------------
 ! R1    R(1,2)                  1.022                                          !
 ! R2    R(1,3)                  1.0692                                         !
 ! R3    R(1,4)                  1.0348                                         !
 ! R4    R(1,5)                  1.495                                          !
 ! R5    R(5,6)                  1.0928                                         !
 ! R6    R(5,7)                  1.092                                          !
 ! R7    R(5,8)                  1.5428                                         !
 ! R8    R(8,9)                  1.2323                                         !
 ! R9    R(8,10)                 1.3453                                         !
 ! R10   R(10,11)                1.0171                                         !
 ! R11   R(10,12)                1.4728                                         !
 ! R12   R(12,13)                1.0944                                         !
 ! R13   R(12,14)                1.0919                                         !
 ! R14   R(12,15)                1.5321                                         !
 ! R15   R(15,16)                1.2238                                         !
 ! R16   R(15,17)                1.3736                                         !
 ! R17   R(17,18)                1.0113                                         !
 ! R18   R(17,19)                1.4551                                         !
 ! R19   R(19,20)                1.093                                          !
 ! R20   R(19,21)                1.0935                                         !
 ! R21   R(19,22)                1.5424                                         !
 ! R22   R(22,23)                1.2337                                         !
 ! R23   R(22,24)                1.3549                                         !
 ! R24   R(24,25)                1.0111                                         !
 ! R25   R(24,26)                1.4576                                         !
 ! R26   R(26,27)                1.0909                                         !
 ! R27   R(26,28)                1.0935                                         !
 ! R28   R(26,29)                1.5402                                         !
 ! R29   R(29,30)                1.2482                                         !
 ! R30   R(29,31)                1.3307                                         !
 ! R31   R(31,32)                1.0152                                         !
 ! R32   R(31,33)                1.4565                                         !
 ! R33   R(33,34)                1.0967                                         !
 ! R34   R(33,35)                1.0889                                         !
 ! R35   R(33,36)                1.5336                                         !
 ! R36   R(36,37)                1.2266                                         !
 ! R37   R(36,38)                1.352                                          !
 ! R38   R(38,39)                1.0175                                         !
 ! R39   R(38,40)                1.4515                                         !
 ! R40   R(40,41)                1.0961                                         !
 ! R41   R(40,42)                1.0981                                         !
 ! R42   R(40,43)                1.5279                                         !
 ! R43   R(43,44)                1.2356                                         !
 ! R44   R(43,45)                1.344                                          !
 ! R45   R(45,46)                1.017                                          !
 ! R46   R(45,47)                1.4457                                         !
 ! R47   R(47,48)                1.098                                          !
 ! R48   R(47,49)                1.0974                                         !
 ! R49   R(47,50)                1.5345                                         !
 ! R50   R(50,51)                1.229                                          !
 ! R51   R(50,52)                1.3494                                         !
 ! R52   R(52,53)                1.014                                          !
 ! R53   R(52,54)                1.4474                                         !
 ! R54   R(54,55)                1.0969                                         !
 ! R55   R(54,56)                1.0968                                         !
 ! R56   R(54,57)                1.5157                                         !
 ! R57   R(57,58)                1.2126                                         !
 ! R58   R(57,59)                1.3421                                         !
 ! R59   R(59,60)                0.9763                                         !
 ! A1    A(2,1,3)              109.47                                           !
 ! A2    A(2,1,4)              110.9252                                         !
 ! A3    A(2,1,5)              113.3339                                         !
 ! A4    A(3,1,4)              108.7968                                         !
 ! A5    A(3,1,5)              107.5101                                         !
 ! A6    A(4,1,5)              106.643                                          !
 ! A7    A(1,5,6)              109.7213                                         !
 ! A8    A(1,5,7)              108.4249                                         !
 ! A9    A(1,5,8)              105.9692                                         !
 ! A10   A(6,5,7)              110.4963                                         !
 ! A11   A(6,5,8)              110.6453                                         !
 ! A12   A(7,5,8)              111.4518                                         !
 ! A13   A(5,8,9)              118.7333                                         !
 ! A14   A(5,8,10)             114.4761                                         !
 ! A15   A(9,8,10)             126.7691                                         !
 ! A16   A(8,10,11)            114.4271                                         !
 ! A17   A(8,10,12)            122.625                                          !
 ! A18   A(11,10,12)           114.568                                          !
 ! A19   A(10,12,13)           109.1269                                         !
 ! A20   A(10,12,14)           109.9277                                         !
 ! A21   A(10,12,15)           104.3801                                         !
 ! A22   A(13,12,14)           109.9238                                         !
 ! A23   A(13,12,15)           113.248                                          !
 ! A24   A(14,12,15)           110.0795                                         !
 ! A25   A(12,15,16)           121.9733                                         !
 ! A26   A(12,15,17)           116.0011                                         !
 ! A27   A(16,15,17)           121.209                                          !
 ! A28   A(15,17,18)           118.2952                                         !
 ! A29   A(15,17,19)           116.5336                                         !
 ! A30   A(18,17,19)           116.8461                                         !
 ! A31   A(17,19,20)           109.8978                                         !
 ! A32   A(17,19,21)           108.9879                                         !
 ! A33   A(17,19,22)           108.4131                                         !
 ! A34   A(20,19,21)           108.4748                                         !
 ! A35   A(20,19,22)           111.1625                                         !
 ! A36   A(21,19,22)           109.8791                                         !
 ! A37   A(19,22,23)           120.9296                                         !
 ! A38   A(19,22,24)           117.5234                                         !
 ! A39   A(23,22,24)           121.5132                                         !
 ! A40   A(22,24,25)           119.8248                                         !
 ! A41   A(22,24,26)           119.1619                                         !
 ! A42   A(25,24,26)           119.8108                                         !
 ! A43   A(24,26,27)           110.3386                                         !
 ! A44   A(24,26,28)           108.82                                           !
 ! A45   A(24,26,29)           112.1011                                         !
 ! A46   A(27,26,28)           108.7795                                         !
 ! A47   A(27,26,29)           106.8002                                         !
 ! A48   A(28,26,29)           109.9432                                         !
 ! A49   A(26,29,30)           119.4955                                         !
 ! A50   A(26,29,31)           116.2403                                         !
 ! A51   A(30,29,31)           124.2605                                         !
 ! A52   A(29,31,32)           120.6543                                         !
 ! A53   A(29,31,33)           125.2174                                         !
 ! A54   A(32,31,33)           113.8777                                         !
 ! A55   A(31,33,34)           110.3397                                         !
 ! A56   A(31,33,35)           110.3166                                         !
 ! A57   A(31,33,36)           106.5715                                         !
 ! A58   A(34,33,35)           108.8175                                         !
 ! A59   A(34,33,36)           108.8701                                         !
 ! A60   A(35,33,36)           111.905                                          !
 ! A61   A(33,36,37)           119.4498                                         !
 ! A62   A(33,36,38)           115.8708                                         !
 ! A63   A(37,36,38)           124.6759                                         !
 ! A64   A(36,38,39)           118.943                                          !
 ! A65   A(36,38,40)           118.7231                                         !
 ! A66   A(39,38,40)           115.0129                                         !
 ! A67   A(38,40,41)           110.8412                                         !
 ! A68   A(38,40,42)           109.2148                                         !
 ! A69   A(38,40,43)           109.3751                                         !
 ! A70   A(41,40,42)           107.113                                          !
 ! A71   A(41,40,43)           111.1851                                         !
 ! A72   A(42,40,43)           109.0537                                         !
 ! A73   A(40,43,44)           121.8387                                         !
 ! A74   A(40,43,45)           115.2238                                         !
 ! A75   A(44,43,45)           122.9217                                         !
 ! A76   A(43,45,46)           122.9193                                         !
 ! A77   A(43,45,47)           122.4873                                         !
 ! A78   A(46,45,47)           114.5275                                         !
 ! A79   A(45,47,48)           110.9785                                         !
 ! A80   A(45,47,49)           110.6409                                         !
 ! A81   A(45,47,50)           107.5234                                         !
 ! A82   A(48,47,49)           106.847                                          !
 ! A83   A(48,47,50)           110.2722                                         !
 ! A84   A(49,47,50)           110.6101                                         !
 ! A85   A(47,50,51)           121.3743                                         !
 ! A86   A(47,50,52)           115.2648                                         !
 ! A87   A(51,50,52)           123.3609                                         !
 ! A88   A(50,52,53)           122.2174                                         !
 ! A89   A(50,52,54)           121.5301                                         !
 ! A90   A(53,52,54)           116.2504                                         !
 ! A91   A(52,54,55)           111.4423                                         !
 ! A92   A(52,54,56)           111.3821                                         !
 ! A93   A(52,54,57)           108.693                                          !
 ! A94   A(55,54,56)           106.3822                                         !
 ! A95   A(55,54,57)           109.432                                          !
 ! A96   A(56,54,57)           109.4714                                         !
 ! A97   A(54,57,58)           124.3986                                         !
 ! A98   A(54,57,59)           111.0948                                         !
 ! A99   A(58,57,59)           124.5066                                         !
 ! A100  A(57,59,60)           107.4937                                         !
 ! D1    D(2,1,5,6)             31.3776                                         !
 ! D2    D(2,1,5,7)            -89.3851                                         !
 ! D3    D(2,1,5,8)            150.8606                                         !
 ! D4    D(3,1,5,6)            152.4909                                         !
 ! D5    D(3,1,5,7)             31.7283                                         !
 ! D6    D(3,1,5,8)            -88.0261                                         !
 ! D7    D(4,1,5,6)            -90.9608                                         !
 ! D8    D(4,1,5,7)            148.2766                                         !
 ! D9    D(4,1,5,8)             28.5222                                         !
 ! D10   D(1,5,8,9)            -15.4401                                         !
 ! D11   D(1,5,8,10)           166.1353                                         !
 ! D12   D(6,5,8,9)            103.4346                                         !
 ! D13   D(6,5,8,10)           -74.99                                           !
 ! D14   D(7,5,8,9)           -133.1931                                         !
 ! D15   D(7,5,8,10)            48.3822                                         !
 ! D16   D(5,8,10,11)          -18.3989                                         !
 ! D17   D(5,8,10,12)         -164.8012                                         !
 ! D18   D(9,8,10,11)          163.3256                                         !
 ! D19   D(9,8,10,12)           16.9233                                         !
 ! D20   D(8,10,12,13)        -144.1073                                         !
 ! D21   D(8,10,12,14)         -23.4844                                         !
 ! D22   D(8,10,12,15)          94.5468                                         !
 ! D23   D(11,10,12,13)         69.5332                                         !
 ! D24   D(11,10,12,14)       -169.844                                          !
 ! D25   D(11,10,12,15)        -51.8128                                         !
 ! D26   D(10,12,15,16)        -88.7646                                         !
 ! D27   D(10,12,15,17)         80.9985                                         !
 ! D28   D(13,12,15,16)        152.6613                                         !
 ! D29   D(13,12,15,17)        -37.5755                                         !
 ! D30   D(14,12,15,16)         29.1625                                         !
 ! D31   D(14,12,15,17)       -161.0743                                         !
 ! D32   D(12,15,17,18)          0.8087                                         !
 ! D33   D(12,15,17,19)       -146.5491                                         !
 ! D34   D(16,15,17,18)        170.6564                                         !
 ! D35   D(16,15,17,19)         23.2987                                         !
 ! D36   D(15,17,19,20)        -67.7779                                         !
 ! D37   D(15,17,19,21)        173.475                                          !
 ! D38   D(15,17,19,22)         53.9003                                         !
 ! D39   D(18,17,19,20)        144.3842                                         !
 ! D40   D(18,17,19,21)         25.6371                                         !
 ! D41   D(18,17,19,22)        -93.9376                                         !
 ! D42   D(17,19,22,23)         35.0422                                         !
 ! D43   D(17,19,22,24)       -142.8739                                         !
 ! D44   D(20,19,22,23)        155.941                                          !
 ! D45   D(20,19,22,24)        -21.975                                          !
 ! D46   D(21,19,22,23)        -83.9722                                         !
 ! D47   D(21,19,22,24)         98.1118                                         !
 ! D48   D(19,22,24,25)          2.3238                                         !
 ! D49   D(19,22,24,26)        169.7744                                         !
 ! D50   D(23,22,24,25)       -175.5793                                         !
 ! D51   D(23,22,24,26)         -8.1288                                         !
 ! D52   D(22,24,26,27)         56.74                                           !
 ! D53   D(22,24,26,28)        176.0186                                         !
 ! D54   D(22,24,26,29)        -62.1561                                         !
 ! D55   D(25,24,26,27)       -135.8077                                         !
 ! D56   D(25,24,26,28)        -16.5291                                         !
 ! D57   D(25,24,26,29)        105.2962                                         !
 ! D58   D(24,26,29,30)        137.7088                                         !
 ! D59   D(24,26,29,31)        -42.9648                                         !
 ! D60   D(27,26,29,30)         16.7474                                         !
 ! D61   D(27,26,29,31)       -163.9262                                         !
 ! D62   D(28,26,29,30)       -101.1107                                         !
 ! D63   D(28,26,29,31)         78.2157                                         !
 ! D64   D(26,29,31,32)          2.4287                                         !
 ! D65   D(26,29,31,33)        176.3166                                         !
 ! D66   D(30,29,31,32)       -178.2807                                         !
 ! D67   D(30,29,31,33)         -4.3928                                         !
 ! D68   D(29,31,33,34)         78.2281                                         !
 ! D69   D(29,31,33,35)        -42.0417                                         !
 ! D70   D(29,31,33,36)       -163.7254                                         !
 ! D71   D(32,31,33,34)       -107.5208                                         !
 ! D72   D(32,31,33,35)        132.2095                                         !
 ! D73   D(32,31,33,36)         10.5257                                         !
 ! D74   D(31,33,36,37)        -43.605                                          !
 ! D75   D(31,33,36,38)        137.0468                                         !
 ! D76   D(34,33,36,37)         75.4045                                         !
 ! D77   D(34,33,36,38)       -103.9437                                         !
 ! D78   D(35,33,36,37)       -164.2751                                         !
 ! D79   D(35,33,36,38)         16.3766                                         !
 ! D80   D(33,36,38,39)        -22.9808                                         !
 ! D81   D(33,36,38,40)       -171.6321                                         !
 ! D82   D(37,36,38,39)        157.7093                                         !
 ! D83   D(37,36,38,40)          9.058                                          !
 ! D84   D(36,38,40,41)        -83.3195                                         !
 ! D85   D(36,38,40,42)         34.4628                                         !
 ! D86   D(36,38,40,43)        153.7397                                         !
 ! D87   D(39,38,40,41)        126.8384                                         !
 ! D88   D(39,38,40,42)       -115.3794                                         !
 ! D89   D(39,38,40,43)          3.8976                                         !
 ! D90   D(38,40,43,44)        -21.671                                          !
 ! D91   D(38,40,43,45)        159.7337                                         !
 ! D92   D(41,40,43,44)       -144.4071                                         !
 ! D93   D(41,40,43,45)         36.9976                                         !
 ! D94   D(42,40,43,44)         97.7055                                         !
 ! D95   D(42,40,43,45)        -80.8899                                         !
 ! D96   D(40,43,45,46)         -4.8416                                         !
 ! D97   D(40,43,45,47)        178.272                                          !
 ! D98   D(44,43,45,46)        176.58                                           !
 ! D99   D(44,43,45,47)         -0.3064                                         !
 ! D100  D(43,45,47,48)        -62.8165                                         !
 ! D101  D(43,45,47,49)         55.6157                                         !
 ! D102  D(43,45,47,50)        176.5061                                         !
 ! D103  D(46,45,47,48)        120.0562                                         !
 ! D104  D(46,45,47,49)       -121.5116                                         !
 ! D105  D(46,45,47,50)         -0.6212                                         !
 ! D106  D(45,47,50,51)          0.7364                                         !
 ! D107  D(45,47,50,52)       -179.3906                                         !
 ! D108  D(48,47,50,51)       -120.3852                                         !
 ! D109  D(48,47,50,52)         59.4878                                         !
 ! D110  D(49,47,50,51)        121.6462                                         !
 ! D111  D(49,47,50,52)        -58.4808                                         !
 ! D112  D(47,50,52,53)          0.4916                                         !
 ! D113  D(47,50,52,54)        179.9342                                         !
 ! D114  D(51,50,52,53)       -179.6382                                         !
 ! D115  D(51,50,52,54)         -0.1956                                         !
 ! D116  D(50,52,54,55)        -59.6127                                         !
 ! D117  D(50,52,54,56)         59.0197                                         !
 ! D118  D(50,52,54,57)        179.7092                                         !
 ! D119  D(53,52,54,55)        119.8615                                         !
 ! D120  D(53,52,54,56)       -121.5061                                         !
 ! D121  D(53,52,54,57)         -0.8166                                         !
 ! D122  D(52,54,57,58)          0.0894                                         !
 ! D123  D(52,54,57,59)       -179.933                                          !
 ! D124  D(55,54,57,58)       -121.8211                                         !
 ! D125  D(55,54,57,59)         58.1565                                         !
 ! D126  D(56,54,57,58)        121.9505                                         !
 ! D127  D(56,54,57,59)        -58.0719                                         !
 ! D128  D(54,57,59,60)       -179.8965                                         !
 ! D129  D(58,57,59,60)          0.0811                                         !
 --------------------------------------------------------------------------------
 Symmetry turned off by external request.
 Stoichiometry    C16H27N8O9(1+)
 Framework group  C1[X(C16H27N8O9)]
 Deg. of freedom   174
 Full point group                 C1      NOp   1
                          Input orientation:                          
 ---------------------------------------------------------------------
 Center     Atomic      Atomic             Coordinates (Angstroms)
 Number     Number       Type             X           Y           Z
 ---------------------------------------------------------------------
      1          7           0       -2.589347   -1.004960    0.928237
      2          1           0       -3.441447   -1.569291    0.925283
      3          1           0       -2.087310   -1.112692   -0.009562
      4          1           0       -1.950260   -1.304589    1.684906
      5          6           0       -2.845496    0.453107    1.136416
      6          1           0       -3.727827    0.586116    1.767276
      7          1           0       -2.999123    0.919275    0.160921
      8          6           0       -1.587861    1.009383    1.835817
      9          8           0       -0.793645    0.216612    2.345008
     10          7           0       -1.503047    2.351972    1.844975
     11          1           0       -2.093840    2.815436    1.158900
     12          6           0       -0.254407    3.066613    2.160357
     13          1           0       -0.493731    3.978603    2.716064
     14          1           0        0.399353    2.427768    2.757551
     15          6           0        0.382718    3.340531    0.794185
     16          8           0        1.139600    2.540810    0.260069
     17          7           0       -0.108138    4.423943    0.107199
     18          1           0       -0.838004    4.974845    0.539054
     19          6           0       -0.138698    4.314363   -1.343421
     20          1           0        0.880962    4.296743   -1.736716
     21          1           0       -0.653950    5.186472   -1.755326
     22          6           0       -0.902638    3.028078   -1.718857
     23          8           0       -1.861048    2.640462   -1.045710
     24          7           0       -0.454520    2.322351   -2.785132
     25          1           0        0.373591    2.627875   -3.278328
     26          6           0       -1.000166    0.994624   -3.038209
     27          1           0       -2.085331    1.043514   -3.138891
     28          1           0       -0.577017    0.611213   -3.970790
     29          6           0       -0.703612    0.016882   -1.885666
     30          8           0       -1.597604   -0.761531   -1.494724
     31          7           0        0.526051    0.060336   -1.378958
     32          1           0        1.203541    0.734332   -1.721560
     33          6           0        0.993539   -0.719081   -0.240813
     34          1           0        1.208663   -1.749924   -0.547267
     35          1           0        0.237006   -0.736048    0.542123
     36          6           0        2.294672   -0.061281    0.234986
     37          8           0        3.127743    0.294907   -0.591792
     38          7           0        2.435106    0.068242    1.573444
     39          1           0        1.602006    0.074779    2.157639
     40          6           0        3.550254    0.843153    2.086077
     41          1           0        4.459845    0.233351    2.133397
     42          1           0        3.755597    1.677150    1.401940
     43          6           0        3.188826    1.403211    3.460909
     44          8           0        2.014849    1.534216    3.823301
     45          7           0        4.233806    1.765696    4.224496
     46          1           0        5.200278    1.611723    3.947815
     47          6           0        4.070974    2.348048    5.537658
     48          1           0        3.543991    3.309466    5.478711
     49          1           0        3.467450    1.693360    6.179034
     50          6           0        5.471689    2.545102    6.132638
     51          8           0        6.482586    2.238951    5.504379
     52          7           0        5.501031    3.073179    7.374119
     53          1           0        4.655446    3.314592    7.879037
     54          6           0        6.750025    3.315412    8.064312
     55          1           0        7.322557    2.388876    8.194334
     56          1           0        7.393495    3.999799    7.498237
     57          6           0        6.446018    3.915142    9.422693
     58          8           0        5.329182    4.141953    9.836992
     59          8           0        7.574805    4.161198   10.105641
     60          1           0        7.319283    4.542500   10.967295
 ---------------------------------------------------------------------
 Rotational constants (GHZ):           0.2640828           0.0452762           0.0447016
 Standard basis: 6-31G(d) (6D, 7F)
   549 basis functions,  1032 primitive gaussians,   549 cartesian basis functions
   125 alpha electrons      125 beta electrons
       nuclear repulsion energy      3653.5801290330 Hartrees.
 NAtoms=   60 NActive=   60 NUniq=   60 SFac= 1.00D+00 NAtFMM=   60 NAOKFM=T Big=T
 Integral buffers will be    131072 words long.
 Raffenetti 2 integral format.
 Two-electron integral symmetry is turned off.
 Nuclear repulsion after empirical dispersion term =     3653.4986929605 Hartrees.
 One-electron integrals computed using PRISM.
 NBasis=   549 RedAO= T EigKep=  1.91D-03  NBF=   549
 NBsUse=   549 1.00D-06 EigRej= -1.00D+00 NBFU=   549
 Initial guess from the checkpoint file:  "conf-60.chk"
 B after Tr=     0.000000    0.000000    0.000000
         Rot=    1.000000    0.000000    0.000000    0.000000 Ang=   0.00 deg.
 Requested convergence on RMS density matrix=1.00D-08 within 128 cycles.
 Requested convergence on MAX density matrix=1.00D-06.
 Requested convergence on             energy=1.00D-06.
 No special actions if energy rises.
 SCF Done:  E(RB3LYP) =  -1740.99385057     A.U. after    3 cycles
            NFock=  3  Conv=0.83D-09     -V/T= 2.0092

 **********************************************************************

            Population analysis using the SCF Density.

 **********************************************************************

 Alpha  occ. eigenvalues --  -19.27515 -19.26348 -19.24799 -19.24760 -19.23575
 Alpha  occ. eigenvalues --  -19.22213 -19.20309 -19.20085 -19.19843 -14.57135
 Alpha  occ. eigenvalues --  -14.49568 -14.49317 -14.48075 -14.47984 -14.44329
 Alpha  occ. eigenvalues --  -14.44184 -14.44121 -10.43344 -10.41675 -10.41487
 Alpha  occ. eigenvalues --  -10.40481 -10.40394 -10.38540 -10.37533 -10.37508
 Alpha  occ. eigenvalues --  -10.37159 -10.35164 -10.35051 -10.33815 -10.33010
 Alpha  occ. eigenvalues --  -10.31315 -10.31255 -10.30817  -1.18640  -1.18355
 Alpha  occ. eigenvalues --   -1.17017  -1.15932  -1.15203  -1.12611  -1.12105
 Alpha  occ. eigenvalues --   -1.11742  -1.11504  -1.09830  -1.06204  -1.05545
 Alpha  occ. eigenvalues --   -1.03974  -1.03679  -1.00887  -1.00594  -1.00438
 Alpha  occ. eigenvalues --   -0.89349  -0.88069  -0.85665  -0.84800  -0.83357
 Alpha  occ. eigenvalues --   -0.81745  -0.80354  -0.77492  -0.73000  -0.72443
 Alpha  occ. eigenvalues --   -0.71672  -0.71140  -0.70413  -0.70186  -0.69983
 Alpha  occ. eigenvalues --   -0.67972  -0.67026  -0.66533  -0.66171  -0.65306
 Alpha  occ. eigenvalues --   -0.64128  -0.62511  -0.62074  -0.61293  -0.60827
 Alpha  occ. eigenvalues --   -0.59975  -0.58827  -0.58441  -0.57917  -0.57266
 Alpha  occ. eigenvalues --   -0.56981  -0.56828  -0.56749  -0.56076  -0.55693
 Alpha  occ. eigenvalues --   -0.55353  -0.55029  -0.54986  -0.53949  -0.53506
 Alpha  occ. eigenvalues --   -0.53481  -0.53211  -0.52967  -0.52429  -0.52209
 Alpha  occ. eigenvalues --   -0.51621  -0.50638  -0.50246  -0.49625  -0.49355
 Alpha  occ. eigenvalues --   -0.48883  -0.48142  -0.47758  -0.47502  -0.46831
 Alpha  occ. eigenvalues --   -0.46562  -0.46435  -0.44353  -0.43151  -0.41261
 Alpha  occ. eigenvalues --   -0.40759  -0.40446  -0.39790  -0.39377  -0.38373
 Alpha  occ. eigenvalues --   -0.37599  -0.37159  -0.36303  -0.36094  -0.35025
 Alpha  occ. eigenvalues --   -0.34774  -0.34313  -0.33754  -0.33484  -0.33069
 Alpha virt. eigenvalues --   -0.13212  -0.11311  -0.09945  -0.09156  -0.07923
 Alpha virt. eigenvalues --   -0.06853  -0.06352  -0.06114  -0.04965  -0.04589
 Alpha virt. eigenvalues --   -0.03754  -0.02428  -0.00756   0.00060   0.00555
 Alpha virt. eigenvalues --    0.01688   0.01781   0.02296   0.02505   0.02986
 Alpha virt. eigenvalues --    0.03216   0.03565   0.03849   0.04390   0.04734
 Alpha virt. eigenvalues --    0.04810   0.05475   0.05966   0.06557   0.07126
 Alpha virt. eigenvalues --    0.07168   0.08044   0.08851   0.09009   0.09387
 Alpha virt. eigenvalues --    0.09613   0.10573   0.10831   0.11146   0.11742
 Alpha virt. eigenvalues --    0.12668   0.12730   0.12883   0.13285   0.13495
 Alpha virt. eigenvalues --    0.14917   0.15055   0.15248   0.16812   0.18465
 Alpha virt. eigenvalues --    0.19306   0.20387   0.21443   0.21953   0.22797
 Alpha virt. eigenvalues --    0.24842   0.25123   0.25869   0.26535   0.28013
 Alpha virt. eigenvalues --    0.28392   0.28648   0.28882   0.29711   0.31283
 Alpha virt. eigenvalues --    0.32816   0.35084   0.37941   0.38035   0.39437
 Alpha virt. eigenvalues --    0.40213   0.40585   0.41251   0.42192   0.42368
 Alpha virt. eigenvalues --    0.43451   0.43721   0.44071   0.44358   0.45289
 Alpha virt. eigenvalues --    0.46165   0.46350   0.46713   0.47174   0.47589
 Alpha virt. eigenvalues --    0.47831   0.47918   0.48251   0.49091   0.49387
 Alpha virt. eigenvalues --    0.49959   0.50358   0.51228   0.51793   0.52236
 Alpha virt. eigenvalues --    0.52817   0.53024   0.53539   0.55017   0.55382
 Alpha virt. eigenvalues --    0.55674   0.56965   0.57155   0.57528   0.58314
 Alpha virt. eigenvalues --    0.58715   0.59346   0.60029   0.60342   0.61282
 Alpha virt. eigenvalues --    0.61487   0.62532   0.63322   0.63476   0.65015
 Alpha virt. eigenvalues --    0.65226   0.65388   0.66730   0.67028   0.67730
 Alpha virt. eigenvalues --    0.68021   0.68373   0.69501   0.69733   0.70421
 Alpha virt. eigenvalues --    0.70641   0.71298   0.71823   0.71913   0.72912
 Alpha virt. eigenvalues --    0.73284   0.73923   0.74253   0.74543   0.75009
 Alpha virt. eigenvalues --    0.75153   0.75228   0.75635   0.76117   0.76579
 Alpha virt. eigenvalues --    0.76939   0.77372   0.77439   0.78187   0.78589
 Alpha virt. eigenvalues --    0.79023   0.79531   0.79959   0.80506   0.80936
 Alpha virt. eigenvalues --    0.81711   0.82614   0.82757   0.83150   0.83478
 Alpha virt. eigenvalues --    0.84275   0.84427   0.84521   0.85362   0.85862
 Alpha virt. eigenvalues --    0.86247   0.87158   0.88231   0.89033   0.90135
 Alpha virt. eigenvalues --    0.90515   0.92274   0.93329   0.94020   0.94448
 Alpha virt. eigenvalues --    0.95523   0.96616   0.97163   0.97557   0.98324
 Alpha virt. eigenvalues --    0.99069   0.99356   1.00266   1.00452   1.01798
 Alpha virt. eigenvalues --    1.02653   1.03718   1.04221   1.05437   1.06405
 Alpha virt. eigenvalues --    1.07727   1.08538   1.09330   1.09749   1.10466
 Alpha virt. eigenvalues --    1.11745   1.12763   1.14226   1.14717   1.16282
 Alpha virt. eigenvalues --    1.16866   1.17736   1.19028   1.19639   1.20959
 Alpha virt. eigenvalues --    1.22201   1.22286   1.22701   1.22942   1.23708
 Alpha virt. eigenvalues --    1.24474   1.25030   1.26854   1.27330   1.27614
 Alpha virt. eigenvalues --    1.30534   1.31813   1.32054   1.32883   1.33577
 Alpha virt. eigenvalues --    1.34407   1.34737   1.36086   1.36461   1.36750
 Alpha virt. eigenvalues --    1.37883   1.40056   1.40421   1.41900   1.43093
 Alpha virt. eigenvalues --    1.44170   1.45616   1.46201   1.46596   1.49315
 Alpha virt. eigenvalues --    1.51077   1.51365   1.52165   1.53571   1.54789
 Alpha virt. eigenvalues --    1.55501   1.57440   1.60742   1.60900   1.61624
 Alpha virt. eigenvalues --    1.61870   1.62809   1.63745   1.64562   1.65362
 Alpha virt. eigenvalues --    1.65525   1.65990   1.67127   1.67223   1.67404
 Alpha virt. eigenvalues --    1.67860   1.68339   1.68853   1.69250   1.69432
 Alpha virt. eigenvalues --    1.69983   1.70835   1.70957   1.72435   1.72632
 Alpha virt. eigenvalues --    1.72977   1.74046   1.74545   1.75353   1.75640
 Alpha virt. eigenvalues --    1.76700   1.77199   1.77591   1.78035   1.79191
 Alpha virt. eigenvalues --    1.79922   1.80478   1.80659   1.81860   1.82149
 Alpha virt. eigenvalues --    1.82229   1.82530   1.83022   1.83846   1.84621
 Alpha virt. eigenvalues --    1.85372   1.85633   1.86505   1.86837   1.87621
 Alpha virt. eigenvalues --    1.88034   1.89221   1.89835   1.90585   1.91220
 Alpha virt. eigenvalues --    1.91774   1.92548   1.92866   1.93671   1.94088
 Alpha virt. eigenvalues --    1.94587   1.96350   1.96537   1.98680   1.98931
 Alpha virt. eigenvalues --    1.99899   2.00671   2.00843   2.01471   2.02513
 Alpha virt. eigenvalues --    2.02606   2.02855   2.03986   2.05782   2.06218
 Alpha virt. eigenvalues --    2.07729   2.09404   2.11786   2.12841   2.15085
 Alpha virt. eigenvalues --    2.16716   2.17997   2.18678   2.19183   2.21156
 Alpha virt. eigenvalues --    2.21537   2.22369   2.22977   2.23203   2.24640
 Alpha virt. eigenvalues --    2.24738   2.25440   2.26040   2.28582   2.29194
 Alpha virt. eigenvalues --    2.29903   2.30886   2.31026   2.31933   2.32725
 Alpha virt. eigenvalues --    2.33666   2.34656   2.35645   2.35830   2.37064
 Alpha virt. eigenvalues --    2.39101   2.40343   2.40906   2.42339   2.43173
 Alpha virt. eigenvalues --    2.43961   2.44811   2.46788   2.48289   2.50702
 Alpha virt. eigenvalues --    2.51824   2.52320   2.53629   2.54393   2.55135
 Alpha virt. eigenvalues --    2.55910   2.56698   2.57982   2.59970   2.61316
 Alpha virt. eigenvalues --    2.61938   2.64026   2.64541   2.66170   2.67001
 Alpha virt. eigenvalues --    2.68650   2.71418   2.73470   2.75683   2.76687
 Alpha virt. eigenvalues --    2.78864   2.79547   2.81244   2.83186   2.85886
 Alpha virt. eigenvalues --    2.87748   2.87812   2.88250   2.90768   2.91090
 Alpha virt. eigenvalues --    2.91185   2.94340   2.95486   2.98994   3.00848
 Alpha virt. eigenvalues --    3.02033   3.02962   3.05064   3.08950   3.11300
 Alpha virt. eigenvalues --    3.14359   3.71146   3.77356   3.81132   3.86090
 Alpha virt. eigenvalues --    3.87284   3.90265   3.92225   3.92869   3.94927
 Alpha virt. eigenvalues --    3.96560   3.97862   4.00776   4.04576   4.05508
 Alpha virt. eigenvalues --    4.07195   4.09871   4.12950   4.15501   4.16027
 Alpha virt. eigenvalues --    4.19191   4.21115   4.22557   4.23511   4.25334
 Alpha virt. eigenvalues --    4.31607   4.37188   4.39044   4.40216   4.42582
 Alpha virt. eigenvalues --    4.45306   4.48827   4.49421   4.54852
          Condensed to atoms (all electrons):
 Mulliken charges:
               1
     1  N   -0.765920
     2  H    0.406301
     3  H    0.456972
     4  H    0.410872
     5  C   -0.297762
     6  H    0.232872
     7  H    0.261141
     8  C    0.632972
     9  O   -0.509105
    10  N   -0.573325
    11  H    0.359913
    12  C   -0.284246
    13  H    0.182288
    14  H    0.280138
    15  C    0.590478
    16  O   -0.500373
    17  N   -0.553739
    18  H    0.341771
    19  C   -0.242794
    20  H    0.202243
    21  H    0.206918
    22  C    0.636083
    23  O   -0.550936
    24  N   -0.592734
    25  H    0.356568
    26  C   -0.225409
    27  H    0.215575
    28  H    0.207707
    29  C    0.627447
    30  O   -0.595583
    31  N   -0.554054
    32  H    0.366479
    33  C   -0.204687
    34  H    0.202998
    35  H    0.157909
    36  C    0.615805
    37  O   -0.523227
    38  N   -0.615973
    39  H    0.376014
    40  C   -0.197893
    41  H    0.185565
    42  H    0.212049
    43  C    0.598305
    44  O   -0.541009
    45  N   -0.611436
    46  H    0.366636
    47  C   -0.194251
    48  H    0.187500
    49  H    0.197166
    50  C    0.609930
    51  O   -0.521102
    52  N   -0.625180
    53  H    0.358473
    54  C   -0.177895
    55  H    0.214898
    56  H    0.214315
    57  C    0.568972
    58  O   -0.458124
    59  O   -0.552660
    60  H    0.428143
 Sum of Mulliken charges =   1.00000
 Mulliken charges with hydrogens summed into heavy atoms:
               1
     1  N    0.508225
     5  C    0.196251
     8  C    0.632972
     9  O   -0.509105
    10  N   -0.213412
    12  C    0.178180
    15  C    0.590478
    16  O   -0.500373
    17  N   -0.211969
    19  C    0.166368
    22  C    0.636083
    23  O   -0.550936
    24  N   -0.236165
    26  C    0.197873
    29  C    0.627447
    30  O   -0.595583
    31  N   -0.187575
    33  C    0.156220
    36  C    0.615805
    37  O   -0.523227
    38  N   -0.239959
    40  C    0.199721
    43  C    0.598305
    44  O   -0.541009
    45  N   -0.244800
    47  C    0.190416
    50  C    0.609930
    51  O   -0.521102
    52  N   -0.266706
    54  C    0.251318
    57  C    0.568972
    58  O   -0.458124
    59  O   -0.124517
 Electronic spatial extent (au):  <R**2>=          33256.6209
 Charge=              1.0000 electrons
 Dipole moment (field-independent basis, Debye):
    X=             -3.7791    Y=              8.7795    Z=              6.5871  Tot=             11.6083
 Quadrupole moment (field-independent basis, Debye-Ang):
   XX=           -138.6501   YY=           -130.0123   ZZ=            -94.2176
   XY=             21.9788   XZ=             43.4768   YZ=             20.2829
 Traceless Quadrupole moment (field-independent basis, Debye-Ang):
   XX=            -17.6901   YY=             -9.0523   ZZ=             26.7424
   XY=             21.9788   XZ=             43.4768   YZ=             20.2829
 Octapole moment (field-independent basis, Debye-Ang**2):
  XXX=           -868.8815  YYY=           -780.2556  ZZZ=           -549.5716  XYY=           -244.0814
  XXY=           -212.5675  XXZ=              0.2911  XZZ=            256.4219  YZZ=             17.1063
  YYZ=           -281.8766  XYZ=            231.8168
 Hexadecapole moment (field-independent basis, Debye-Ang**3):
 XXXX=         -12512.7113 YYYY=          -5660.3931 ZZZZ=         -12276.0992 XXXY=          -1767.4066
 XXXZ=          -4918.1843 YYYX=          -2421.1368 YYYZ=          -3196.0682 ZZZX=           -886.2553
 ZZZY=           -573.9871 XXYY=          -2574.1837 XXZZ=          -1587.6269 YYZZ=          -3026.8797
 XXYZ=            407.8293 YYXZ=          -1340.0268 ZZXY=           1614.7355
 N-N= 3.653498692961D+03 E-N=-1.135018624648D+04  KE= 1.725204176904D+03
 Unable to Open any file for archive entry.
 1\1\GINC-VIM-002\SP\RB3LYP\6-31G(d)\C16H27N8O9(1+)\KENGMITH\18-Jul-202
 2\0\\# B3LYP/6-31G* empiricaldispersion=gd3 guess=read geom=check nosy
 mm integral(ultrafinegrid)\\Candidate Structure: Conf:60 Charge calc i
 n gas phase\\1,1\N,0,-2.5893473515,-1.0049601263,0.9282374245\H,0,-3.4
 414469404,-1.5692912206,0.9252830949\H,0,-2.0873103345,-1.1126915651,-
 0.0095621431\H,0,-1.9502604509,-1.3045888418,1.6849063657\C,0,-2.84549
 57728,0.4531074444,1.1364158567\H,0,-3.727827492,0.5861161579,1.767275
 8706\H,0,-2.9991229067,0.9192754963,0.1609214256\C,0,-1.5878609062,1.0
 093831354,1.8358168351\O,0,-0.7936451558,0.2166122277,2.3450084238\N,0
 ,-1.5030474848,2.3519721981,1.8449751925\H,0,-2.0938404159,2.815435987
 9,1.158900139\C,0,-0.2544069886,3.0666126089,2.1603565007\H,0,-0.49373
 05528,3.9786027673,2.7160639819\H,0,0.3993529185,2.4277676349,2.757551
 1055\C,0,0.3827181462,3.3405305947,0.7941854609\O,0,1.1395999685,2.540
 8101278,0.2600691339\N,0,-0.1081378054,4.4239430371,0.1071993198\H,0,-
 0.8380035327,4.9748446252,0.5390542333\C,0,-0.1386982285,4.3143629097,
 -1.3434210407\H,0,0.8809616416,4.2967428788,-1.7367157825\H,0,-0.65395
 01146,5.1864717728,-1.755325829\C,0,-0.9026376741,3.0280776853,-1.7188
 571899\O,0,-1.8610475875,2.6404623741,-1.0457098235\N,0,-0.4545204227,
 2.3223510285,-2.7851318367\H,0,0.373590761,2.6278745182,-3.2783280197\
 C,0,-1.0001656076,0.9946237385,-3.0382091257\H,0,-2.0853308308,1.04351
 44775,-3.1388912048\H,0,-0.5770168809,0.6112134401,-3.9707904409\C,0,-
 0.7036115113,0.0168817586,-1.8856660993\O,0,-1.5976040917,-0.761531411
 8,-1.4947238561\N,0,0.5260510144,0.0603357086,-1.3789581199\H,0,1.2035
 406183,0.7343318061,-1.721560107\C,0,0.9935392641,-0.7190809709,-0.240
 812667\H,0,1.2086631427,-1.7499237489,-0.5472668315\H,0,0.2370056929,-
 0.7360479374,0.542122546\C,0,2.294671924,-0.0612805311,0.2349864076\O,
 0,3.1277429234,0.2949071612,-0.5917918619\N,0,2.435105959,0.0682416201
 ,1.573443962\H,0,1.6020062936,0.074778547,2.1576394737\C,0,3.550254497
 5,0.8431531443,2.0860770348\H,0,4.4598453543,0.2333509578,2.1333965109
 \H,0,3.7555966048,1.6771498006,1.4019404432\C,0,3.1888261212,1.4032108
 997,3.4609086974\O,0,2.014848746,1.5342156303,3.8233005302\N,0,4.23380
 58374,1.7656963003,4.224496181\H,0,5.2002777517,1.6117229337,3.9478148
 787\C,0,4.070973604,2.3480482002,5.5376582943\H,0,3.5439909513,3.30946
 60113,5.4787114327\H,0,3.4674500014,1.6933602126,6.1790343427\C,0,5.47
 16892911,2.5451023052,6.132638023\O,0,6.4825862285,2.2389510514,5.5043
 793189\N,0,5.5010313332,3.0731791887,7.3741190105\H,0,4.6554460461,3.3
 145920407,7.8790371255\C,0,6.7500248968,3.3154121669,8.0643115238\H,0,
 7.3225566706,2.3888755256,8.1943337981\H,0,7.3934952276,3.9997992008,7
 .4982370665\C,0,6.4460177206,3.9151420079,9.4226926698\O,0,5.329182290
 2,4.1419533522,9.8369920337\O,0,7.5748049507,4.1611980922,10.105640692
 2\H,0,7.3192827477,4.5424998533,10.9672946277\\Version=ES64L-G16RevC.0
 1\HF=-1740.9938506\RMSD=8.279e-10\Dipole=-4.6036631,0.0440423,-1.63155
 43\Quadrupole=-13.152142,-6.7301863,19.8823283,16.34068,32.3239074,15.
 0798584\PG=C01 [X(C16H27N8O9)]\\@
 The archive entry for this job was punched.


 FROM WHENCE IT HAPPENS, THAT THEY WHICH TRUST TO BOOKS, DO AS THEY THAT CAST UP MANY LITTLE SUMMS INTO GREATER,
 WITHOUT CONSIDERING WETHER THOSE LITTLE SUMMES WERE RIGHTLY CAST UP OR NOT...
 AND AT LAST FINDING THE ERROUR VISIBLE, AND NOT MISTRUSTING THEIR FIRST GROUNDS,
 KNOW NOT WHICH WAY TO CLEERE THEMSELVES...
 BUT SPEND TIME IN FLUTTERING OVER THEIR BOOKES....
 AS BIRDS THAT ENTERING BY THE CHIMNEY, AND FINDING THEMSELVES INCLOSED IN A CHAMBER,
 FLUTTER AT THE FALSE LIGHT OF A GLASSE WINDOW,
 FOR WANT OF WIT TO CONSIDER WHICH WAY THEY CAME IN....
           LEVIATHAN
 Job cpu time:       0 days  0 hours  2 minutes 59.9 seconds.
 Elapsed time:       0 days  0 hours  0 minutes 45.5 seconds.
 File lengths (MBytes):  RWF=    272 Int=      0 D2E=      0 Chk=     40 Scr=     16
 Normal termination of Gaussian 16 at Mon Jul 18 21:33:34 2022.
