 Entering Gaussian System, Link 0=/opt/software/Gaussian/g16-AVX2-C.01/g16/g16
 Input=charge-conf-771.com
 Output=charge-conf-771.log
 Initial command:
 /opt/software/Gaussian/g16-AVX2-C.01/g16/l1.exe "/mnt/gs18/scratch/users/kengmith/Gau-29597.inp" -scrdir="/mnt/gs18/scratch/users/kengmith/"
 Entering Link 1 = /opt/software/Gaussian/g16-AVX2-C.01/g16/l1.exe PID=     29726.
  
 Copyright (c) 1988-2019, Gaussian, Inc.  All Rights Reserved.
  
 This is part of the Gaussian(R) 16 program.  It is based on
 the Gaussian(R) 09 system (copyright 2009, Gaussian, Inc.),
 the Gaussian(R) 03 system (copyright 2003, Gaussian, Inc.),
 the Gaussian(R) 98 system (copyright 1998, Gaussian, Inc.),
 the Gaussian(R) 94 system (copyright 1995, Gaussian, Inc.),
 the Gaussian 92(TM) system (copyright 1992, Gaussian, Inc.),
 the Gaussian 90(TM) system (copyright 1990, Gaussian, Inc.),
 the Gaussian 88(TM) system (copyright 1988, Gaussian, Inc.),
 the Gaussian 86(TM) system (copyright 1986, Carnegie Mellon
 University), and the Gaussian 82(TM) system (copyright 1983,
 Carnegie Mellon University). Gaussian is a federally registered
 trademark of Gaussian, Inc.
  
 This software contains proprietary and confidential information,
 including trade secrets, belonging to Gaussian, Inc.
  
 This software is provided under written license and may be
 used, copied, transmitted, or stored only in accord with that
 written license.
  
 The following legend is applicable only to US Government
 contracts under FAR:
  
                    RESTRICTED RIGHTS LEGEND
  
 Use, reproduction and disclosure by the US Government is
 subject to restrictions as set forth in subparagraphs (a)
 and (c) of the Commercial Computer Software - Restricted
 Rights clause in FAR 52.227-19.
  
 Gaussian, Inc.
 340 Quinnipiac St., Bldg. 40, Wallingford CT 06492
  
  
 ---------------------------------------------------------------
 Warning -- This program may not be used in any manner that
 competes with the business of Gaussian, Inc. or will provide
 assistance to any competitor of Gaussian, Inc.  The licensee
 of this program is prohibited from giving any competitor of
 Gaussian, Inc. access to this program.  By using this program,
 the user acknowledges that Gaussian, Inc. is engaged in the
 business of creating and licensing software in the field of
 computational chemistry and represents and warrants to the
 licensee that it is not a competitor of Gaussian, Inc. and that
 it will not use this program in any manner prohibited above.
 ---------------------------------------------------------------
  

 Cite this work as:
 Gaussian 16, Revision C.01,
 M. J. Frisch, G. W. Trucks, H. B. Schlegel, G. E. Scuseria, 
 M. A. Robb, J. R. Cheeseman, G. Scalmani, V. Barone, 
 G. A. Petersson, H. Nakatsuji, X. Li, M. Caricato, A. V. Marenich, 
 J. Bloino, B. G. Janesko, R. Gomperts, B. Mennucci, H. P. Hratchian, 
 J. V. Ortiz, A. F. Izmaylov, J. L. Sonnenberg, D. Williams-Young, 
 F. Ding, F. Lipparini, F. Egidi, J. Goings, B. Peng, A. Petrone, 
 T. Henderson, D. Ranasinghe, V. G. Zakrzewski, J. Gao, N. Rega, 
 G. Zheng, W. Liang, M. Hada, M. Ehara, K. Toyota, R. Fukuda, 
 J. Hasegawa, M. Ishida, T. Nakajima, Y. Honda, O. Kitao, H. Nakai, 
 T. Vreven, K. Throssell, J. A. Montgomery, Jr., J. E. Peralta, 
 F. Ogliaro, M. J. Bearpark, J. J. Heyd, E. N. Brothers, K. N. Kudin, 
 V. N. Staroverov, T. A. Keith, R. Kobayashi, J. Normand, 
 K. Raghavachari, A. P. Rendell, J. C. Burant, S. S. Iyengar, 
 J. Tomasi, M. Cossi, J. M. Millam, M. Klene, C. Adamo, R. Cammi, 
 J. W. Ochterski, R. L. Martin, K. Morokuma, O. Farkas, 
 J. B. Foresman, and D. J. Fox, Gaussian, Inc., Wallingford CT, 2019.
 
 ******************************************
 Gaussian 16:  ES64L-G16RevC.01  3-Jul-2019
                18-Jul-2022 
 ******************************************
 %mem=8gb
 %nproc=4
 Will use up to    4 processors via shared memory.
 %chk=conf-771.chk
 ----------------------------------------------------------------------
 # B3LYP/6-31G* empiricaldispersion=gd3 guess=read geom=check nosymm in
 tegral(ultrafinegrid)
 ----------------------------------------------------------------------
 1/29=2,38=1,172=1/1;
 2/12=2,15=1,40=1/2;
 3/5=1,6=6,7=1,11=2,14=-4,25=1,30=1,74=-5,75=-5,116=-2,124=31/1,2,3;
 4/5=1/1;
 5/5=2,38=6/2;
 6/7=2,8=2,9=2,10=2,28=1/1;
 99/5=1,9=1/99;
 ------------------------------------------------------
 Candidate Structure: Conf:771 Charge calc in gas phase
 ------------------------------------------------------
 Structure from the checkpoint file:  "conf-771.chk"
 Charge =  1 Multiplicity = 1
 Redundant internal coordinates found in file.  (old form).
 N,0,3.1542570184,2.8824437466,4.3134028472
 H,0,3.5356821056,2.6524207782,5.2474280248
 H,0,2.6626266713,2.0296902341,3.9518273292
 H,0,4.0013034594,3.0131369869,3.7152833226
 C,0,2.2975452214,4.1028799416,4.2758136178
 H,0,2.888277505,4.9418577725,4.6524246487
 H,0,1.4289128413,3.9475097455,4.9151410966
 C,0,1.7825454868,4.3824222761,2.8536314269
 O,0,0.5815503603,4.2681788834,2.5991052358
 N,0,2.6960902117,4.795686149,1.9453456176
 H,0,3.68558744,4.5915230764,2.0851562491
 C,0,2.2595802454,5.1372209421,0.5960473026
 H,0,1.4734565704,5.8947906471,0.6588938029
 H,0,3.1126537415,5.5634172043,0.0633895985
 C,0,1.7977922995,3.8844723997,-0.153235307
 O,0,2.5563935971,2.9237857436,-0.2936282494
 N,0,0.5208446756,3.8680394844,-0.5987629934
 H,0,-0.0973150935,4.6288717942,-0.3516462502
 C,0,-0.0361137335,2.6445162363,-1.1599510007
 H,0,0.5300864482,2.3363566141,-2.0413628217
 H,0,-1.0688795298,2.8335941224,-1.4642371451
 C,0,0.0048339871,1.4592378765,-0.1845918703
 O,0,0.0502659027,0.3046366128,-0.6080596541
 N,0,-0.0150768145,1.7643728944,1.1368401793
 H,0,0.028255445,2.7295783859,1.4510224004
 C,0,0.1345717676,0.7287853354,2.1458641291
 H,0,-0.1359125845,1.1471381387,3.1159391012
 H,0,-0.5371623591,-0.1038995326,1.9145755138
 C,0,1.5805626347,0.2192823689,2.2387576491
 O,0,2.3394089075,0.5346259218,3.1754372783
 N,0,1.9839833622,-0.5830065983,1.2389505391
 H,0,1.3345624572,-0.7121320754,0.4613724017
 C,0,3.2918957676,-1.2197251651,1.2340548597
 H,0,3.3298698202,-1.9108201599,0.3874188432
 H,0,3.4381351401,-1.8048938391,2.1459732535
 C,0,4.5051059846,-0.2907170543,1.1410090557
 O,0,5.6087551336,-0.7091284392,1.513905316
 N,0,4.3182918896,0.9458147369,0.6372112617
 H,0,3.4029158517,1.2784993798,0.3494156418
 C,0,5.4089359055,1.9119330562,0.5612069768
 H,0,6.2791629984,1.4616328988,0.0746552572
 H,0,5.0548830461,2.7630058392,-0.0178374493
 C,0,5.7383931873,2.3744423217,1.9821251318
 O,0,5.1583058476,3.3501841426,2.5083743176
 N,0,6.6157979475,1.6096902033,2.6488165354
 H,0,6.8613042007,0.734067885,2.1910101484
 C,0,6.8090494023,1.7248950287,4.0886646443
 H,0,7.7591144407,1.2501455601,4.3498860346
 H,0,6.8552761661,2.7782868607,4.3642960056
 C,0,5.6661469567,1.0927034713,4.9091463572
 O,0,5.1324711974,1.7315134581,5.8263909651
 N,0,5.2989339785,-0.1615033742,4.583170699
 H,0,5.6412581926,-0.6106542612,3.7376569689
 C,0,4.2523250173,-0.839594106,5.3377784246
 H,0,4.3666789105,-0.6170946024,6.4002361146
 H,0,3.2619358797,-0.4842883877,5.026670625
 C,0,4.2474846448,-2.3463063958,5.1670071075
 O,0,3.6984350746,-3.1004458021,5.9287748682
 O,0,4.8728089604,-2.740211147,4.0281987018
 H,0,4.8266006698,-3.7152829252,3.9942970639
 Recover connectivity data from disk.
                           ----------------------------
                           !    Current Parameters    !
                           ! (Angstroms and Degrees)  !
 --------------------------                            --------------------------
 ! Name  Definition              Value                                          !
 --------------------------------------------------------------------------------
 ! R1    R(1,2)                  1.0348                                         !
 ! R2    R(1,3)                  1.0486                                         !
 ! R3    R(1,4)                  1.0451                                         !
 ! R4    R(1,5)                  1.4916                                         !
 ! R5    R(5,6)                  1.093                                          !
 ! R6    R(5,7)                  1.0897                                         !
 ! R7    R(5,8)                  1.5382                                         !
 ! R8    R(8,9)                  1.233                                          !
 ! R9    R(8,10)                 1.3529                                         !
 ! R10   R(10,11)                1.02                                           !
 ! R11   R(10,12)                1.4587                                         !
 ! R12   R(12,13)                1.0936                                         !
 ! R13   R(12,14)                1.0923                                         !
 ! R14   R(12,15)                1.531                                          !
 ! R15   R(15,16)                1.2321                                         !
 ! R16   R(15,17)                1.3525                                         !
 ! R17   R(17,18)                1.011                                          !
 ! R18   R(17,19)                1.4568                                         !
 ! R19   R(19,20)                1.092                                          !
 ! R20   R(19,21)                1.0931                                         !
 ! R21   R(19,22)                1.5355                                         !
 ! R22   R(22,23)                1.2306                                         !
 ! R23   R(22,24)                1.3564                                         !
 ! R24   R(24,25)                1.016                                          !
 ! R25   R(24,26)                1.4536                                         !
 ! R26   R(26,27)                1.0905                                         !
 ! R27   R(26,28)                1.0946                                         !
 ! R28   R(26,29)                1.5359                                         !
 ! R29   R(29,30)                1.2461                                         !
 ! R30   R(29,31)                1.3439                                         !
 ! R31   R(31,32)                1.0213                                         !
 ! R32   R(31,33)                1.4547                                         !
 ! R33   R(33,34)                1.0935                                         !
 ! R34   R(33,35)                1.0933                                         !
 ! R35   R(33,36)                1.5309                                         !
 ! R36   R(36,37)                1.2378                                         !
 ! R37   R(36,38)                1.3482                                         !
 ! R38   R(38,39)                1.0156                                         !
 ! R39   R(38,40)                1.459                                          !
 ! R40   R(40,41)                1.094                                          !
 ! R41   R(40,42)                1.0886                                         !
 ! R42   R(40,43)                1.5302                                         !
 ! R43   R(43,44)                1.2512                                         !
 ! R44   R(43,45)                1.3413                                         !
 ! R45   R(45,46)                1.0181                                         !
 ! R46   R(45,47)                1.4573                                         !
 ! R47   R(47,48)                1.0937                                         !
 ! R48   R(47,49)                1.0898                                         !
 ! R49   R(47,50)                1.5424                                         !
 ! R50   R(50,51)                1.2386                                         !
 ! R51   R(50,52)                1.3469                                         !
 ! R52   R(52,53)                1.0168                                         !
 ! R53   R(52,54)                1.4576                                         !
 ! R54   R(54,55)                1.0915                                         !
 ! R55   R(54,56)                1.0972                                         !
 ! R56   R(54,57)                1.5164                                         !
 ! R57   R(57,58)                1.2044                                         !
 ! R58   R(57,59)                1.3576                                         !
 ! R59   R(59,60)                0.9768                                         !
 ! A1    A(2,1,3)              107.6544                                         !
 ! A2    A(2,1,4)              104.2183                                         !
 ! A3    A(2,1,5)              114.6035                                         !
 ! A4    A(3,1,4)              106.5189                                         !
 ! A5    A(3,1,5)              112.7933                                         !
 ! A6    A(4,1,5)              110.4116                                         !
 ! A7    A(1,5,6)              107.9954                                         !
 ! A8    A(1,5,7)              109.0505                                         !
 ! A9    A(1,5,8)              111.3648                                         !
 ! A10   A(6,5,7)              109.7619                                         !
 ! A11   A(6,5,8)              111.1023                                         !
 ! A12   A(7,5,8)              107.547                                          !
 ! A13   A(5,8,9)              120.0103                                         !
 ! A14   A(5,8,10)             116.7545                                         !
 ! A15   A(9,8,10)             123.1922                                         !
 ! A16   A(8,10,11)            120.1263                                         !
 ! A17   A(8,10,12)            119.3713                                         !
 ! A18   A(11,10,12)           117.6434                                         !
 ! A19   A(10,12,13)           108.9148                                         !
 ! A20   A(10,12,14)           107.9825                                         !
 ! A21   A(10,12,15)           110.5713                                         !
 ! A22   A(13,12,14)           108.6119                                         !
 ! A23   A(13,12,15)           112.2188                                         !
 ! A24   A(14,12,15)           108.4316                                         !
 ! A25   A(12,15,16)           120.5338                                         !
 ! A26   A(12,15,17)           117.1236                                         !
 ! A27   A(16,15,17)           122.2947                                         !
 ! A28   A(15,17,18)           119.1843                                         !
 ! A29   A(15,17,19)           119.8717                                         !
 ! A30   A(18,17,19)           119.5034                                         !
 ! A31   A(17,19,20)           110.4705                                         !
 ! A32   A(17,19,21)           108.8548                                         !
 ! A33   A(17,19,22)           113.1676                                         !
 ! A34   A(20,19,21)           108.3004                                         !
 ! A35   A(20,19,22)           106.3226                                         !
 ! A36   A(21,19,22)           109.6041                                         !
 ! A37   A(19,22,23)           120.4385                                         !
 ! A38   A(19,22,24)           116.4101                                         !
 ! A39   A(23,22,24)           123.1512                                         !
 ! A40   A(22,24,25)           120.956                                          !
 ! A41   A(22,24,26)           120.9639                                         !
 ! A42   A(25,24,26)           117.2435                                         !
 ! A43   A(24,26,27)           108.581                                          !
 ! A44   A(24,26,28)           109.3972                                         !
 ! A45   A(24,26,29)           112.0385                                         !
 ! A46   A(27,26,28)           109.1227                                         !
 ! A47   A(27,26,29)           107.8764                                         !
 ! A48   A(28,26,29)           109.7662                                         !
 ! A49   A(26,29,30)           122.3336                                         !
 ! A50   A(26,29,31)           115.8266                                         !
 ! A51   A(30,29,31)           121.838                                          !
 ! A52   A(29,31,32)           116.8094                                         !
 ! A53   A(29,31,33)           122.2568                                         !
 ! A54   A(32,31,33)           120.9188                                         !
 ! A55   A(31,33,34)           108.0862                                         !
 ! A56   A(31,33,35)           110.5924                                         !
 ! A57   A(31,33,36)           116.5593                                         !
 ! A58   A(34,33,35)           107.6292                                         !
 ! A59   A(34,33,36)           107.9951                                         !
 ! A60   A(35,33,36)           105.6336                                         !
 ! A61   A(33,36,37)           118.892                                          !
 ! A62   A(33,36,38)           118.0                                            !
 ! A63   A(37,36,38)           123.1025                                         !
 ! A64   A(36,38,39)           122.0879                                         !
 ! A65   A(36,38,40)           121.5476                                         !
 ! A66   A(39,38,40)           116.2374                                         !
 ! A67   A(38,40,41)           110.1965                                         !
 ! A68   A(38,40,42)           107.5953                                         !
 ! A69   A(38,40,43)           108.2234                                         !
 ! A70   A(41,40,42)           110.1182                                         !
 ! A71   A(41,40,43)           111.4777                                         !
 ! A72   A(42,40,43)           109.127                                          !
 ! A73   A(40,43,44)           121.7661                                         !
 ! A74   A(40,43,45)           115.471                                          !
 ! A75   A(44,43,45)           122.6049                                         !
 ! A76   A(43,45,46)           115.1243                                         !
 ! A77   A(43,45,47)           122.1915                                         !
 ! A78   A(46,45,47)           118.7036                                         !
 ! A79   A(45,47,48)           108.4723                                         !
 ! A80   A(45,47,49)           109.3849                                         !
 ! A81   A(45,47,50)           113.26                                           !
 ! A82   A(48,47,49)           108.8021                                         !
 ! A83   A(48,47,50)           109.7971                                         !
 ! A84   A(49,47,50)           107.0411                                         !
 ! A85   A(47,50,51)           120.1184                                         !
 ! A86   A(47,50,52)           117.0609                                         !
 ! A87   A(51,50,52)           122.8197                                         !
 ! A88   A(50,52,53)           121.3865                                         !
 ! A89   A(50,52,54)           120.2423                                         !
 ! A90   A(53,52,54)           117.8235                                         !
 ! A91   A(52,54,55)           109.5036                                         !
 ! A92   A(52,54,56)           110.5291                                         !
 ! A93   A(52,54,57)           113.9685                                         !
 ! A94   A(55,54,56)           107.731                                          !
 ! A95   A(55,54,57)           108.2101                                         !
 ! A96   A(56,54,57)           106.6753                                         !
 ! A97   A(54,57,58)           123.5327                                         !
 ! A98   A(54,57,59)           112.4142                                         !
 ! A99   A(58,57,59)           123.9782                                         !
 ! A100  A(57,59,60)           107.2758                                         !
 ! D1    D(2,1,5,6)             57.2168                                         !
 ! D2    D(2,1,5,7)            -62.0101                                         !
 ! D3    D(2,1,5,8)            179.4628                                         !
 ! D4    D(3,1,5,6)           -179.1251                                         !
 ! D5    D(3,1,5,7)             61.6481                                         !
 ! D6    D(3,1,5,8)            -56.879                                          !
 ! D7    D(4,1,5,6)            -60.0828                                         !
 ! D8    D(4,1,5,7)           -179.3096                                         !
 ! D9    D(4,1,5,8)             62.1633                                         !
 ! D10   D(1,5,8,9)            112.3493                                         !
 ! D11   D(1,5,8,10)           -69.9586                                         !
 ! D12   D(6,5,8,9)           -127.2165                                         !
 ! D13   D(6,5,8,10)            50.4756                                         !
 ! D14   D(7,5,8,9)             -7.0757                                         !
 ! D15   D(7,5,8,10)           170.6164                                         !
 ! D16   D(5,8,10,11)           22.4353                                         !
 ! D17   D(5,8,10,12)         -177.1497                                         !
 ! D18   D(9,8,10,11)         -159.9528                                         !
 ! D19   D(9,8,10,12)            0.4622                                         !
 ! D20   D(8,10,12,13)          55.1254                                         !
 ! D21   D(8,10,12,14)         172.8954                                         !
 ! D22   D(8,10,12,15)         -68.6237                                         !
 ! D23   D(11,10,12,13)       -143.9786                                         !
 ! D24   D(11,10,12,14)        -26.2087                                         !
 ! D25   D(11,10,12,15)         92.2723                                         !
 ! D26   D(10,12,15,16)        -56.9394                                         !
 ! D27   D(10,12,15,17)        120.6007                                         !
 ! D28   D(13,12,15,16)       -178.7635                                         !
 ! D29   D(13,12,15,17)         -1.2234                                         !
 ! D30   D(14,12,15,16)         61.2677                                         !
 ! D31   D(14,12,15,17)       -121.1922                                         !
 ! D32   D(12,15,17,18)         -5.6238                                         !
 ! D33   D(12,15,17,19)       -171.8647                                         !
 ! D34   D(16,15,17,18)        171.8697                                         !
 ! D35   D(16,15,17,19)          5.6288                                         !
 ! D36   D(15,17,19,20)        -60.9557                                         !
 ! D37   D(15,17,19,21)       -179.7488                                         !
 ! D38   D(15,17,19,22)         58.1255                                         !
 ! D39   D(18,17,19,20)        132.8475                                         !
 ! D40   D(18,17,19,21)         14.0544                                         !
 ! D41   D(18,17,19,22)       -108.0713                                         !
 ! D42   D(17,19,22,23)       -153.1393                                         !
 ! D43   D(17,19,22,24)         27.0031                                         !
 ! D44   D(20,19,22,23)        -31.6932                                         !
 ! D45   D(20,19,22,24)        148.4492                                         !
 ! D46   D(21,19,22,23)         85.1546                                         !
 ! D47   D(21,19,22,24)        -94.703                                          !
 ! D48   D(19,22,24,25)         -5.4807                                         !
 ! D49   D(19,22,24,26)       -174.7194                                         !
 ! D50   D(23,22,24,25)        174.666                                          !
 ! D51   D(23,22,24,26)          5.4273                                         !
 ! D52   D(22,24,26,27)       -167.2196                                         !
 ! D53   D(22,24,26,28)        -48.2222                                         !
 ! D54   D(22,24,26,29)         73.7379                                         !
 ! D55   D(25,24,26,27)         23.1561                                         !
 ! D56   D(25,24,26,28)        142.1535                                         !
 ! D57   D(25,24,26,29)        -95.8864                                         !
 ! D58   D(24,26,29,30)        105.061                                          !
 ! D59   D(24,26,29,31)        -74.4495                                         !
 ! D60   D(27,26,29,30)        -14.3959                                         !
 ! D61   D(27,26,29,31)        166.0936                                         !
 ! D62   D(28,26,29,30)       -133.1902                                         !
 ! D63   D(28,26,29,31)         47.2994                                         !
 ! D64   D(26,29,31,32)          5.8124                                         !
 ! D65   D(26,29,31,33)       -175.5844                                         !
 ! D66   D(30,29,31,32)       -173.7008                                         !
 ! D67   D(30,29,31,33)          4.9024                                         !
 ! D68   D(29,31,33,34)        173.0683                                         !
 ! D69   D(29,31,33,35)         55.4842                                         !
 ! D70   D(29,31,33,36)        -65.1567                                         !
 ! D71   D(32,31,33,34)         -8.3849                                         !
 ! D72   D(32,31,33,35)       -125.9689                                         !
 ! D73   D(32,31,33,36)        113.3902                                         !
 ! D74   D(31,33,36,37)        159.2983                                         !
 ! D75   D(31,33,36,38)        -21.5271                                         !
 ! D76   D(34,33,36,37)        -78.8788                                         !
 ! D77   D(34,33,36,38)        100.2958                                         !
 ! D78   D(35,33,36,37)         36.0546                                         !
 ! D79   D(35,33,36,38)       -144.7708                                         !
 ! D80   D(33,36,38,39)          1.8471                                         !
 ! D81   D(33,36,38,40)        177.5942                                         !
 ! D82   D(37,36,38,39)       -179.0156                                         !
 ! D83   D(37,36,38,40)         -3.2684                                         !
 ! D84   D(36,38,40,41)         51.1067                                         !
 ! D85   D(36,38,40,42)        171.1821                                         !
 ! D86   D(36,38,40,43)        -71.0231                                         !
 ! D87   D(39,38,40,41)       -132.9099                                         !
 ! D88   D(39,38,40,42)        -12.8345                                         !
 ! D89   D(39,38,40,43)        104.9603                                         !
 ! D90   D(38,40,43,44)        -88.8136                                         !
 ! D91   D(38,40,43,45)         86.7286                                         !
 ! D92   D(41,40,43,44)        149.845                                          !
 ! D93   D(41,40,43,45)        -34.6128                                         !
 ! D94   D(42,40,43,44)         27.9963                                         !
 ! D95   D(42,40,43,45)       -156.4616                                         !
 ! D96   D(40,43,45,46)         -8.6103                                         !
 ! D97   D(40,43,45,47)       -165.8369                                         !
 ! D98   D(44,43,45,46)        166.8906                                         !
 ! D99   D(44,43,45,47)          9.6639                                         !
 ! D100  D(43,45,47,48)       -162.5186                                         !
 ! D101  D(43,45,47,49)        -43.9787                                         !
 ! D102  D(43,45,47,50)         75.3223                                         !
 ! D103  D(46,45,47,48)         41.0323                                         !
 ! D104  D(46,45,47,49)        159.5723                                         !
 ! D105  D(46,45,47,50)        -81.1268                                         !
 ! D106  D(45,47,50,51)       -130.5966                                         !
 ! D107  D(45,47,50,52)         49.7575                                         !
 ! D108  D(48,47,50,51)        107.986                                          !
 ! D109  D(48,47,50,52)        -71.6599                                         !
 ! D110  D(49,47,50,51)         -9.9582                                         !
 ! D111  D(49,47,50,52)        170.396                                          !
 ! D112  D(47,50,52,53)        -10.4126                                         !
 ! D113  D(47,50,52,54)        178.2602                                         !
 ! D114  D(51,50,52,53)        169.952                                          !
 ! D115  D(51,50,52,54)         -1.3753                                         !
 ! D116  D(50,52,54,55)        -40.1862                                         !
 ! D117  D(50,52,54,56)         78.3444                                         !
 ! D118  D(50,52,54,57)       -161.5367                                         !
 ! D119  D(53,52,54,55)        148.1831                                         !
 ! D120  D(53,52,54,56)        -93.2863                                         !
 ! D121  D(53,52,54,57)         26.8326                                         !
 ! D122  D(52,54,57,58)        161.3478                                         !
 ! D123  D(52,54,57,59)        -21.6912                                         !
 ! D124  D(55,54,57,58)         39.2822                                         !
 ! D125  D(55,54,57,59)       -143.7568                                         !
 ! D126  D(56,54,57,58)        -76.3901                                         !
 ! D127  D(56,54,57,59)        100.5708                                         !
 ! D128  D(54,57,59,60)        179.9575                                         !
 ! D129  D(58,57,59,60)         -3.0973                                         !
 --------------------------------------------------------------------------------
 Symmetry turned off by external request.
 Stoichiometry    C16H27N8O9(1+)
 Framework group  C1[X(C16H27N8O9)]
 Deg. of freedom   174
 Full point group                 C1      NOp   1
                          Input orientation:                          
 ---------------------------------------------------------------------
 Center     Atomic      Atomic             Coordinates (Angstroms)
 Number     Number       Type             X           Y           Z
 ---------------------------------------------------------------------
      1          7           0        3.154257    2.882444    4.313403
      2          1           0        3.535682    2.652421    5.247428
      3          1           0        2.662627    2.029690    3.951827
      4          1           0        4.001303    3.013137    3.715283
      5          6           0        2.297545    4.102880    4.275814
      6          1           0        2.888278    4.941858    4.652425
      7          1           0        1.428913    3.947510    4.915141
      8          6           0        1.782545    4.382422    2.853631
      9          8           0        0.581550    4.268179    2.599105
     10          7           0        2.696090    4.795686    1.945346
     11          1           0        3.685587    4.591523    2.085156
     12          6           0        2.259580    5.137221    0.596047
     13          1           0        1.473457    5.894791    0.658894
     14          1           0        3.112654    5.563417    0.063390
     15          6           0        1.797792    3.884472   -0.153235
     16          8           0        2.556394    2.923786   -0.293628
     17          7           0        0.520845    3.868039   -0.598763
     18          1           0       -0.097315    4.628872   -0.351646
     19          6           0       -0.036114    2.644516   -1.159951
     20          1           0        0.530086    2.336357   -2.041363
     21          1           0       -1.068880    2.833594   -1.464237
     22          6           0        0.004834    1.459238   -0.184592
     23          8           0        0.050266    0.304637   -0.608060
     24          7           0       -0.015077    1.764373    1.136840
     25          1           0        0.028255    2.729578    1.451022
     26          6           0        0.134572    0.728785    2.145864
     27          1           0       -0.135913    1.147138    3.115939
     28          1           0       -0.537162   -0.103900    1.914576
     29          6           0        1.580563    0.219282    2.238758
     30          8           0        2.339409    0.534626    3.175437
     31          7           0        1.983983   -0.583007    1.238951
     32          1           0        1.334562   -0.712132    0.461372
     33          6           0        3.291896   -1.219725    1.234055
     34          1           0        3.329870   -1.910820    0.387419
     35          1           0        3.438135   -1.804894    2.145973
     36          6           0        4.505106   -0.290717    1.141009
     37          8           0        5.608755   -0.709128    1.513905
     38          7           0        4.318292    0.945815    0.637211
     39          1           0        3.402916    1.278499    0.349416
     40          6           0        5.408936    1.911933    0.561207
     41          1           0        6.279163    1.461633    0.074655
     42          1           0        5.054883    2.763006   -0.017837
     43          6           0        5.738393    2.374442    1.982125
     44          8           0        5.158306    3.350184    2.508374
     45          7           0        6.615798    1.609690    2.648817
     46          1           0        6.861304    0.734068    2.191010
     47          6           0        6.809049    1.724895    4.088665
     48          1           0        7.759114    1.250146    4.349886
     49          1           0        6.855276    2.778287    4.364296
     50          6           0        5.666147    1.092703    4.909146
     51          8           0        5.132471    1.731513    5.826391
     52          7           0        5.298934   -0.161503    4.583171
     53          1           0        5.641258   -0.610654    3.737657
     54          6           0        4.252325   -0.839594    5.337778
     55          1           0        4.366679   -0.617095    6.400236
     56          1           0        3.261936   -0.484288    5.026671
     57          6           0        4.247485   -2.346306    5.167007
     58          8           0        3.698435   -3.100446    5.928775
     59          8           0        4.872809   -2.740211    4.028199
     60          1           0        4.826601   -3.715283    3.994297
 ---------------------------------------------------------------------
 Rotational constants (GHZ):           0.1918984           0.1076947           0.0942377
 Standard basis: 6-31G(d) (6D, 7F)
   549 basis functions,  1032 primitive gaussians,   549 cartesian basis functions
   125 alpha electrons      125 beta electrons
       nuclear repulsion energy      4067.5512091855 Hartrees.
 NAtoms=   60 NActive=   60 NUniq=   60 SFac= 1.00D+00 NAtFMM=   60 NAOKFM=T Big=T
 Integral buffers will be    131072 words long.
 Raffenetti 2 integral format.
 Two-electron integral symmetry is turned off.
 Nuclear repulsion after empirical dispersion term =     4067.4545163659 Hartrees.
 One-electron integrals computed using PRISM.
 NBasis=   549 RedAO= T EigKep=  2.50D-03  NBF=   549
 NBsUse=   549 1.00D-06 EigRej= -1.00D+00 NBFU=   549
 Initial guess from the checkpoint file:  "conf-771.chk"
 B after Tr=     0.000000    0.000000    0.000000
         Rot=    1.000000    0.000000    0.000000    0.000000 Ang=   0.00 deg.
 Requested convergence on RMS density matrix=1.00D-08 within 128 cycles.
 Requested convergence on MAX density matrix=1.00D-06.
 Requested convergence on             energy=1.00D-06.
 No special actions if energy rises.
 SCF Done:  E(RB3LYP) =  -1741.04009811     A.U. after    1 cycles
            NFock=  1  Conv=0.56D-08     -V/T= 2.0092

 **********************************************************************

            Population analysis using the SCF Density.

 **********************************************************************

 Alpha  occ. eigenvalues --  -19.30230 -19.26675 -19.26257 -19.26146 -19.25211
 Alpha  occ. eigenvalues --  -19.23875 -19.23840 -19.23818 -19.23391 -14.55099
 Alpha  occ. eigenvalues --  -14.49869 -14.49758 -14.49672 -14.48972 -14.48266
 Alpha  occ. eigenvalues --  -14.48014 -14.47833 -10.43556 -10.42950 -10.42486
 Alpha  occ. eigenvalues --  -10.42411 -10.42254 -10.41216 -10.41097 -10.40721
 Alpha  occ. eigenvalues --  -10.38406 -10.36186 -10.35133 -10.35106 -10.35100
 Alpha  occ. eigenvalues --  -10.34878 -10.34853 -10.33788  -1.20769  -1.18330
 Alpha  occ. eigenvalues --   -1.17878  -1.17376  -1.17002  -1.15561  -1.15500
 Alpha  occ. eigenvalues --   -1.15164  -1.11857  -1.10880  -1.06282  -1.05981
 Alpha  occ. eigenvalues --   -1.05938  -1.05651  -1.04198  -1.03774  -1.03611
 Alpha  occ. eigenvalues --   -0.89852  -0.89317  -0.88096  -0.86466  -0.85193
 Alpha  occ. eigenvalues --   -0.83470  -0.82090  -0.80994  -0.74163  -0.73025
 Alpha  occ. eigenvalues --   -0.72787  -0.72563  -0.71780  -0.70813  -0.70538
 Alpha  occ. eigenvalues --   -0.70165  -0.69609  -0.69416  -0.66433  -0.66240
 Alpha  occ. eigenvalues --   -0.66015  -0.65663  -0.64669  -0.63654  -0.62785
 Alpha  occ. eigenvalues --   -0.62041  -0.61816  -0.61386  -0.60663  -0.59637
 Alpha  occ. eigenvalues --   -0.59287  -0.58529  -0.57950  -0.57650  -0.57310
 Alpha  occ. eigenvalues --   -0.56456  -0.56202  -0.55770  -0.55657  -0.55331
 Alpha  occ. eigenvalues --   -0.54804  -0.54262  -0.53813  -0.53673  -0.53422
 Alpha  occ. eigenvalues --   -0.52807  -0.52534  -0.52210  -0.52031  -0.51863
 Alpha  occ. eigenvalues --   -0.51594  -0.50912  -0.50459  -0.50231  -0.49836
 Alpha  occ. eigenvalues --   -0.49484  -0.48211  -0.48070  -0.47684  -0.42178
 Alpha  occ. eigenvalues --   -0.41915  -0.41771  -0.41244  -0.41019  -0.40801
 Alpha  occ. eigenvalues --   -0.40526  -0.39748  -0.38514  -0.38232  -0.37395
 Alpha  occ. eigenvalues --   -0.37090  -0.36921  -0.36692  -0.36510  -0.36456
 Alpha virt. eigenvalues --   -0.13931  -0.13026  -0.12255  -0.11835  -0.10735
 Alpha virt. eigenvalues --   -0.09959  -0.09326  -0.08866  -0.05013  -0.03671
 Alpha virt. eigenvalues --   -0.02728  -0.01452  -0.00748  -0.00386   0.00411
 Alpha virt. eigenvalues --    0.01023   0.01209   0.01743   0.02099   0.02298
 Alpha virt. eigenvalues --    0.02770   0.03030   0.03261   0.03659   0.03932
 Alpha virt. eigenvalues --    0.04575   0.04746   0.04999   0.05590   0.05948
 Alpha virt. eigenvalues --    0.06756   0.07003   0.07492   0.07699   0.08036
 Alpha virt. eigenvalues --    0.08580   0.08883   0.09428   0.09781   0.10474
 Alpha virt. eigenvalues --    0.10811   0.11197   0.11620   0.11871   0.12759
 Alpha virt. eigenvalues --    0.13218   0.13554   0.13992   0.15379   0.15773
 Alpha virt. eigenvalues --    0.16463   0.19247   0.20331   0.21053   0.22043
 Alpha virt. eigenvalues --    0.22179   0.23800   0.24264   0.24879   0.25418
 Alpha virt. eigenvalues --    0.26588   0.27003   0.27333   0.28118   0.29866
 Alpha virt. eigenvalues --    0.31185   0.32520   0.34490   0.35374   0.37829
 Alpha virt. eigenvalues --    0.38174   0.38504   0.39796   0.40385   0.40671
 Alpha virt. eigenvalues --    0.40798   0.41051   0.41673   0.42155   0.42542
 Alpha virt. eigenvalues --    0.42618   0.42849   0.43796   0.44454   0.44836
 Alpha virt. eigenvalues --    0.45146   0.46043   0.46305   0.46884   0.47294
 Alpha virt. eigenvalues --    0.47610   0.48340   0.48814   0.49317   0.49961
 Alpha virt. eigenvalues --    0.50380   0.51178   0.51542   0.52691   0.53236
 Alpha virt. eigenvalues --    0.53946   0.54285   0.54742   0.55236   0.55635
 Alpha virt. eigenvalues --    0.56313   0.56765   0.57493   0.57539   0.57926
 Alpha virt. eigenvalues --    0.58470   0.58964   0.59373   0.59545   0.60688
 Alpha virt. eigenvalues --    0.61982   0.64057   0.65092   0.65345   0.66033
 Alpha virt. eigenvalues --    0.66690   0.67018   0.67451   0.68757   0.69418
 Alpha virt. eigenvalues --    0.69832   0.70437   0.71004   0.71274   0.71938
 Alpha virt. eigenvalues --    0.72224   0.72392   0.72804   0.73126   0.73971
 Alpha virt. eigenvalues --    0.74343   0.75172   0.75312   0.76115   0.77312
 Alpha virt. eigenvalues --    0.77426   0.78061   0.78514   0.78973   0.79051
 Alpha virt. eigenvalues --    0.79410   0.79733   0.80486   0.80735   0.81335
 Alpha virt. eigenvalues --    0.82416   0.82826   0.83756   0.84367   0.84862
 Alpha virt. eigenvalues --    0.85949   0.86337   0.86498   0.87942   0.88121
 Alpha virt. eigenvalues --    0.89447   0.89961   0.90983   0.91288   0.92182
 Alpha virt. eigenvalues --    0.92819   0.93518   0.94744   0.95481   0.95829
 Alpha virt. eigenvalues --    0.96174   0.96862   0.98017   0.98533   0.99171
 Alpha virt. eigenvalues --    1.00053   1.01521   1.01879   1.02578   1.03124
 Alpha virt. eigenvalues --    1.03820   1.04470   1.06666   1.07114   1.07288
 Alpha virt. eigenvalues --    1.08633   1.08862   1.09886   1.10313   1.11469
 Alpha virt. eigenvalues --    1.12161   1.12767   1.14063   1.14961   1.15661
 Alpha virt. eigenvalues --    1.16201   1.16858   1.17798   1.18520   1.20183
 Alpha virt. eigenvalues --    1.20608   1.22195   1.22416   1.23195   1.23815
 Alpha virt. eigenvalues --    1.24059   1.24806   1.25441   1.26952   1.27754
 Alpha virt. eigenvalues --    1.28710   1.30042   1.30452   1.31059   1.31913
 Alpha virt. eigenvalues --    1.33399   1.35446   1.35938   1.36613   1.37774
 Alpha virt. eigenvalues --    1.38504   1.39384   1.40763   1.40939   1.42256
 Alpha virt. eigenvalues --    1.43654   1.44008   1.45441   1.47030   1.47339
 Alpha virt. eigenvalues --    1.48167   1.49012   1.49982   1.51001   1.53058
 Alpha virt. eigenvalues --    1.54047   1.54737   1.55628   1.56680   1.58122
 Alpha virt. eigenvalues --    1.58893   1.60571   1.61455   1.61879   1.63022
 Alpha virt. eigenvalues --    1.63416   1.64738   1.65243   1.65336   1.65881
 Alpha virt. eigenvalues --    1.66541   1.66866   1.67202   1.67472   1.68331
 Alpha virt. eigenvalues --    1.69139   1.69378   1.70279   1.70635   1.71335
 Alpha virt. eigenvalues --    1.71387   1.71973   1.73031   1.73372   1.73548
 Alpha virt. eigenvalues --    1.74567   1.74688   1.74940   1.75367   1.76481
 Alpha virt. eigenvalues --    1.76806   1.77344   1.77841   1.79070   1.79783
 Alpha virt. eigenvalues --    1.80571   1.81033   1.81301   1.82455   1.83019
 Alpha virt. eigenvalues --    1.83617   1.83889   1.84454   1.84852   1.85012
 Alpha virt. eigenvalues --    1.85667   1.87037   1.87342   1.87800   1.88703
 Alpha virt. eigenvalues --    1.89463   1.89837   1.90468   1.91396   1.92573
 Alpha virt. eigenvalues --    1.92812   1.93470   1.93715   1.94734   1.95632
 Alpha virt. eigenvalues --    1.97368   1.98214   1.99754   2.00187   2.00648
 Alpha virt. eigenvalues --    2.01190   2.02085   2.04171   2.05072   2.05643
 Alpha virt. eigenvalues --    2.07582   2.08115   2.08958   2.09086   2.11110
 Alpha virt. eigenvalues --    2.11512   2.17101   2.18848   2.19108   2.20287
 Alpha virt. eigenvalues --    2.21138   2.21679   2.22735   2.22845   2.23510
 Alpha virt. eigenvalues --    2.23909   2.25846   2.26495   2.27463   2.27997
 Alpha virt. eigenvalues --    2.28547   2.29129   2.29910   2.30362   2.31763
 Alpha virt. eigenvalues --    2.32666   2.33914   2.34643   2.34748   2.35770
 Alpha virt. eigenvalues --    2.36931   2.37605   2.38372   2.40708   2.41482
 Alpha virt. eigenvalues --    2.43300   2.45132   2.46115   2.47047   2.48912
 Alpha virt. eigenvalues --    2.49510   2.50925   2.51445   2.52370   2.54409
 Alpha virt. eigenvalues --    2.55412   2.55756   2.56442   2.57398   2.57807
 Alpha virt. eigenvalues --    2.58505   2.59583   2.60954   2.62132   2.62825
 Alpha virt. eigenvalues --    2.64262   2.65420   2.71867   2.71922   2.72410
 Alpha virt. eigenvalues --    2.75138   2.76391   2.78351   2.80617   2.82509
 Alpha virt. eigenvalues --    2.86263   2.86512   2.88412   2.89432   2.89855
 Alpha virt. eigenvalues --    2.90537   2.91842   2.93093   2.98536   3.00145
 Alpha virt. eigenvalues --    3.00949   3.01685   3.02911   3.04511   3.05234
 Alpha virt. eigenvalues --    3.06183   3.76412   3.82203   3.83824   3.84978
 Alpha virt. eigenvalues --    3.85806   3.87470   3.89033   3.91089   3.93468
 Alpha virt. eigenvalues --    3.96156   3.99088   3.99712   4.01124   4.02560
 Alpha virt. eigenvalues --    4.10070   4.11752   4.13838   4.15814   4.16592
 Alpha virt. eigenvalues --    4.17007   4.19370   4.21783   4.22678   4.26086
 Alpha virt. eigenvalues --    4.32505   4.35152   4.36475   4.39692   4.41901
 Alpha virt. eigenvalues --    4.42369   4.48295   4.51175   4.53466
          Condensed to atoms (all electrons):
 Mulliken charges:
               1
     1  N   -0.833291
     2  H    0.431869
     3  H    0.431554
     4  H    0.436561
     5  C   -0.254828
     6  H    0.228875
     7  H    0.233102
     8  C    0.590167
     9  O   -0.522858
    10  N   -0.577616
    11  H    0.390339
    12  C   -0.239556
    13  H    0.194743
    14  H    0.208642
    15  C    0.613906
    16  O   -0.537411
    17  N   -0.584202
    18  H    0.361309
    19  C   -0.225637
    20  H    0.223440
    21  H    0.210427
    22  C    0.617016
    23  O   -0.533244
    24  N   -0.612074
    25  H    0.395921
    26  C   -0.235359
    27  H    0.189893
    28  H    0.214045
    29  C    0.598508
    30  O   -0.569028
    31  N   -0.587478
    32  H    0.400845
    33  C   -0.235313
    34  H    0.214241
    35  H    0.212491
    36  C    0.631792
    37  O   -0.555936
    38  N   -0.602862
    39  H    0.396897
    40  C   -0.222341
    41  H    0.202862
    42  H    0.204277
    43  C    0.600866
    44  O   -0.579609
    45  N   -0.547755
    46  H    0.383243
    47  C   -0.248063
    48  H    0.213938
    49  H    0.214742
    50  C    0.599361
    51  O   -0.558375
    52  N   -0.601910
    53  H    0.390124
    54  C   -0.220539
    55  H    0.227866
    56  H    0.212521
    57  C    0.572809
    58  O   -0.425775
    59  O   -0.569226
    60  H    0.431094
 Sum of Mulliken charges =   1.00000
 Mulliken charges with hydrogens summed into heavy atoms:
               1
     1  N    0.466692
     5  C    0.207148
     8  C    0.590167
     9  O   -0.522858
    10  N   -0.187277
    12  C    0.163829
    15  C    0.613906
    16  O   -0.537411
    17  N   -0.222893
    19  C    0.208230
    22  C    0.617016
    23  O   -0.533244
    24  N   -0.216153
    26  C    0.168579
    29  C    0.598508
    30  O   -0.569028
    31  N   -0.186633
    33  C    0.191419
    36  C    0.631792
    37  O   -0.555936
    38  N   -0.205965
    40  C    0.184798
    43  C    0.600866
    44  O   -0.579609
    45  N   -0.164512
    47  C    0.180617
    50  C    0.599361
    51  O   -0.558375
    52  N   -0.211786
    54  C    0.219848
    57  C    0.572809
    58  O   -0.425775
    59  O   -0.138133
 Electronic spatial extent (au):  <R**2>=          27964.1176
 Charge=              1.0000 electrons
 Dipole moment (field-independent basis, Debye):
    X=             14.6689    Y=             12.2580    Z=              9.1156  Tot=             21.1785
 Quadrupole moment (field-independent basis, Debye-Ang):
   XX=           -107.9505   YY=           -123.2316   ZZ=           -158.4871
   XY=             21.7430   XZ=             38.9003   YZ=             21.2363
 Traceless Quadrupole moment (field-independent basis, Debye-Ang):
   XX=             21.9392   YY=              6.6581   ZZ=            -28.5974
   XY=             21.7430   XZ=             38.9003   YZ=             21.2363
 Octapole moment (field-independent basis, Debye-Ang**2):
  XXX=          -1289.1688  YYY=           -565.0793  ZZZ=          -1240.9552  XYY=           -442.3713
  XXY=           -181.0128  XXZ=           -214.6370  XZZ=           -481.7340  YZZ=           -123.1875
  YYZ=           -358.8890  XYZ=             64.3522
 Hexadecapole moment (field-independent basis, Debye-Ang**3):
 XXXX=         -13064.8542 YYYY=          -6350.1671 ZZZZ=         -10967.2765 XXXY=          -1366.3267
 XXXZ=          -3796.5447 YYYX=          -1473.1829 YYYZ=           -702.3504 ZZZX=          -5143.6998
 ZZZY=           -194.7203 XXYY=          -3497.0579 XXZZ=          -3818.0139 YYZZ=          -2821.1644
 XXYZ=           -248.3849 YYXZ=          -1416.6641 ZZXY=           -318.6152
 N-N= 4.067454516366D+03 E-N=-1.217334018583D+04  KE= 1.725252942790D+03
 Unable to Open any file for archive entry.
 1\1\GINC-SKL-134\SP\RB3LYP\6-31G(d)\C16H27N8O9(1+)\KENGMITH\18-Jul-202
 2\0\\# B3LYP/6-31G* empiricaldispersion=gd3 guess=read geom=check nosy
 mm integral(ultrafinegrid)\\Candidate Structure: Conf:771 Charge calc 
 in gas phase\\1,1\N,0,3.1542570184,2.8824437466,4.3134028472\H,0,3.535
 6821056,2.6524207782,5.2474280248\H,0,2.6626266713,2.0296902341,3.9518
 273292\H,0,4.0013034594,3.0131369869,3.7152833226\C,0,2.2975452214,4.1
 028799416,4.2758136178\H,0,2.888277505,4.9418577725,4.6524246487\H,0,1
 .4289128413,3.9475097455,4.9151410966\C,0,1.7825454868,4.3824222761,2.
 8536314269\O,0,0.5815503603,4.2681788834,2.5991052358\N,0,2.6960902117
 ,4.795686149,1.9453456176\H,0,3.68558744,4.5915230764,2.0851562491\C,0
 ,2.2595802454,5.1372209421,0.5960473026\H,0,1.4734565704,5.8947906471,
 0.6588938029\H,0,3.1126537415,5.5634172043,0.0633895985\C,0,1.79779229
 95,3.8844723997,-0.153235307\O,0,2.5563935971,2.9237857436,-0.29362824
 94\N,0,0.5208446756,3.8680394844,-0.5987629934\H,0,-0.0973150935,4.628
 8717942,-0.3516462502\C,0,-0.0361137335,2.6445162363,-1.1599510007\H,0
 ,0.5300864482,2.3363566141,-2.0413628217\H,0,-1.0688795298,2.833594122
 4,-1.4642371451\C,0,0.0048339871,1.4592378765,-0.1845918703\O,0,0.0502
 659027,0.3046366128,-0.6080596541\N,0,-0.0150768145,1.7643728944,1.136
 8401793\H,0,0.028255445,2.7295783859,1.4510224004\C,0,0.1345717676,0.7
 287853354,2.1458641291\H,0,-0.1359125845,1.1471381387,3.1159391012\H,0
 ,-0.5371623591,-0.1038995326,1.9145755138\C,0,1.5805626347,0.219282368
 9,2.2387576491\O,0,2.3394089075,0.5346259218,3.1754372783\N,0,1.983983
 3622,-0.5830065983,1.2389505391\H,0,1.3345624572,-0.7121320754,0.46137
 24017\C,0,3.2918957676,-1.2197251651,1.2340548597\H,0,3.3298698202,-1.
 9108201599,0.3874188432\H,0,3.4381351401,-1.8048938391,2.1459732535\C,
 0,4.5051059846,-0.2907170543,1.1410090557\O,0,5.6087551336,-0.70912843
 92,1.513905316\N,0,4.3182918896,0.9458147369,0.6372112617\H,0,3.402915
 8517,1.2784993798,0.3494156418\C,0,5.4089359055,1.9119330562,0.5612069
 768\H,0,6.2791629984,1.4616328988,0.0746552572\H,0,5.0548830461,2.7630
 058392,-0.0178374493\C,0,5.7383931873,2.3744423217,1.9821251318\O,0,5.
 1583058476,3.3501841426,2.5083743176\N,0,6.6157979475,1.6096902033,2.6
 488165354\H,0,6.8613042007,0.734067885,2.1910101484\C,0,6.8090494023,1
 .7248950287,4.0886646443\H,0,7.7591144407,1.2501455601,4.3498860346\H,
 0,6.8552761661,2.7782868607,4.3642960056\C,0,5.6661469567,1.0927034713
 ,4.9091463572\O,0,5.1324711974,1.7315134581,5.8263909651\N,0,5.2989339
 785,-0.1615033742,4.583170699\H,0,5.6412581926,-0.6106542612,3.7376569
 689\C,0,4.2523250173,-0.839594106,5.3377784246\H,0,4.3666789105,-0.617
 0946024,6.4002361146\H,0,3.2619358797,-0.4842883877,5.026670625\C,0,4.
 2474846448,-2.3463063958,5.1670071075\O,0,3.6984350746,-3.1004458021,5
 .9287748682\O,0,4.8728089604,-2.740211147,4.0281987018\H,0,4.826600669
 8,-3.7152829252,3.9942970639\\Version=ES64L-G16RevC.01\HF=-1741.040098
 1\RMSD=5.579e-09\Dipole=-0.2093857,2.1516584,-0.7829334\Quadrupole=16.
 3112835,4.9501603,-21.2614438,16.165352,28.9213829,15.7886495\PG=C01 [
 X(C16H27N8O9)]\\@
 The archive entry for this job was punched.


 CURIOUSER AND CURIOUSER

                  -- ALICE, IN WONDERLAND
 Job cpu time:       0 days  0 hours  1 minutes 29.7 seconds.
 Elapsed time:       0 days  0 hours  0 minutes 23.1 seconds.
 File lengths (MBytes):  RWF=    272 Int=      0 D2E=      0 Chk=     40 Scr=     16
 Normal termination of Gaussian 16 at Mon Jul 18 21:46:57 2022.
