 Entering Gaussian System, Link 0=/opt/software/Gaussian/g16-AVX2-C.01/g16/g16
 Input=charge-conf-617.com
 Output=charge-conf-617.log
 Initial command:
 /opt/software/Gaussian/g16-AVX2-C.01/g16/l1.exe "/mnt/gs18/scratch/users/kengmith/Gau-119303.inp" -scrdir="/mnt/gs18/scratch/users/kengmith/"
 Entering Link 1 = /opt/software/Gaussian/g16-AVX2-C.01/g16/l1.exe PID=    119316.
  
 Copyright (c) 1988-2019, Gaussian, Inc.  All Rights Reserved.
  
 This is part of the Gaussian(R) 16 program.  It is based on
 the Gaussian(R) 09 system (copyright 2009, Gaussian, Inc.),
 the Gaussian(R) 03 system (copyright 2003, Gaussian, Inc.),
 the Gaussian(R) 98 system (copyright 1998, Gaussian, Inc.),
 the Gaussian(R) 94 system (copyright 1995, Gaussian, Inc.),
 the Gaussian 92(TM) system (copyright 1992, Gaussian, Inc.),
 the Gaussian 90(TM) system (copyright 1990, Gaussian, Inc.),
 the Gaussian 88(TM) system (copyright 1988, Gaussian, Inc.),
 the Gaussian 86(TM) system (copyright 1986, Carnegie Mellon
 University), and the Gaussian 82(TM) system (copyright 1983,
 Carnegie Mellon University). Gaussian is a federally registered
 trademark of Gaussian, Inc.
  
 This software contains proprietary and confidential information,
 including trade secrets, belonging to Gaussian, Inc.
  
 This software is provided under written license and may be
 used, copied, transmitted, or stored only in accord with that
 written license.
  
 The following legend is applicable only to US Government
 contracts under FAR:
  
                    RESTRICTED RIGHTS LEGEND
  
 Use, reproduction and disclosure by the US Government is
 subject to restrictions as set forth in subparagraphs (a)
 and (c) of the Commercial Computer Software - Restricted
 Rights clause in FAR 52.227-19.
  
 Gaussian, Inc.
 340 Quinnipiac St., Bldg. 40, Wallingford CT 06492
  
  
 ---------------------------------------------------------------
 Warning -- This program may not be used in any manner that
 competes with the business of Gaussian, Inc. or will provide
 assistance to any competitor of Gaussian, Inc.  The licensee
 of this program is prohibited from giving any competitor of
 Gaussian, Inc. access to this program.  By using this program,
 the user acknowledges that Gaussian, Inc. is engaged in the
 business of creating and licensing software in the field of
 computational chemistry and represents and warrants to the
 licensee that it is not a competitor of Gaussian, Inc. and that
 it will not use this program in any manner prohibited above.
 ---------------------------------------------------------------
  

 Cite this work as:
 Gaussian 16, Revision C.01,
 M. J. Frisch, G. W. Trucks, H. B. Schlegel, G. E. Scuseria, 
 M. A. Robb, J. R. Cheeseman, G. Scalmani, V. Barone, 
 G. A. Petersson, H. Nakatsuji, X. Li, M. Caricato, A. V. Marenich, 
 J. Bloino, B. G. Janesko, R. Gomperts, B. Mennucci, H. P. Hratchian, 
 J. V. Ortiz, A. F. Izmaylov, J. L. Sonnenberg, D. Williams-Young, 
 F. Ding, F. Lipparini, F. Egidi, J. Goings, B. Peng, A. Petrone, 
 T. Henderson, D. Ranasinghe, V. G. Zakrzewski, J. Gao, N. Rega, 
 G. Zheng, W. Liang, M. Hada, M. Ehara, K. Toyota, R. Fukuda, 
 J. Hasegawa, M. Ishida, T. Nakajima, Y. Honda, O. Kitao, H. Nakai, 
 T. Vreven, K. Throssell, J. A. Montgomery, Jr., J. E. Peralta, 
 F. Ogliaro, M. J. Bearpark, J. J. Heyd, E. N. Brothers, K. N. Kudin, 
 V. N. Staroverov, T. A. Keith, R. Kobayashi, J. Normand, 
 K. Raghavachari, A. P. Rendell, J. C. Burant, S. S. Iyengar, 
 J. Tomasi, M. Cossi, J. M. Millam, M. Klene, C. Adamo, R. Cammi, 
 J. W. Ochterski, R. L. Martin, K. Morokuma, O. Farkas, 
 J. B. Foresman, and D. J. Fox, Gaussian, Inc., Wallingford CT, 2019.
 
 ******************************************
 Gaussian 16:  ES64L-G16RevC.01  3-Jul-2019
                18-Jul-2022 
 ******************************************
 %mem=8gb
 %nproc=4
 Will use up to    4 processors via shared memory.
 %chk=conf-617.chk
 ----------------------------------------------------------------------
 # B3LYP/6-31G* empiricaldispersion=gd3 guess=read geom=check nosymm in
 tegral(ultrafinegrid)
 ----------------------------------------------------------------------
 1/29=2,38=1,172=1/1;
 2/12=2,15=1,40=1/2;
 3/5=1,6=6,7=1,11=2,14=-4,25=1,30=1,74=-5,75=-5,116=-2,124=31/1,2,3;
 4/5=1/1;
 5/5=2,38=6/2;
 6/7=2,8=2,9=2,10=2,28=1/1;
 99/5=1,9=1/99;
 ------------------------------------------------------
 Candidate Structure: Conf:617 Charge calc in gas phase
 ------------------------------------------------------
 Structure from the checkpoint file:  "conf-617.chk"
 Charge =  1 Multiplicity = 1
 Redundant internal coordinates found in file.  (old form).
 N,0,3.0735251201,4.0140254732,-2.2703813321
 H,0,3.7499873804,4.7756137754,-2.1783732729
 H,0,2.8512812988,3.581262471,-1.3030579164
 H,0,3.4468050168,3.2649387096,-2.8679431041
 C,0,1.772085102,4.4604839597,-2.8513622734
 H,0,1.9529737368,5.0940220628,-3.7241072199
 H,0,1.238978941,5.0271330443,-2.0852648504
 C,0,1.0293506828,3.1727306732,-3.2489357579
 O,0,1.6728231906,2.1304528517,-3.3721648489
 N,0,-0.2933393695,3.3044270257,-3.4650558746
 H,0,-0.7531424419,4.138914076,-3.1147492425
 C,0,-1.1685411765,2.1359136811,-3.5264471337
 H,0,-1.962952371,2.3148968988,-4.2574962613
 H,0,-0.5776240513,1.2781235862,-3.8511601686
 C,0,-1.7817863701,1.9631463897,-2.1285730534
 O,0,-2.076815292,2.9695385202,-1.4782594132
 N,0,-1.9365761262,0.7040751529,-1.6657153646
 H,0,-1.5538749386,-0.0709487101,-2.1914732494
 C,0,-2.348361375,0.4507251322,-0.279842084
 H,0,-2.6831988709,-0.5823471212,-0.1914215368
 H,0,-3.1683326662,1.1287578761,-0.0315532832
 C,0,-1.1318218829,0.6501327528,0.6381349711
 O,0,-0.45319654,-0.2932735443,1.0324168843
 N,0,-0.8213895641,1.9533632554,0.8915017879
 H,0,-1.3343875924,2.6695824916,0.3845694803
 C,0,0.4409771515,2.3022022793,1.5276232007
 H,0,0.3923969662,3.3320684188,1.8821752048
 H,0,0.605519922,1.6327507177,2.3760946931
 C,0,1.5971396335,2.1959758342,0.5275856967
 O,0,2.0472677551,3.2304980742,-0.0204565337
 N,0,2.0395591486,0.9639679758,0.277053881
 H,0,1.5417610663,0.1619182843,0.677022768
 C,0,3.0877944654,0.6594220864,-0.6772588513
 H,0,3.990535672,1.2376123401,-0.44085666
 H,0,2.771622132,0.9165393227,-1.6965083275
 C,0,3.3687367467,-0.8476922184,-0.6080609112
 O,0,2.5637919749,-1.6079819193,-0.0732668995
 N,0,4.507442084,-1.2625734725,-1.2075300823
 H,0,5.2091430164,-0.5840398064,-1.4717919251
 C,0,4.9040713121,-2.6735584798,-1.1983504244
 H,0,4.005910996,-3.2744158708,-1.3637921804
 H,0,5.6107304256,-2.8416538754,-2.0112948454
 C,0,5.6057873085,-3.0444826337,0.1224852014
 O,0,6.8235557329,-3.1081353293,0.1949101535
 N,0,4.7493014741,-3.2541105031,1.1670825219
 H,0,3.7673821838,-3.0444573896,1.018196425
 C,0,5.2188266282,-3.4302459148,2.5324394262
 H,0,6.3092128967,-3.5137246116,2.4925279762
 H,0,4.9704526645,-2.5650619813,3.1558944999
 C,0,4.672557175,-4.667062208,3.2514049522
 O,0,4.6463980995,-4.7098421221,4.4712409342
 N,0,4.2372593144,-5.6802696289,2.4396924172
 H,0,4.4878380212,-5.6198416294,1.4618155211
 C,0,3.9651769456,-6.989745724,2.9894419089
 H,0,3.6591861331,-6.8587758085,4.0310410846
 H,0,3.1383466544,-7.4720330415,2.4589619482
 C,0,5.1397339451,-7.9636953418,2.9857231845
 O,0,5.0444522233,-9.1177290194,3.3284072727
 O,0,6.2898129619,-7.3950862329,2.5552112595
 H,0,6.9768456286,-8.0860165247,2.6137949167
 Recover connectivity data from disk.
                           ----------------------------
                           !    Current Parameters    !
                           ! (Angstroms and Degrees)  !
 --------------------------                            --------------------------
 ! Name  Definition              Value                                          !
 --------------------------------------------------------------------------------
 ! R1    R(1,2)                  1.0228                                         !
 ! R2    R(1,3)                  1.0828                                         !
 ! R3    R(1,4)                  1.0284                                         !
 ! R4    R(1,5)                  1.4935                                         !
 ! R5    R(5,6)                  1.0935                                         !
 ! R6    R(5,7)                  1.0919                                         !
 ! R7    R(5,8)                  1.5388                                         !
 ! R8    R(8,9)                  1.2311                                         !
 ! R9    R(8,10)                 1.3467                                         !
 ! R10   R(10,11)                1.0151                                         !
 ! R11   R(10,12)                1.4612                                         !
 ! R12   R(12,13)                1.0943                                         !
 ! R13   R(12,14)                1.0911                                         !
 ! R14   R(12,15)                1.5362                                         !
 ! R15   R(15,16)                1.234                                          !
 ! R16   R(15,17)                1.3504                                         !
 ! R17   R(17,18)                1.0117                                         !
 ! R18   R(17,19)                1.4678                                         !
 ! R19   R(19,20)                1.0896                                         !
 ! R20   R(19,21)                1.0926                                         !
 ! R21   R(19,22)                1.537                                          !
 ! R22   R(22,23)                1.2272                                         !
 ! R23   R(22,24)                1.3634                                         !
 ! R24   R(24,25)                1.0164                                         !
 ! R25   R(24,26)                1.456                                          !
 ! R26   R(26,27)                1.0903                                         !
 ! R27   R(26,28)                1.0932                                         !
 ! R28   R(26,29)                1.5323                                         !
 ! R29   R(29,30)                1.2543                                         !
 ! R30   R(29,31)                1.3328                                         !
 ! R31   R(31,32)                1.0252                                         !
 ! R32   R(31,33)                1.4499                                         !
 ! R33   R(33,34)                1.0978                                         !
 ! R34   R(33,35)                1.0977                                         !
 ! R35   R(33,36)                1.5346                                         !
 ! R36   R(36,37)                1.2296                                         !
 ! R37   R(36,38)                1.3521                                         !
 ! R38   R(38,39)                1.0112                                         !
 ! R39   R(38,40)                1.4657                                         !
 ! R40   R(40,41)                1.0932                                         !
 ! R41   R(40,42)                1.0902                                         !
 ! R42   R(40,43)                1.541                                          !
 ! R43   R(43,44)                1.2216                                         !
 ! R44   R(43,45)                1.367                                          !
 ! R45   R(45,46)                1.015                                          !
 ! R46   R(45,47)                1.4545                                         !
 ! R47   R(47,48)                1.0943                                         !
 ! R48   R(47,49)                1.095                                          !
 ! R49   R(47,50)                1.5314                                         !
 ! R50   R(50,51)                1.2209                                         !
 ! R51   R(50,52)                1.3693                                         !
 ! R52   R(52,53)                1.0113                                         !
 ! R53   R(52,54)                1.446                                          !
 ! R54   R(54,55)                1.0935                                         !
 ! R55   R(54,56)                1.0944                                         !
 ! R56   R(54,57)                1.5258                                         !
 ! R57   R(57,58)                1.2076                                         !
 ! R58   R(57,59)                1.3533                                         !
 ! R59   R(59,60)                0.9761                                         !
 ! A1    A(2,1,3)              110.6709                                         !
 ! A2    A(2,1,4)              110.7688                                         !
 ! A3    A(2,1,5)              112.8758                                         !
 ! A4    A(3,1,4)              107.6071                                         !
 ! A5    A(3,1,5)              106.7469                                         !
 ! A6    A(4,1,5)              107.9391                                         !
 ! A7    A(1,5,6)              109.8469                                         !
 ! A8    A(1,5,7)              107.9178                                         !
 ! A9    A(1,5,8)              105.7197                                         !
 ! A10   A(6,5,7)              109.8816                                         !
 ! A11   A(6,5,8)              111.0062                                         !
 ! A12   A(7,5,8)              112.3279                                         !
 ! A13   A(5,8,9)              118.8207                                         !
 ! A14   A(5,8,10)             115.7016                                         !
 ! A15   A(9,8,10)             125.4577                                         !
 ! A16   A(8,10,11)            118.0269                                         !
 ! A17   A(8,10,12)            121.1191                                         !
 ! A18   A(11,10,12)           113.6144                                         !
 ! A19   A(10,12,13)           109.3947                                         !
 ! A20   A(10,12,14)           108.4707                                         !
 ! A21   A(10,12,15)           106.9059                                         !
 ! A22   A(13,12,14)           108.8405                                         !
 ! A23   A(13,12,15)           109.6626                                         !
 ! A24   A(14,12,15)           113.4902                                         !
 ! A25   A(12,15,16)           118.8982                                         !
 ! A26   A(12,15,17)           117.5497                                         !
 ! A27   A(16,15,17)           123.5301                                         !
 ! A28   A(15,17,18)           119.5237                                         !
 ! A29   A(15,17,19)           121.1136                                         !
 ! A30   A(18,17,19)           117.6825                                         !
 ! A31   A(17,19,20)           109.0561                                         !
 ! A32   A(17,19,21)           108.5421                                         !
 ! A33   A(17,19,22)           108.6309                                         !
 ! A34   A(20,19,21)           109.8356                                         !
 ! A35   A(20,19,22)           108.5285                                         !
 ! A36   A(21,19,22)           112.1959                                         !
 ! A37   A(19,22,23)           121.9947                                         !
 ! A38   A(19,22,24)           114.5321                                         !
 ! A39   A(23,22,24)           123.3115                                         !
 ! A40   A(22,24,25)           117.7707                                         !
 ! A41   A(22,24,26)           120.5042                                         !
 ! A42   A(25,24,26)           119.1216                                         !
 ! A43   A(24,26,27)           109.2542                                         !
 ! A44   A(24,26,28)           108.8363                                         !
 ! A45   A(24,26,29)           110.6361                                         !
 ! A46   A(27,26,28)           109.4359                                         !
 ! A47   A(27,26,29)           108.1395                                         !
 ! A48   A(28,26,29)           110.5177                                         !
 ! A49   A(26,29,30)           119.9175                                         !
 ! A50   A(26,29,31)           115.9263                                         !
 ! A51   A(30,29,31)           124.1363                                         !
 ! A52   A(29,31,32)           119.2519                                         !
 ! A53   A(29,31,33)           123.9085                                         !
 ! A54   A(32,31,33)           116.3271                                         !
 ! A55   A(31,33,34)           110.0079                                         !
 ! A56   A(31,33,35)           110.7144                                         !
 ! A57   A(31,33,36)           107.9959                                         !
 ! A58   A(34,33,35)           108.2669                                         !
 ! A59   A(34,33,36)           110.9155                                         !
 ! A60   A(35,33,36)           108.9431                                         !
 ! A61   A(33,36,37)           120.4636                                         !
 ! A62   A(33,36,38)           115.8188                                         !
 ! A63   A(37,36,38)           123.6708                                         !
 ! A64   A(36,38,39)           119.6275                                         !
 ! A65   A(36,38,40)           121.3668                                         !
 ! A66   A(39,38,40)           117.3742                                         !
 ! A67   A(38,40,41)           107.8085                                         !
 ! A68   A(38,40,42)           108.6128                                         !
 ! A69   A(38,40,43)           111.1197                                         !
 ! A70   A(41,40,42)           109.5698                                         !
 ! A71   A(41,40,43)           111.8109                                         !
 ! A72   A(42,40,43)           107.8713                                         !
 ! A73   A(40,43,44)           121.1521                                         !
 ! A74   A(40,43,45)           113.9908                                         !
 ! A75   A(44,43,45)           124.8404                                         !
 ! A76   A(43,45,46)           117.5385                                         !
 ! A77   A(43,45,47)           122.2505                                         !
 ! A78   A(46,45,47)           118.3574                                         !
 ! A79   A(45,47,48)           107.2563                                         !
 ! A80   A(45,47,49)           111.4429                                         !
 ! A81   A(45,47,50)           115.0472                                         !
 ! A82   A(48,47,49)           107.8825                                         !
 ! A83   A(48,47,50)           108.1169                                         !
 ! A84   A(49,47,50)           106.8541                                         !
 ! A85   A(47,50,51)           120.3344                                         !
 ! A86   A(47,50,52)           115.6401                                         !
 ! A87   A(51,50,52)           124.0253                                         !
 ! A88   A(50,52,53)           116.7587                                         !
 ! A89   A(50,52,54)           120.2998                                         !
 ! A90   A(53,52,54)           117.9277                                         !
 ! A91   A(52,54,55)           107.8382                                         !
 ! A92   A(52,54,56)           110.9133                                         !
 ! A93   A(52,54,57)           115.6113                                         !
 ! A94   A(55,54,56)           107.6436                                         !
 ! A95   A(55,54,57)           107.1084                                         !
 ! A96   A(56,54,57)           107.4041                                         !
 ! A97   A(54,57,58)           123.2684                                         !
 ! A98   A(54,57,59)           112.7539                                         !
 ! A99   A(58,57,59)           123.9774                                         !
 ! A100  A(57,59,60)           106.3588                                         !
 ! D1    D(2,1,5,6)             46.0931                                         !
 ! D2    D(2,1,5,7)            -73.6881                                         !
 ! D3    D(2,1,5,8)            165.9281                                         !
 ! D4    D(3,1,5,6)            167.9002                                         !
 ! D5    D(3,1,5,7)             48.1191                                         !
 ! D6    D(3,1,5,8)            -72.2647                                         !
 ! D7    D(4,1,5,6)            -76.6675                                         !
 ! D8    D(4,1,5,7)            163.5514                                         !
 ! D9    D(4,1,5,8)             43.1676                                         !
 ! D10   D(1,5,8,9)            -18.4071                                         !
 ! D11   D(1,5,8,10)           163.1274                                         !
 ! D12   D(6,5,8,9)            100.6634                                         !
 ! D13   D(6,5,8,10)           -77.8022                                         !
 ! D14   D(7,5,8,9)           -135.8655                                         !
 ! D15   D(7,5,8,10)            45.6689                                         !
 ! D16   D(5,8,10,11)          -16.6026                                         !
 ! D17   D(5,8,10,12)         -164.9704                                         !
 ! D18   D(9,8,10,11)          165.0479                                         !
 ! D19   D(9,8,10,12)           16.6801                                         !
 ! D20   D(8,10,12,13)        -145.3857                                         !
 ! D21   D(8,10,12,14)         -26.7949                                         !
 ! D22   D(8,10,12,15)          95.9395                                         !
 ! D23   D(11,10,12,13)         64.9635                                         !
 ! D24   D(11,10,12,14)       -176.4456                                         !
 ! D25   D(11,10,12,15)        -53.7113                                         !
 ! D26   D(10,12,15,16)         36.6944                                         !
 ! D27   D(10,12,15,17)       -141.6628                                         !
 ! D28   D(13,12,15,16)        -81.806                                          !
 ! D29   D(13,12,15,17)         99.8367                                         !
 ! D30   D(14,12,15,16)        156.2418                                         !
 ! D31   D(14,12,15,17)        -22.1154                                         !
 ! D32   D(12,15,17,18)          7.052                                          !
 ! D33   D(12,15,17,19)        171.9394                                         !
 ! D34   D(16,15,17,18)       -171.2226                                         !
 ! D35   D(16,15,17,19)         -6.3353                                         !
 ! D36   D(15,17,19,20)        164.1292                                         !
 ! D37   D(15,17,19,21)         44.4917                                         !
 ! D38   D(15,17,19,22)        -77.7555                                         !
 ! D39   D(18,17,19,20)        -30.7148                                         !
 ! D40   D(18,17,19,21)       -150.3523                                         !
 ! D41   D(18,17,19,22)         87.4005                                         !
 ! D42   D(17,19,22,23)        -97.9851                                         !
 ! D43   D(17,19,22,24)         77.5365                                         !
 ! D44   D(20,19,22,23)         20.4639                                         !
 ! D45   D(20,19,22,24)       -164.0145                                         !
 ! D46   D(21,19,22,23)        142.0149                                         !
 ! D47   D(21,19,22,24)        -42.4635                                         !
 ! D48   D(19,22,24,25)         -6.7386                                         !
 ! D49   D(19,22,24,26)       -168.2898                                         !
 ! D50   D(23,22,24,25)        168.7164                                         !
 ! D51   D(23,22,24,26)          7.1652                                         !
 ! D52   D(22,24,26,27)       -165.0267                                         !
 ! D53   D(22,24,26,28)        -45.5829                                         !
 ! D54   D(22,24,26,29)         76.0308                                         !
 ! D55   D(25,24,26,27)         33.6679                                         !
 ! D56   D(25,24,26,28)        153.1117                                         !
 ! D57   D(25,24,26,29)        -85.2745                                         !
 ! D58   D(24,26,29,30)        100.0887                                         !
 ! D59   D(24,26,29,31)        -78.3554                                         !
 ! D60   D(27,26,29,30)        -19.5266                                         !
 ! D61   D(27,26,29,31)        162.0293                                         !
 ! D62   D(28,26,29,30)       -139.2937                                         !
 ! D63   D(28,26,29,31)         42.2622                                         !
 ! D64   D(26,29,31,32)          5.9983                                         !
 ! D65   D(26,29,31,33)        177.4738                                         !
 ! D66   D(30,29,31,32)       -172.3724                                         !
 ! D67   D(30,29,31,33)         -0.8969                                         !
 ! D68   D(29,31,33,34)         55.1842                                         !
 ! D69   D(29,31,33,35)        -64.4413                                         !
 ! D70   D(29,31,33,36)        176.3654                                         !
 ! D71   D(32,31,33,34)       -133.1123                                         !
 ! D72   D(32,31,33,35)        107.2622                                         !
 ! D73   D(32,31,33,36)        -11.9312                                         !
 ! D74   D(31,33,36,37)         16.4339                                         !
 ! D75   D(31,33,36,38)       -165.9646                                         !
 ! D76   D(34,33,36,37)        137.0492                                         !
 ! D77   D(34,33,36,38)        -45.3493                                         !
 ! D78   D(35,33,36,37)       -103.877                                          !
 ! D79   D(35,33,36,38)         73.7246                                         !
 ! D80   D(33,36,38,39)         14.0694                                         !
 ! D81   D(33,36,38,40)        179.1274                                         !
 ! D82   D(37,36,38,39)       -168.4148                                         !
 ! D83   D(37,36,38,40)         -3.3568                                         !
 ! D84   D(36,38,40,41)         40.8023                                         !
 ! D85   D(36,38,40,42)        159.4495                                         !
 ! D86   D(36,38,40,43)        -82.0464                                         !
 ! D87   D(39,38,40,41)       -153.8169                                         !
 ! D88   D(39,38,40,42)        -35.1697                                         !
 ! D89   D(39,38,40,43)         83.3344                                         !
 ! D90   D(38,40,43,44)        -99.6558                                         !
 ! D91   D(38,40,43,45)         78.9299                                         !
 ! D92   D(41,40,43,44)        139.8323                                         !
 ! D93   D(41,40,43,45)        -41.582                                          !
 ! D94   D(42,40,43,44)         19.2943                                         !
 ! D95   D(42,40,43,45)       -162.12                                           !
 ! D96   D(40,43,45,46)         -7.0659                                         !
 ! D97   D(40,43,45,47)       -171.2986                                         !
 ! D98   D(44,43,45,46)        171.4594                                         !
 ! D99   D(44,43,45,47)          7.2267                                         !
 ! D100  D(43,45,47,48)         -8.5075                                         !
 ! D101  D(43,45,47,49)        109.3616                                         !
 ! D102  D(43,45,47,50)       -128.8105                                         !
 ! D103  D(46,45,47,48)       -172.617                                          !
 ! D104  D(46,45,47,49)        -54.748                                          !
 ! D105  D(46,45,47,50)         67.08                                           !
 ! D106  D(45,47,50,51)       -157.309                                          !
 ! D107  D(45,47,50,52)         22.8481                                         !
 ! D108  D(48,47,50,51)         82.8621                                         !
 ! D109  D(48,47,50,52)        -96.9809                                         !
 ! D110  D(49,47,50,51)        -33.0315                                         !
 ! D111  D(49,47,50,52)        147.1255                                         !
 ! D112  D(47,50,52,53)         12.6434                                         !
 ! D113  D(47,50,52,54)        167.0874                                         !
 ! D114  D(51,50,52,53)       -167.193                                          !
 ! D115  D(51,50,52,54)        -12.749                                          !
 ! D116  D(50,52,54,55)         28.9931                                         !
 ! D117  D(50,52,54,56)        146.6275                                         !
 ! D118  D(50,52,54,57)        -90.8065                                         !
 ! D119  D(53,52,54,55)       -176.8539                                         !
 ! D120  D(53,52,54,56)        -59.2195                                         !
 ! D121  D(53,52,54,57)         63.3464                                         !
 ! D122  D(52,54,57,58)       -174.9277                                         !
 ! D123  D(52,54,57,59)          4.8919                                         !
 ! D124  D(55,54,57,58)         64.8747                                         !
 ! D125  D(55,54,57,59)       -115.3057                                         !
 ! D126  D(56,54,57,58)        -50.5185                                         !
 ! D127  D(56,54,57,59)        129.3011                                         !
 ! D128  D(54,57,59,60)        178.4626                                         !
 ! D129  D(58,57,59,60)         -1.7193                                         !
 --------------------------------------------------------------------------------
 Symmetry turned off by external request.
 Stoichiometry    C16H27N8O9(1+)
 Framework group  C1[X(C16H27N8O9)]
 Deg. of freedom   174
 Full point group                 C1      NOp   1
                          Input orientation:                          
 ---------------------------------------------------------------------
 Center     Atomic      Atomic             Coordinates (Angstroms)
 Number     Number       Type             X           Y           Z
 ---------------------------------------------------------------------
      1          7           0        3.073525    4.014025   -2.270381
      2          1           0        3.749987    4.775614   -2.178373
      3          1           0        2.851281    3.581262   -1.303058
      4          1           0        3.446805    3.264939   -2.867943
      5          6           0        1.772085    4.460484   -2.851362
      6          1           0        1.952974    5.094022   -3.724107
      7          1           0        1.238979    5.027133   -2.085265
      8          6           0        1.029351    3.172731   -3.248936
      9          8           0        1.672823    2.130453   -3.372165
     10          7           0       -0.293339    3.304427   -3.465056
     11          1           0       -0.753142    4.138914   -3.114749
     12          6           0       -1.168541    2.135914   -3.526447
     13          1           0       -1.962952    2.314897   -4.257496
     14          1           0       -0.577624    1.278124   -3.851160
     15          6           0       -1.781786    1.963146   -2.128573
     16          8           0       -2.076815    2.969539   -1.478259
     17          7           0       -1.936576    0.704075   -1.665715
     18          1           0       -1.553875   -0.070949   -2.191473
     19          6           0       -2.348361    0.450725   -0.279842
     20          1           0       -2.683199   -0.582347   -0.191422
     21          1           0       -3.168333    1.128758   -0.031553
     22          6           0       -1.131822    0.650133    0.638135
     23          8           0       -0.453197   -0.293274    1.032417
     24          7           0       -0.821390    1.953363    0.891502
     25          1           0       -1.334388    2.669582    0.384569
     26          6           0        0.440977    2.302202    1.527623
     27          1           0        0.392397    3.332068    1.882175
     28          1           0        0.605520    1.632751    2.376095
     29          6           0        1.597140    2.195976    0.527586
     30          8           0        2.047268    3.230498   -0.020457
     31          7           0        2.039559    0.963968    0.277054
     32          1           0        1.541761    0.161918    0.677023
     33          6           0        3.087794    0.659422   -0.677259
     34          1           0        3.990536    1.237612   -0.440857
     35          1           0        2.771622    0.916539   -1.696508
     36          6           0        3.368737   -0.847692   -0.608061
     37          8           0        2.563792   -1.607982   -0.073267
     38          7           0        4.507442   -1.262573   -1.207530
     39          1           0        5.209143   -0.584040   -1.471792
     40          6           0        4.904071   -2.673558   -1.198350
     41          1           0        4.005911   -3.274416   -1.363792
     42          1           0        5.610730   -2.841654   -2.011295
     43          6           0        5.605787   -3.044483    0.122485
     44          8           0        6.823556   -3.108135    0.194910
     45          7           0        4.749301   -3.254111    1.167083
     46          1           0        3.767382   -3.044457    1.018196
     47          6           0        5.218827   -3.430246    2.532439
     48          1           0        6.309213   -3.513725    2.492528
     49          1           0        4.970453   -2.565062    3.155894
     50          6           0        4.672557   -4.667062    3.251405
     51          8           0        4.646398   -4.709842    4.471241
     52          7           0        4.237259   -5.680270    2.439692
     53          1           0        4.487838   -5.619842    1.461816
     54          6           0        3.965177   -6.989746    2.989442
     55          1           0        3.659186   -6.858776    4.031041
     56          1           0        3.138347   -7.472033    2.458962
     57          6           0        5.139734   -7.963695    2.985723
     58          8           0        5.044452   -9.117729    3.328407
     59          8           0        6.289813   -7.395086    2.555211
     60          1           0        6.976846   -8.086017    2.613795
 ---------------------------------------------------------------------
 Rotational constants (GHZ):           0.2267833           0.0458892           0.0424147
 Standard basis: 6-31G(d) (6D, 7F)
   549 basis functions,  1032 primitive gaussians,   549 cartesian basis functions
   125 alpha electrons      125 beta electrons
       nuclear repulsion energy      3527.9295416423 Hartrees.
 NAtoms=   60 NActive=   60 NUniq=   60 SFac= 1.00D+00 NAtFMM=   60 NAOKFM=T Big=T
 Integral buffers will be    131072 words long.
 Raffenetti 2 integral format.
 Two-electron integral symmetry is turned off.
 Nuclear repulsion after empirical dispersion term =     3527.8567741593 Hartrees.
 One-electron integrals computed using PRISM.
 NBasis=   549 RedAO= T EigKep=  2.24D-03  NBF=   549
 NBsUse=   549 1.00D-06 EigRej= -1.00D+00 NBFU=   549
 Initial guess from the checkpoint file:  "conf-617.chk"
 B after Tr=     0.000000    0.000000    0.000000
         Rot=    1.000000    0.000000    0.000000    0.000000 Ang=   0.00 deg.
 Requested convergence on RMS density matrix=1.00D-08 within 128 cycles.
 Requested convergence on MAX density matrix=1.00D-06.
 Requested convergence on             energy=1.00D-06.
 No special actions if energy rises.
 SCF Done:  E(RB3LYP) =  -1740.96997130     A.U. after    3 cycles
            NFock=  3  Conv=0.63D-09     -V/T= 2.0092

 **********************************************************************

            Population analysis using the SCF Density.

 **********************************************************************

 Alpha  occ. eigenvalues --  -19.28345 -19.26931 -19.25413 -19.25231 -19.24201
 Alpha  occ. eigenvalues --  -19.23347 -19.19751 -19.18993 -19.17226 -14.59405
 Alpha  occ. eigenvalues --  -14.51784 -14.50290 -14.49315 -14.48630 -14.47641
 Alpha  occ. eigenvalues --  -14.44156 -14.42258 -10.45674 -10.42850 -10.42689
 Alpha  occ. eigenvalues --  -10.41571 -10.41343 -10.40410 -10.37442 -10.37183
 Alpha  occ. eigenvalues --  -10.37022 -10.36201 -10.34858 -10.34826 -10.34797
 Alpha  occ. eigenvalues --  -10.32816 -10.29443 -10.29106  -1.20549  -1.17829
 Alpha  occ. eigenvalues --   -1.17481  -1.16178  -1.15877  -1.15120  -1.14023
 Alpha  occ. eigenvalues --   -1.11687  -1.09340  -1.08131  -1.06881  -1.05946
 Alpha  occ. eigenvalues --   -1.05890  -1.04391  -1.03781  -1.00488  -0.98242
 Alpha  occ. eigenvalues --   -0.91651  -0.89446  -0.87531  -0.85217  -0.83503
 Alpha  occ. eigenvalues --   -0.81830  -0.80448  -0.77393  -0.74890  -0.74472
 Alpha  occ. eigenvalues --   -0.74154  -0.72495  -0.71717  -0.70785  -0.69852
 Alpha  occ. eigenvalues --   -0.68186  -0.67674  -0.67014  -0.66289  -0.65516
 Alpha  occ. eigenvalues --   -0.64789  -0.64335  -0.63701  -0.62744  -0.61679
 Alpha  occ. eigenvalues --   -0.61598  -0.60730  -0.60359  -0.59658  -0.59106
 Alpha  occ. eigenvalues --   -0.58815  -0.58319  -0.57808  -0.57117  -0.55960
 Alpha  occ. eigenvalues --   -0.55719  -0.54715  -0.53953  -0.53844  -0.53479
 Alpha  occ. eigenvalues --   -0.53013  -0.52839  -0.52458  -0.51940  -0.51508
 Alpha  occ. eigenvalues --   -0.51312  -0.50728  -0.50620  -0.50373  -0.50072
 Alpha  occ. eigenvalues --   -0.49557  -0.49314  -0.48765  -0.47985  -0.46779
 Alpha  occ. eigenvalues --   -0.45541  -0.44957  -0.44292  -0.42899  -0.42388
 Alpha  occ. eigenvalues --   -0.42090  -0.41787  -0.40646  -0.39884  -0.39102
 Alpha  occ. eigenvalues --   -0.38961  -0.37928  -0.37047  -0.36944  -0.36166
 Alpha  occ. eigenvalues --   -0.34735  -0.34449  -0.33062  -0.30970  -0.30326
 Alpha virt. eigenvalues --   -0.14551  -0.12469  -0.11812  -0.10476  -0.10006
 Alpha virt. eigenvalues --   -0.09245  -0.06526  -0.06111  -0.04686  -0.04188
 Alpha virt. eigenvalues --   -0.04156  -0.03457  -0.02862  -0.02579  -0.00945
 Alpha virt. eigenvalues --   -0.00361   0.00598   0.01109   0.01524   0.01863
 Alpha virt. eigenvalues --    0.02229   0.02624   0.02806   0.03704   0.04537
 Alpha virt. eigenvalues --    0.04987   0.05339   0.05953   0.06318   0.06389
 Alpha virt. eigenvalues --    0.06531   0.06785   0.07139   0.07804   0.08278
 Alpha virt. eigenvalues --    0.08591   0.09078   0.09293   0.10382   0.10805
 Alpha virt. eigenvalues --    0.11044   0.11382   0.12102   0.12307   0.13475
 Alpha virt. eigenvalues --    0.13711   0.14640   0.16429   0.17137   0.17905
 Alpha virt. eigenvalues --    0.17949   0.19313   0.20023   0.21034   0.21808
 Alpha virt. eigenvalues --    0.23218   0.23890   0.24396   0.24818   0.25592
 Alpha virt. eigenvalues --    0.26875   0.28023   0.29125   0.30133   0.31205
 Alpha virt. eigenvalues --    0.32008   0.32774   0.34419   0.34867   0.36391
 Alpha virt. eigenvalues --    0.37860   0.38521   0.39600   0.40300   0.40561
 Alpha virt. eigenvalues --    0.40608   0.42004   0.42591   0.42944   0.43601
 Alpha virt. eigenvalues --    0.44138   0.44981   0.45314   0.46146   0.46507
 Alpha virt. eigenvalues --    0.47030   0.47676   0.48039   0.48235   0.49032
 Alpha virt. eigenvalues --    0.49572   0.49974   0.50214   0.50965   0.51079
 Alpha virt. eigenvalues --    0.51641   0.52471   0.53522   0.53653   0.54308
 Alpha virt. eigenvalues --    0.55333   0.55687   0.55729   0.56527   0.56817
 Alpha virt. eigenvalues --    0.57114   0.57640   0.58554   0.59034   0.59772
 Alpha virt. eigenvalues --    0.60727   0.61285   0.61479   0.62581   0.62801
 Alpha virt. eigenvalues --    0.63260   0.63823   0.64603   0.65816   0.66293
 Alpha virt. eigenvalues --    0.66343   0.67178   0.67839   0.68448   0.68812
 Alpha virt. eigenvalues --    0.69223   0.69563   0.70247   0.71051   0.72056
 Alpha virt. eigenvalues --    0.72248   0.72472   0.72704   0.73247   0.73571
 Alpha virt. eigenvalues --    0.73841   0.74526   0.75173   0.75299   0.75627
 Alpha virt. eigenvalues --    0.76183   0.76387   0.76694   0.77560   0.78138
 Alpha virt. eigenvalues --    0.78598   0.78844   0.79444   0.79656   0.80190
 Alpha virt. eigenvalues --    0.80846   0.81092   0.81334   0.81647   0.82172
 Alpha virt. eigenvalues --    0.82902   0.83403   0.83660   0.85717   0.86287
 Alpha virt. eigenvalues --    0.87226   0.88006   0.88107   0.88471   0.88746
 Alpha virt. eigenvalues --    0.89220   0.90979   0.91306   0.91880   0.92332
 Alpha virt. eigenvalues --    0.92995   0.93737   0.94648   0.96459   0.96914
 Alpha virt. eigenvalues --    0.97520   0.98397   0.99734   0.99802   1.01830
 Alpha virt. eigenvalues --    1.02346   1.02452   1.03079   1.03717   1.04632
 Alpha virt. eigenvalues --    1.05224   1.06418   1.07880   1.08886   1.09469
 Alpha virt. eigenvalues --    1.09779   1.10268   1.11327   1.12371   1.12885
 Alpha virt. eigenvalues --    1.14348   1.15149   1.16360   1.16910   1.17260
 Alpha virt. eigenvalues --    1.17668   1.19230   1.20076   1.20896   1.22256
 Alpha virt. eigenvalues --    1.23937   1.26343   1.27275   1.28492   1.28922
 Alpha virt. eigenvalues --    1.29307   1.30036   1.31280   1.32433   1.32910
 Alpha virt. eigenvalues --    1.33611   1.34413   1.35045   1.35199   1.36292
 Alpha virt. eigenvalues --    1.37105   1.37616   1.39022   1.39379   1.39552
 Alpha virt. eigenvalues --    1.42088   1.43019   1.44872   1.45974   1.46553
 Alpha virt. eigenvalues --    1.47796   1.49339   1.49969   1.50584   1.52066
 Alpha virt. eigenvalues --    1.54257   1.55727   1.57766   1.58915   1.59406
 Alpha virt. eigenvalues --    1.60265   1.61389   1.61741   1.62156   1.62908
 Alpha virt. eigenvalues --    1.63390   1.63628   1.64678   1.64888   1.65904
 Alpha virt. eigenvalues --    1.66942   1.67806   1.68368   1.68507   1.69171
 Alpha virt. eigenvalues --    1.69659   1.70500   1.70901   1.71250   1.71573
 Alpha virt. eigenvalues --    1.71898   1.73198   1.73523   1.73745   1.73937
 Alpha virt. eigenvalues --    1.74934   1.75374   1.75948   1.76980   1.77122
 Alpha virt. eigenvalues --    1.77566   1.78390   1.79060   1.79355   1.79581
 Alpha virt. eigenvalues --    1.79974   1.80652   1.81320   1.81625   1.82316
 Alpha virt. eigenvalues --    1.82774   1.83491   1.84210   1.85127   1.85537
 Alpha virt. eigenvalues --    1.85801   1.86473   1.86997   1.87451   1.89717
 Alpha virt. eigenvalues --    1.89823   1.90001   1.90988   1.92125   1.93295
 Alpha virt. eigenvalues --    1.93662   1.94178   1.95667   1.96043   1.96856
 Alpha virt. eigenvalues --    1.97313   1.98113   1.99438   2.00676   2.01197
 Alpha virt. eigenvalues --    2.01765   2.02814   2.03598   2.05789   2.07298
 Alpha virt. eigenvalues --    2.07931   2.10639   2.11388   2.11485   2.13538
 Alpha virt. eigenvalues --    2.14966   2.15503   2.16066   2.18572   2.19571
 Alpha virt. eigenvalues --    2.19926   2.20812   2.21621   2.22856   2.24238
 Alpha virt. eigenvalues --    2.25106   2.25839   2.27040   2.27182   2.27788
 Alpha virt. eigenvalues --    2.29128   2.29659   2.30627   2.31516   2.32341
 Alpha virt. eigenvalues --    2.33224   2.33515   2.33856   2.36341   2.36517
 Alpha virt. eigenvalues --    2.36781   2.38101   2.39810   2.40643   2.41233
 Alpha virt. eigenvalues --    2.42841   2.45724   2.45891   2.47750   2.49609
 Alpha virt. eigenvalues --    2.50150   2.52204   2.52321   2.53711   2.54360
 Alpha virt. eigenvalues --    2.55777   2.56354   2.57446   2.57836   2.60555
 Alpha virt. eigenvalues --    2.60634   2.61498   2.62771   2.64223   2.66018
 Alpha virt. eigenvalues --    2.66947   2.68244   2.73643   2.74159   2.75586
 Alpha virt. eigenvalues --    2.76953   2.78235   2.79767   2.80250   2.84558
 Alpha virt. eigenvalues --    2.85489   2.87492   2.87877   2.88366   2.89003
 Alpha virt. eigenvalues --    2.89470   2.92726   2.96158   2.96600   3.00187
 Alpha virt. eigenvalues --    3.00522   3.02154   3.03866   3.05615   3.07256
 Alpha virt. eigenvalues --    3.08656   3.69435   3.72453   3.81769   3.86085
 Alpha virt. eigenvalues --    3.87318   3.88482   3.90054   3.92364   3.93166
 Alpha virt. eigenvalues --    3.97749   3.99418   4.00439   4.03495   4.04171
 Alpha virt. eigenvalues --    4.06335   4.07541   4.08826   4.09665   4.12023
 Alpha virt. eigenvalues --    4.14699   4.15278   4.17548   4.19727   4.22460
 Alpha virt. eigenvalues --    4.26085   4.34274   4.36589   4.40711   4.43198
 Alpha virt. eigenvalues --    4.45395   4.47480   4.48867   4.53147
          Condensed to atoms (all electrons):
 Mulliken charges:
               1
     1  N   -0.759001
     2  H    0.408062
     3  H    0.458190
     4  H    0.406086
     5  C   -0.279961
     6  H    0.243527
     7  H    0.238776
     8  C    0.633577
     9  O   -0.514996
    10  N   -0.564149
    11  H    0.363847
    12  C   -0.255677
    13  H    0.224988
    14  H    0.208984
    15  C    0.623222
    16  O   -0.535438
    17  N   -0.579014
    18  H    0.358647
    19  C   -0.239514
    20  H    0.212225
    21  H    0.214782
    22  C    0.589178
    23  O   -0.500998
    24  N   -0.584226
    25  H    0.378052
    26  C   -0.228625
    27  H    0.199304
    28  H    0.216414
    29  C    0.618736
    30  O   -0.605046
    31  N   -0.587762
    32  H    0.419191
    33  C   -0.244124
    34  H    0.173338
    35  H    0.218806
    36  C    0.613730
    37  O   -0.515355
    38  N   -0.587278
    39  H    0.344492
    40  C   -0.242041
    41  H    0.197264
    42  H    0.198112
    43  C    0.580595
    44  O   -0.484477
    45  N   -0.618724
    46  H    0.366075
    47  C   -0.232436
    48  H    0.228683
    49  H    0.183888
    50  C    0.593000
    51  O   -0.499536
    52  N   -0.574944
    53  H    0.335165
    54  C   -0.237440
    55  H    0.234245
    56  H    0.192715
    57  C    0.580984
    58  O   -0.443636
    59  O   -0.562292
    60  H    0.419811
 Sum of Mulliken charges =   1.00000
 Mulliken charges with hydrogens summed into heavy atoms:
               1
     1  N    0.513337
     5  C    0.202342
     8  C    0.633577
     9  O   -0.514996
    10  N   -0.200302
    12  C    0.178295
    15  C    0.623222
    16  O   -0.535438
    17  N   -0.220368
    19  C    0.187492
    22  C    0.589178
    23  O   -0.500998
    24  N   -0.206174
    26  C    0.187093
    29  C    0.618736
    30  O   -0.605046
    31  N   -0.168571
    33  C    0.148021
    36  C    0.613730
    37  O   -0.515355
    38  N   -0.242787
    40  C    0.153335
    43  C    0.580595
    44  O   -0.484477
    45  N   -0.252649
    47  C    0.180135
    50  C    0.593000
    51  O   -0.499536
    52  N   -0.239779
    54  C    0.189519
    57  C    0.580984
    58  O   -0.443636
    59  O   -0.142481
 Electronic spatial extent (au):  <R**2>=          29691.9960
 Charge=              1.0000 electrons
 Dipole moment (field-independent basis, Debye):
    X=              6.9468    Y=             15.8736    Z=            -14.4955  Tot=             22.5909
 Quadrupole moment (field-independent basis, Debye-Ang):
   XX=           -147.2958   YY=           -134.4994   ZZ=           -171.4324
   XY=             37.8214   XZ=            -32.2288   YZ=            -13.6055
 Traceless Quadrupole moment (field-independent basis, Debye-Ang):
   XX=              3.7800   YY=             16.5765   ZZ=            -20.3565
   XY=             37.8214   XZ=            -32.2288   YZ=            -13.6055
 Octapole moment (field-independent basis, Debye-Ang**2):
  XXX=          -1216.0605  YYY=            935.2618  ZZZ=           -237.2998  XYY=           -279.8882
  XXY=            258.1472  XXZ=           -166.3596  XZZ=           -484.7470  YZZ=            392.6360
  YYZ=           -340.1803  XYZ=             -0.6482
 Hexadecapole moment (field-independent basis, Debye-Ang**3):
 XXXX=         -14232.4882 YYYY=         -17847.3263 ZZZZ=          -5930.5977 XXXY=           5128.0216
 XXXZ=          -2192.1564 YYYX=           6093.6845 YYYZ=           4187.5226 ZZZX=          -2289.7876
 ZZZY=           3911.0478 XXYY=          -4170.9804 XXZZ=          -3363.8198 YYZZ=          -3955.1953
 XXYZ=           1076.3111 YYXZ=          -1568.3669 ZZXY=           2345.4039
 N-N= 3.527856774159D+03 E-N=-1.109746203294D+04  KE= 1.725163255783D+03
 Unable to Open any file for archive entry.
 1\1\GINC-NAL-002\SP\RB3LYP\6-31G(d)\C16H27N8O9(1+)\KENGMITH\18-Jul-202
 2\0\\# B3LYP/6-31G* empiricaldispersion=gd3 guess=read geom=check nosy
 mm integral(ultrafinegrid)\\Candidate Structure: Conf:617 Charge calc 
 in gas phase\\1,1\N,0,3.0735251201,4.0140254732,-2.2703813321\H,0,3.74
 99873804,4.7756137754,-2.1783732729\H,0,2.8512812988,3.581262471,-1.30
 30579164\H,0,3.4468050168,3.2649387096,-2.8679431041\C,0,1.772085102,4
 .4604839597,-2.8513622734\H,0,1.9529737368,5.0940220628,-3.7241072199\
 H,0,1.238978941,5.0271330443,-2.0852648504\C,0,1.0293506828,3.17273067
 32,-3.2489357579\O,0,1.6728231906,2.1304528517,-3.3721648489\N,0,-0.29
 33393695,3.3044270257,-3.4650558746\H,0,-0.7531424419,4.138914076,-3.1
 147492425\C,0,-1.1685411765,2.1359136811,-3.5264471337\H,0,-1.96295237
 1,2.3148968988,-4.2574962613\H,0,-0.5776240513,1.2781235862,-3.8511601
 686\C,0,-1.7817863701,1.9631463897,-2.1285730534\O,0,-2.076815292,2.96
 95385202,-1.4782594132\N,0,-1.9365761262,0.7040751529,-1.6657153646\H,
 0,-1.5538749386,-0.0709487101,-2.1914732494\C,0,-2.348361375,0.4507251
 322,-0.279842084\H,0,-2.6831988709,-0.5823471212,-0.1914215368\H,0,-3.
 1683326662,1.1287578761,-0.0315532832\C,0,-1.1318218829,0.6501327528,0
 .6381349711\O,0,-0.45319654,-0.2932735443,1.0324168843\N,0,-0.82138956
 41,1.9533632554,0.8915017879\H,0,-1.3343875924,2.6695824916,0.38456948
 03\C,0,0.4409771515,2.3022022793,1.5276232007\H,0,0.3923969662,3.33206
 84188,1.8821752048\H,0,0.605519922,1.6327507177,2.3760946931\C,0,1.597
 1396335,2.1959758342,0.5275856967\O,0,2.0472677551,3.2304980742,-0.020
 4565337\N,0,2.0395591486,0.9639679758,0.277053881\H,0,1.5417610663,0.1
 619182843,0.677022768\C,0,3.0877944654,0.6594220864,-0.6772588513\H,0,
 3.990535672,1.2376123401,-0.44085666\H,0,2.771622132,0.9165393227,-1.6
 965083275\C,0,3.3687367467,-0.8476922184,-0.6080609112\O,0,2.563791974
 9,-1.6079819193,-0.0732668995\N,0,4.507442084,-1.2625734725,-1.2075300
 823\H,0,5.2091430164,-0.5840398064,-1.4717919251\C,0,4.9040713121,-2.6
 735584798,-1.1983504244\H,0,4.005910996,-3.2744158708,-1.3637921804\H,
 0,5.6107304256,-2.8416538754,-2.0112948454\C,0,5.6057873085,-3.0444826
 337,0.1224852014\O,0,6.8235557329,-3.1081353293,0.1949101535\N,0,4.749
 3014741,-3.2541105031,1.1670825219\H,0,3.7673821838,-3.0444573896,1.01
 8196425\C,0,5.2188266282,-3.4302459148,2.5324394262\H,0,6.3092128967,-
 3.5137246116,2.4925279762\H,0,4.9704526645,-2.5650619813,3.1558944999\
 C,0,4.672557175,-4.667062208,3.2514049522\O,0,4.6463980995,-4.70984212
 21,4.4712409342\N,0,4.2372593144,-5.6802696289,2.4396924172\H,0,4.4878
 380212,-5.6198416294,1.4618155211\C,0,3.9651769456,-6.989745724,2.9894
 419089\H,0,3.6591861331,-6.8587758085,4.0310410846\H,0,3.1383466544,-7
 .4720330415,2.4589619482\C,0,5.1397339451,-7.9636953418,2.9857231845\O
 ,0,5.0444522233,-9.1177290194,3.3284072727\O,0,6.2898129619,-7.3950862
 329,2.5552112595\H,0,6.9768456286,-8.0860165247,2.6137949167\\Version=
 ES64L-G16RevC.01\HF=-1740.9699713\RMSD=6.278e-10\Dipole=-1.6804997,7.8
 391826,-5.8262846\Quadrupole=2.8103546,12.3242162,-15.1345707,28.11929
 08,-23.9613562,-10.1153295\PG=C01 [X(C16H27N8O9)]\\@
 The archive entry for this job was punched.


 IF YOU PERCEIVE THAT THERE ARE FOUR POSSIBLE WAYS IN
 WHICH A PROCEDURE CAN GO WRONG AND CIRCUMVENT THESE, 
 THEN A FIFTH WAY WILL DEVELOP.

                              -- MURPHY'S TWELFTH LAW
 Job cpu time:       0 days  0 hours  1 minutes 49.9 seconds.
 Elapsed time:       0 days  0 hours  0 minutes 27.9 seconds.
 File lengths (MBytes):  RWF=    272 Int=      0 D2E=      0 Chk=     40 Scr=     16
 Normal termination of Gaussian 16 at Mon Jul 18 21:40:15 2022.
