 Entering Gaussian System, Link 0=/opt/software/Gaussian/g16-AVX2-C.01/g16/g16
 Input=charge-conf-662.com
 Output=charge-conf-662.log
 Initial command:
 /opt/software/Gaussian/g16-AVX2-C.01/g16/l1.exe "/mnt/gs18/scratch/users/kengmith/Gau-2174.inp" -scrdir="/mnt/gs18/scratch/users/kengmith/"
 Entering Link 1 = /opt/software/Gaussian/g16-AVX2-C.01/g16/l1.exe PID=      2185.
  
 Copyright (c) 1988-2019, Gaussian, Inc.  All Rights Reserved.
  
 This is part of the Gaussian(R) 16 program.  It is based on
 the Gaussian(R) 09 system (copyright 2009, Gaussian, Inc.),
 the Gaussian(R) 03 system (copyright 2003, Gaussian, Inc.),
 the Gaussian(R) 98 system (copyright 1998, Gaussian, Inc.),
 the Gaussian(R) 94 system (copyright 1995, Gaussian, Inc.),
 the Gaussian 92(TM) system (copyright 1992, Gaussian, Inc.),
 the Gaussian 90(TM) system (copyright 1990, Gaussian, Inc.),
 the Gaussian 88(TM) system (copyright 1988, Gaussian, Inc.),
 the Gaussian 86(TM) system (copyright 1986, Carnegie Mellon
 University), and the Gaussian 82(TM) system (copyright 1983,
 Carnegie Mellon University). Gaussian is a federally registered
 trademark of Gaussian, Inc.
  
 This software contains proprietary and confidential information,
 including trade secrets, belonging to Gaussian, Inc.
  
 This software is provided under written license and may be
 used, copied, transmitted, or stored only in accord with that
 written license.
  
 The following legend is applicable only to US Government
 contracts under FAR:
  
                    RESTRICTED RIGHTS LEGEND
  
 Use, reproduction and disclosure by the US Government is
 subject to restrictions as set forth in subparagraphs (a)
 and (c) of the Commercial Computer Software - Restricted
 Rights clause in FAR 52.227-19.
  
 Gaussian, Inc.
 340 Quinnipiac St., Bldg. 40, Wallingford CT 06492
  
  
 ---------------------------------------------------------------
 Warning -- This program may not be used in any manner that
 competes with the business of Gaussian, Inc. or will provide
 assistance to any competitor of Gaussian, Inc.  The licensee
 of this program is prohibited from giving any competitor of
 Gaussian, Inc. access to this program.  By using this program,
 the user acknowledges that Gaussian, Inc. is engaged in the
 business of creating and licensing software in the field of
 computational chemistry and represents and warrants to the
 licensee that it is not a competitor of Gaussian, Inc. and that
 it will not use this program in any manner prohibited above.
 ---------------------------------------------------------------
  

 Cite this work as:
 Gaussian 16, Revision C.01,
 M. J. Frisch, G. W. Trucks, H. B. Schlegel, G. E. Scuseria, 
 M. A. Robb, J. R. Cheeseman, G. Scalmani, V. Barone, 
 G. A. Petersson, H. Nakatsuji, X. Li, M. Caricato, A. V. Marenich, 
 J. Bloino, B. G. Janesko, R. Gomperts, B. Mennucci, H. P. Hratchian, 
 J. V. Ortiz, A. F. Izmaylov, J. L. Sonnenberg, D. Williams-Young, 
 F. Ding, F. Lipparini, F. Egidi, J. Goings, B. Peng, A. Petrone, 
 T. Henderson, D. Ranasinghe, V. G. Zakrzewski, J. Gao, N. Rega, 
 G. Zheng, W. Liang, M. Hada, M. Ehara, K. Toyota, R. Fukuda, 
 J. Hasegawa, M. Ishida, T. Nakajima, Y. Honda, O. Kitao, H. Nakai, 
 T. Vreven, K. Throssell, J. A. Montgomery, Jr., J. E. Peralta, 
 F. Ogliaro, M. J. Bearpark, J. J. Heyd, E. N. Brothers, K. N. Kudin, 
 V. N. Staroverov, T. A. Keith, R. Kobayashi, J. Normand, 
 K. Raghavachari, A. P. Rendell, J. C. Burant, S. S. Iyengar, 
 J. Tomasi, M. Cossi, J. M. Millam, M. Klene, C. Adamo, R. Cammi, 
 J. W. Ochterski, R. L. Martin, K. Morokuma, O. Farkas, 
 J. B. Foresman, and D. J. Fox, Gaussian, Inc., Wallingford CT, 2019.
 
 ******************************************
 Gaussian 16:  ES64L-G16RevC.01  3-Jul-2019
                 2-Jul-2022 
 ******************************************
 %mem=8gb
 %nproc=4
 Will use up to    4 processors via shared memory.
 %chk=conf-662.chk
 -------------------------------------------------------------------
 # B3LYP/6-31G* guess=read geom=check nosymm integral(ultrafinegrid)
 -------------------------------------------------------------------
 1/29=2,38=1,172=1/1;
 2/12=2,15=1,40=1/2;
 3/5=1,6=6,7=1,11=2,14=-4,25=1,30=1,74=-5,75=-5,116=-2/1,2,3;
 4/5=1/1;
 5/5=2,38=6/2;
 6/7=2,8=2,9=2,10=2,28=1/1;
 99/5=1,9=1/99;
 ------------------------------------------------------
 Candidate Structure: Conf:662 Charge calc in gas phase
 ------------------------------------------------------
 Structure from the checkpoint file:  "conf-662.chk"
 Charge =  1 Multiplicity = 1
 Redundant internal coordinates found in file.  (old form).
 N,0,-7.7806703657,-6.4410791819,0.8290995342
 H,0,-7.5305394549,-6.535604743,1.816856674
 H,0,-8.1435907772,-7.3391018646,0.4693845193
 H,0,-8.4569721741,-5.6431124618,0.7263717211
 C,0,-6.6197321675,-6.0248573371,-0.0379171025
 H,0,-5.6933854629,-6.3529707571,0.4385761438
 C,0,-6.7630112725,-4.4830365233,-0.125059831
 C,0,-6.7971640044,-6.7184252827,-1.4129307409
 H,0,-7.606985179,-6.2027808324,-1.9514943283
 O,0,-7.886210826,-4.0151196954,0.1058757715
 C,0,-5.522121467,-6.7150853488,-2.2479914508
 H,0,-5.1945024582,-5.7009702805,-2.4997502165
 H,0,-4.7153848559,-7.234486391,-1.7198454332
 H,0,-5.7024236744,-7.240404769,-3.1922709142
 O,0,-7.2175485805,-8.0465164076,-1.0692287275
 H,0,-7.4116334214,-8.5421261754,-1.880840823
 N,0,-5.6661349231,-3.8091339756,-0.4530258986
 H,0,-4.8409362275,-4.3124286078,-0.7806266496
 C,0,-5.6320493747,-2.4023263615,-0.8674330521
 H,0,-6.648508814,-2.1168373684,-1.1585289385
 C,0,-4.7075787074,-2.3951100677,-2.1118414868
 C,0,-5.1397601886,-1.4433666415,0.2565694434
 H,0,-5.14064213,-0.4393474086,-0.190426456
 O,0,-4.0960071184,-3.4216965924,-2.4295573999
 C,0,-3.6917451096,-1.7377039863,0.7024940232
 H,0,-3.0562797378,-1.8552752583,-0.1843417053
 H,0,-3.6628020151,-2.7020228647,1.2312294988
 C,0,-6.1327121145,-1.4291740284,1.4277778676
 H,0,-6.1331641096,-2.388497519,1.9595465404
 H,0,-7.1560789889,-1.233080829,1.0899400556
 H,0,-5.8613243303,-0.6533247574,2.1486061392
 C,0,-3.0870015354,-0.6387443402,1.5859913693
 H,0,-2.0228035511,-0.8199147383,1.7692357336
 H,0,-3.5895883381,-0.5705495297,2.5574377811
 H,0,-3.171101687,0.3359571905,1.0905732162
 N,0,-4.6400403983,-1.2269475985,-2.7818338789
 H,0,-4.9666895883,-0.3959046818,-2.2939479455
 C,0,-3.5202085667,-0.9055680318,-3.674723942
 H,0,-3.0031704836,-1.8425936769,-3.8921479697
 C,0,-2.6138505317,0.0523795935,-2.8639669262
 C,0,-4.013100128,-0.2482533155,-4.9686222117
 H,0,-3.1662540189,-0.0139967066,-5.621480242
 H,0,-4.5400753514,0.6863748042,-4.7480211443
 H,0,-4.6934432115,-0.9177437808,-5.5037765151
 O,0,-3.1283131378,0.8124869435,-2.0369550967
 N,0,-1.3012871818,-0.0182875629,-3.1298009222
 H,0,-0.9171829282,-0.704189889,-3.7756969333
 C,0,-0.2721778622,0.6910824114,-2.3734623716
 H,0,-0.5700024089,1.7355955874,-2.2404606361
 C,0,1.0101621307,0.5607067658,-3.2163737568
 C,0,-0.0717749795,0.006991861,-0.9963082017
 H,0,0.3259449549,-0.9978572309,-1.1866343605
 H,0,-1.0540630161,-0.1111190093,-0.5324975729
 O,0,1.1681043813,-0.4379166961,-3.9261294513
 C,0,0.8545265587,0.7739384453,-0.0398664784
 H,0,1.7343179079,1.1355684923,-0.5712098863
 H,0,0.3393908972,1.6524084176,0.3663456854
 C,0,1.2933893883,-0.1161210512,1.1153153843
 N,0,2.6476943355,-0.2418143298,1.2384417845
 H,0,3.2621396247,0.0207351338,0.4738926326
 H,0,2.9878094426,-0.9127142777,1.9143781004
 O,0,0.5042759042,-0.6706376284,1.8783227979
 N,0,1.9049093587,1.5566927022,-3.0760355427
 H,0,1.7210463959,2.3700587328,-2.4672601291
 C,0,3.2558216591,1.4646361476,-3.5985767782
 H,0,3.300271917,0.533047876,-4.1728328474
 C,0,4.2106746736,1.2925876619,-2.3849344131
 C,0,3.582476702,2.6660378505,-4.5226182648
 H,0,4.5824268179,2.5130918078,-4.9519302086
 H,0,3.6108249354,3.5743273912,-3.9088748937
 O,0,3.9503923155,0.492694035,-1.4876120779
 C,0,2.5841080487,2.8684582468,-5.6410526477
 C,0,2.7105590019,2.199481382,-6.8658827804
 H,0,3.5492612846,1.524791331,-7.0254589151
 C,0,1.4957081566,3.7322302711,-5.4697688038
 H,0,1.3748339164,4.2567356459,-4.5248322228
 C,0,1.7871375808,2.3805018328,-7.891611389
 H,0,1.8898734129,1.8653608371,-8.8415118633
 C,0,0.5627113078,3.9246710543,-6.4880297647
 H,0,-0.27550761,4.6033580764,-6.3375010833
 O,0,-0.1732863285,3.3975397287,-8.7421726045
 H,0,-0.850586836,4.0427550461,-8.4864403954
 C,0,0.7069070105,3.2484584186,-7.7033171363
 N,0,5.3331447578,2.0675340757,-2.3393573085
 H,0,5.4772010531,2.767534487,-3.0531075865
 C,0,6.157597873,2.1329818576,-1.1352174895
 H,0,6.3398972424,1.1086756068,-0.8001768384
 C,0,5.4436749896,2.8122179425,0.0652057227
 C,0,7.4927197627,2.8204808793,-1.4331009197
 H,0,8.085739776,2.8654152415,-0.5160183126
 H,0,8.0579966313,2.2678938946,-2.1906577819
 H,0,7.3401164669,3.8469383598,-1.7902687582
 O,0,5.872546863,2.6083705259,1.2053560295
 N,0,4.4118266161,3.623111899,-0.2499099495
 H,0,4.0585648975,3.6009765495,-1.2093784128
 C,0,3.2757657155,3.9425589058,0.6142057387
 H,0,3.0933847252,3.0917784094,1.2853328664
 C,0,2.0007447971,4.065133226,-0.3122761428
 C,0,3.4571487675,5.2048748106,1.4655707479
 H,0,2.4585872542,5.5023854246,1.8042289864
 H,0,3.8496264539,6.0091656352,0.8276000541
 O,0,0.9463802606,4.3666193095,0.2570383503
 C,0,4.3894990349,4.9706096104,2.6595014034
 H,0,5.3225174352,4.5131988741,2.3081374949
 H,0,3.9274312307,4.2450847572,3.3423191368
 C,0,4.692145824,6.251383099,3.4318039392
 H,0,3.7820606238,6.6629996736,3.8850844204
 H,0,5.129793043,7.0087489506,2.7682030136
 N,0,5.6551515751,5.9453054354,4.5154845386
 H,0,6.1461945736,5.0626515955,4.4255991669
 N,0,5.5144120971,7.9961005354,5.5881915979
 H,0,5.4827487916,8.4977003541,6.4641773893
 H,0,4.9907521428,8.3823781228,4.8159586879
 N,0,6.7060615076,6.2692737423,6.5643945443
 H,0,7.20654967,6.9122639248,7.1615239577
 H,0,6.9977947943,5.3024544139,6.5928661016
 C,0,5.9577462867,6.7283789189,5.539899868
 O,0,2.2107193756,3.8069889528,-1.546691434
 Recover connectivity data from disk.
                           ----------------------------
                           !    Current Parameters    !
                           ! (Angstroms and Degrees)  !
 --------------------------                            --------------------------
 ! Name  Definition              Value                                          !
 --------------------------------------------------------------------------------
 ! R1    R(1,2)                  1.0233                                         !
 ! R2    R(1,3)                  1.0332                                         !
 ! R3    R(1,4)                  1.051                                          !
 ! R4    R(1,5)                  1.5076                                         !
 ! R5    R(5,6)                  1.0922                                         !
 ! R6    R(5,7)                  1.5509                                         !
 ! R7    R(5,8)                  1.5502                                         !
 ! R8    R(7,10)                 1.2385                                         !
 ! R9    R(7,17)                 1.3285                                         !
 ! R10   R(8,9)                  1.1008                                         !
 ! R11   R(8,11)                 1.5242                                         !
 ! R12   R(8,15)                 1.4348                                         !
 ! R13   R(11,12)                1.0951                                         !
 ! R14   R(11,13)                1.0952                                         !
 ! R15   R(11,14)                1.0955                                         !
 ! R16   R(15,16)                0.9706                                         !
 ! R17   R(17,18)                1.0206                                         !
 ! R18   R(17,19)                1.467                                          !
 ! R19   R(19,20)                1.0952                                         !
 ! R20   R(19,21)                1.5502                                         !
 ! R21   R(19,22)                1.5573                                         !
 ! R22   R(21,24)                1.2365                                         !
 ! R23   R(21,36)                1.3484                                         !
 ! R24   R(22,23)                1.099                                          !
 ! R25   R(22,25)                1.5434                                         !
 ! R26   R(22,28)                1.5355                                         !
 ! R27   R(25,26)                1.0973                                         !
 ! R28   R(25,27)                1.1001                                         !
 ! R29   R(25,32)                1.5343                                         !
 ! R30   R(28,29)                1.0968                                         !
 ! R31   R(28,30)                1.0954                                         !
 ! R32   R(28,31)                1.0932                                         !
 ! R33   R(32,33)                1.095                                          !
 ! R34   R(32,34)                1.0959                                         !
 ! R35   R(32,35)                1.0966                                         !
 ! R36   R(36,37)                1.0175                                         !
 ! R37   R(36,38)                1.4678                                         !
 ! R38   R(38,39)                1.0921                                         !
 ! R39   R(38,40)                1.5481                                         !
 ! R40   R(38,41)                1.5327                                         !
 ! R41   R(40,45)                1.2355                                         !
 ! R42   R(40,46)                1.3411                                         !
 ! R43   R(41,42)                1.0946                                         !
 ! R44   R(41,43)                1.0954                                         !
 ! R45   R(41,44)                1.0943                                         !
 ! R46   R(46,47)                1.0174                                         !
 ! R47   R(46,48)                1.4609                                         !
 ! R48   R(48,49)                1.0943                                         !
 ! R49   R(48,50)                1.5401                                         !
 ! R50   R(48,51)                1.5507                                         !
 ! R51   R(50,54)                1.2353                                         !
 ! R52   R(50,63)                1.3462                                         !
 ! R53   R(51,52)                1.0973                                         !
 ! R54   R(51,53)                1.0927                                         !
 ! R55   R(51,55)                1.5366                                         !
 ! R56   R(55,56)                1.0896                                         !
 ! R57   R(55,57)                1.0964                                         !
 ! R58   R(55,58)                1.5229                                         !
 ! R59   R(58,59)                1.3657                                         !
 ! R60   R(58,62)                1.2298                                         !
 ! R61   R(59,60)                1.0154                                         !
 ! R62   R(59,61)                1.0113                                         !
 ! R63   R(63,64)                1.0325                                         !
 ! R64   R(63,65)                1.4514                                         !
 ! R65   R(65,66)                1.0953                                         !
 ! R66   R(65,67)                1.5538                                         !
 ! R67   R(65,68)                1.5505                                         !
 ! R68   R(67,71)                1.2299                                         !
 ! R69   R(67,84)                1.3648                                         !
 ! R70   R(68,69)                1.0989                                         !
 ! R71   R(68,70)                1.0966                                         !
 ! R72   R(68,72)                1.5128                                         !
 ! R73   R(72,73)                1.4013                                         !
 ! R74   R(72,75)                1.4                                            !
 ! R75   R(73,74)                1.0882                                         !
 ! R76   R(73,77)                1.392                                          !
 ! R77   R(75,76)                1.0875                                         !
 ! R78   R(75,79)                1.3944                                         !
 ! R79   R(77,78)                1.0855                                         !
 ! R80   R(77,83)                1.3985                                         !
 ! R81   R(79,80)                1.089                                          !
 ! R82   R(79,83)                1.3982                                         !
 ! R83   R(81,82)                0.9698                                         !
 ! R84   R(81,83)                1.3697                                         !
 ! R85   R(84,85)                1.01                                           !
 ! R86   R(84,86)                1.4608                                         !
 ! R87   R(86,87)                1.093                                          !
 ! R88   R(86,88)                1.5531                                         !
 ! R89   R(86,89)                1.531                                          !
 ! R90   R(88,93)                1.2351                                         !
 ! R91   R(88,94)                1.3497                                         !
 ! R92   R(89,90)                1.093                                          !
 ! R93   R(89,91)                1.0949                                         !
 ! R94   R(89,92)                1.0975                                         !
 ! R95   R(94,95)                1.0227                                         !
 ! R96   R(94,96)                1.4627                                         !
 ! R97   R(96,97)                1.0989                                         !
 ! R98   R(96,98)                1.5808                                         !
 ! R99   R(96,99)                1.5334                                         !
 ! R100  R(98,102)               1.2356                                         !
 ! R101  R(98,118)               1.2785                                         !
 ! R102  R(99,100)               1.0956                                         !
 ! R103  R(99,101)               1.0991                                         !
 ! R104  R(99,103)               1.5328                                         !
 ! R105  R(103,104)              1.0969                                         !
 ! R106  R(103,105)              1.0982                                         !
 ! R107  R(103,106)              1.5259                                         !
 ! R108  R(106,107)              1.0969                                         !
 ! R109  R(106,108)              1.098                                          !
 ! R110  R(106,109)              1.4817                                         !
 ! R111  R(109,110)              1.014                                          !
 ! R112  R(109,117)              1.3245                                         !
 ! R113  R(111,112)              1.0099                                         !
 ! R114  R(111,113)              1.0098                                         !
 ! R115  R(111,117)              1.3439                                         !
 ! R116  R(114,115)              1.0102                                         !
 ! R117  R(114,116)              1.0103                                         !
 ! R118  R(114,117)              1.3492                                         !
 ! A1    A(2,1,3)              109.9759                                         !
 ! A2    A(2,1,4)              108.7692                                         !
 ! A3    A(2,1,5)              113.104                                          !
 ! A4    A(3,1,4)              113.5673                                         !
 ! A5    A(3,1,5)              108.073                                          !
 ! A6    A(4,1,5)              103.2789                                         !
 ! A7    A(1,5,6)              108.6209                                         !
 ! A8    A(1,5,7)              103.6295                                         !
 ! A9    A(1,5,8)              107.3646                                         !
 ! A10   A(6,5,7)              113.6742                                         !
 ! A11   A(6,5,8)              110.4655                                         !
 ! A12   A(7,5,8)              112.6043                                         !
 ! A13   A(5,7,10)             116.6734                                         !
 ! A14   A(5,7,17)             116.2248                                         !
 ! A15   A(10,7,17)            127.0983                                         !
 ! A16   A(5,8,9)              107.9737                                         !
 ! A17   A(5,8,11)             112.9067                                         !
 ! A18   A(5,8,15)             103.6026                                         !
 ! A19   A(9,8,11)             110.2642                                         !
 ! A20   A(9,8,15)             109.5872                                         !
 ! A21   A(11,8,15)            112.2329                                         !
 ! A22   A(8,11,12)            112.2266                                         !
 ! A23   A(8,11,13)            110.5457                                         !
 ! A24   A(8,11,14)            109.4824                                         !
 ! A25   A(12,11,13)           109.2492                                         !
 ! A26   A(12,11,14)           107.1666                                         !
 ! A27   A(13,11,14)           108.0277                                         !
 ! A28   A(8,15,16)            109.3254                                         !
 ! A29   A(7,17,18)            119.7809                                         !
 ! A30   A(7,17,19)            125.1274                                         !
 ! A31   A(18,17,19)           111.3126                                         !
 ! A32   A(17,19,20)           107.6683                                         !
 ! A33   A(17,19,21)           104.1867                                         !
 ! A34   A(17,19,22)           113.2017                                         !
 ! A35   A(20,19,21)           109.8099                                         !
 ! A36   A(20,19,22)           108.9477                                         !
 ! A37   A(21,19,22)           112.829                                          !
 ! A38   A(19,21,24)           119.8252                                         !
 ! A39   A(19,21,36)           115.6436                                         !
 ! A40   A(24,21,36)           124.5309                                         !
 ! A41   A(19,22,23)           105.5889                                         !
 ! A42   A(19,22,25)           112.8088                                         !
 ! A43   A(19,22,28)           110.5961                                         !
 ! A44   A(23,22,25)           107.0062                                         !
 ! A45   A(23,22,28)           107.5331                                         !
 ! A46   A(25,22,28)           112.8339                                         !
 ! A47   A(22,25,26)           109.2831                                         !
 ! A48   A(22,25,27)           109.3109                                         !
 ! A49   A(22,25,32)           113.5507                                         !
 ! A50   A(26,25,27)           106.2164                                         !
 ! A51   A(26,25,32)           108.2926                                         !
 ! A52   A(27,25,32)           109.9208                                         !
 ! A53   A(22,28,29)           111.221                                          !
 ! A54   A(22,28,30)           111.7492                                         !
 ! A55   A(22,28,31)           110.4226                                         !
 ! A56   A(29,28,30)           107.8011                                         !
 ! A57   A(29,28,31)           107.5258                                         !
 ! A58   A(30,28,31)           107.9526                                         !
 ! A59   A(25,32,33)           111.158                                          !
 ! A60   A(25,32,34)           111.9788                                         !
 ! A61   A(25,32,35)           110.2593                                         !
 ! A62   A(33,32,34)           107.9194                                         !
 ! A63   A(33,32,35)           107.29                                           !
 ! A64   A(34,32,35)           108.0588                                         !
 ! A65   A(21,36,37)           116.9523                                         !
 ! A66   A(21,36,38)           122.0166                                         !
 ! A67   A(37,36,38)           110.9627                                         !
 ! A68   A(36,38,39)           107.1242                                         !
 ! A69   A(36,38,40)           105.2822                                         !
 ! A70   A(36,38,41)           111.2281                                         !
 ! A71   A(39,38,40)           110.9792                                         !
 ! A72   A(39,38,41)           110.619                                          !
 ! A73   A(40,38,41)           111.4092                                         !
 ! A74   A(38,40,45)           119.1758                                         !
 ! A75   A(38,40,46)           115.8878                                         !
 ! A76   A(45,40,46)           124.9364                                         !
 ! A77   A(38,41,42)           110.272                                          !
 ! A78   A(38,41,43)           110.5248                                         !
 ! A79   A(38,41,44)           110.512                                          !
 ! A80   A(42,41,43)           108.0408                                         !
 ! A81   A(42,41,44)           108.6772                                         !
 ! A82   A(43,41,44)           108.7476                                         !
 ! A83   A(40,46,47)           122.0633                                         !
 ! A84   A(40,46,48)           124.1412                                         !
 ! A85   A(47,46,48)           112.9583                                         !
 ! A86   A(46,48,49)           109.5537                                         !
 ! A87   A(46,48,50)           105.1931                                         !
 ! A88   A(46,48,51)           109.6698                                         !
 ! A89   A(49,48,50)           111.9593                                         !
 ! A90   A(49,48,51)           110.3849                                         !
 ! A91   A(50,48,51)           109.9444                                         !
 ! A92   A(48,50,54)           119.2986                                         !
 ! A93   A(48,50,63)           115.704                                          !
 ! A94   A(54,50,63)           124.961                                          !
 ! A95   A(48,51,52)           107.264                                          !
 ! A96   A(48,51,53)           107.9671                                         !
 ! A97   A(48,51,55)           114.2367                                         !
 ! A98   A(52,51,53)           107.4855                                         !
 ! A99   A(52,51,55)           110.2754                                         !
 ! A100  A(53,51,55)           109.3704                                         !
 ! A101  A(51,55,56)           110.4195                                         !
 ! A102  A(51,55,57)           110.3222                                         !
 ! A103  A(51,55,58)           110.7421                                         !
 ! A104  A(56,55,57)           107.1057                                         !
 ! A105  A(56,55,58)           109.3418                                         !
 ! A106  A(57,55,58)           108.8227                                         !
 ! A107  A(55,58,59)           114.0761                                         !
 ! A108  A(55,58,62)           123.3152                                         !
 ! A109  A(59,58,62)           122.6077                                         !
 ! A110  A(58,59,60)           120.5578                                         !
 ! A111  A(58,59,61)           117.0547                                         !
 ! A112  A(60,59,61)           118.1188                                         !
 ! A113  A(50,63,64)           121.7325                                         !
 ! A114  A(50,63,65)           122.2884                                         !
 ! A115  A(64,63,65)           115.3414                                         !
 ! A116  A(63,65,66)           106.2895                                         !
 ! A117  A(63,65,67)           107.3256                                         !
 ! A118  A(63,65,68)           111.1938                                         !
 ! A119  A(66,65,67)           106.8824                                         !
 ! A120  A(66,65,68)           109.7578                                         !
 ! A121  A(67,65,68)           114.9507                                         !
 ! A122  A(65,67,71)           120.7847                                         !
 ! A123  A(65,67,84)           117.9462                                         !
 ! A124  A(71,67,84)           121.2635                                         !
 ! A125  A(65,68,69)           108.4632                                         !
 ! A126  A(65,68,70)           108.2826                                         !
 ! A127  A(65,68,72)           113.907                                          !
 ! A128  A(69,68,70)           108.0842                                         !
 ! A129  A(69,68,72)           109.2875                                         !
 ! A130  A(70,68,72)           108.6638                                         !
 ! A131  A(68,72,73)           121.5177                                         !
 ! A132  A(68,72,75)           120.3415                                         !
 ! A133  A(73,72,75)           118.1395                                         !
 ! A134  A(72,73,74)           119.5854                                         !
 ! A135  A(72,73,77)           121.4753                                         !
 ! A136  A(74,73,77)           118.939                                          !
 ! A137  A(72,75,76)           119.3596                                         !
 ! A138  A(72,75,79)           121.0627                                         !
 ! A139  A(76,75,79)           119.5769                                         !
 ! A140  A(73,77,78)           121.3558                                         !
 ! A141  A(73,77,83)           119.5989                                         !
 ! A142  A(78,77,83)           119.0443                                         !
 ! A143  A(75,79,80)           120.0062                                         !
 ! A144  A(75,79,83)           119.9315                                         !
 ! A145  A(80,79,83)           120.0621                                         !
 ! A146  A(82,81,83)           108.7364                                         !
 ! A147  A(77,83,79)           119.7921                                         !
 ! A148  A(77,83,81)           117.5035                                         !
 ! A149  A(79,83,81)           122.7043                                         !
 ! A150  A(67,84,85)           119.1587                                         !
 ! A151  A(67,84,86)           121.1416                                         !
 ! A152  A(85,84,86)           118.0958                                         !
 ! A153  A(84,86,87)           107.747                                          !
 ! A154  A(84,86,88)           113.4084                                         !
 ! A155  A(84,86,89)           110.6043                                         !
 ! A156  A(87,86,88)           104.4537                                         !
 ! A157  A(87,86,89)           109.5737                                         !
 ! A158  A(88,86,89)           110.7853                                         !
 ! A159  A(86,88,93)           118.7976                                         !
 ! A160  A(86,88,94)           115.7053                                         !
 ! A161  A(93,88,94)           125.4628                                         !
 ! A162  A(86,89,90)           109.1683                                         !
 ! A163  A(86,89,91)           110.991                                          !
 ! A164  A(86,89,92)           111.2264                                         !
 ! A165  A(90,89,91)           108.7332                                         !
 ! A166  A(90,89,92)           108.0619                                         !
 ! A167  A(91,89,92)           108.5812                                         !
 ! A168  A(88,94,95)           118.0431                                         !
 ! A169  A(88,94,96)           125.9515                                         !
 ! A170  A(95,94,96)           106.8998                                         !
 ! A171  A(94,96,97)           108.7014                                         !
 ! A172  A(94,96,98)           107.2862                                         !
 ! A173  A(94,96,99)           114.5785                                         !
 ! A174  A(97,96,98)           106.5055                                         !
 ! A175  A(97,96,99)           108.5366                                         !
 ! A176  A(98,96,99)           110.9148                                         !
 ! A177  A(96,98,102)          115.9206                                         !
 ! A178  A(96,98,118)          114.6924                                         !
 ! A179  A(102,98,118)         129.3678                                         !
 ! A180  A(96,99,100)          106.7002                                         !
 ! A181  A(96,99,101)          108.8078                                         !
 ! A182  A(96,99,103)          112.2472                                         !
 ! A183  A(100,99,101)         107.8294                                         !
 ! A184  A(100,99,103)         110.8004                                         !
 ! A185  A(101,99,103)         110.2893                                         !
 ! A186  A(99,103,104)         109.366                                          !
 ! A187  A(99,103,105)         109.2276                                         !
 ! A188  A(99,103,106)         112.7418                                         !
 ! A189  A(104,103,105)        106.3526                                         !
 ! A190  A(104,103,106)        110.0858                                         !
 ! A191  A(105,103,106)        108.8604                                         !
 ! A192  A(103,106,107)        111.0735                                         !
 ! A193  A(103,106,108)        110.6181                                         !
 ! A194  A(103,106,109)        109.0073                                         !
 ! A195  A(107,106,108)        108.7616                                         !
 ! A196  A(107,106,109)        108.3326                                         !
 ! A197  A(108,106,109)        108.9941                                         !
 ! A198  A(106,109,110)        115.4487                                         !
 ! A199  A(106,109,117)        126.3023                                         !
 ! A200  A(110,109,117)        118.2006                                         !
 ! A201  A(112,111,113)        117.1968                                         !
 ! A202  A(112,111,117)        120.6662                                         !
 ! A203  A(113,111,117)        120.2934                                         !
 ! A204  A(115,114,116)        116.7052                                         !
 ! A205  A(115,114,117)        120.4672                                         !
 ! A206  A(116,114,117)        120.4776                                         !
 ! A207  A(109,117,111)        120.6746                                         !
 ! A208  A(109,117,114)        120.8534                                         !
 ! A209  A(111,117,114)        118.4689                                         !
 ! D1    D(2,1,5,6)             26.2886                                         !
 ! D2    D(2,1,5,7)            -94.8889                                         !
 ! D3    D(2,1,5,8)            145.7567                                         !
 ! D4    D(3,1,5,6)            -95.7106                                         !
 ! D5    D(3,1,5,7)            143.1118                                         !
 ! D6    D(3,1,5,8)             23.7575                                         !
 ! D7    D(4,1,5,6)            143.6826                                         !
 ! D8    D(4,1,5,7)             22.505                                          !
 ! D9    D(4,1,5,8)            -96.8494                                         !
 ! D10   D(1,5,7,10)           -21.6593                                         !
 ! D11   D(1,5,7,17)           158.9691                                         !
 ! D12   D(6,5,7,10)          -139.3731                                         !
 ! D13   D(6,5,7,17)            41.2554                                         !
 ! D14   D(8,5,7,10)            94.0373                                         !
 ! D15   D(8,5,7,17)           -85.3343                                         !
 ! D16   D(1,5,8,9)             74.1523                                         !
 ! D17   D(1,5,8,11)          -163.6818                                         !
 ! D18   D(1,5,8,15)           -42.0226                                         !
 ! D19   D(6,5,8,9)           -167.5671                                         !
 ! D20   D(6,5,8,11)           -45.4012                                         !
 ! D21   D(6,5,8,15)            76.258                                          !
 ! D22   D(7,5,8,9)            -39.278                                          !
 ! D23   D(7,5,8,11)            82.8879                                         !
 ! D24   D(7,5,8,15)          -155.4529                                         !
 ! D25   D(5,7,17,18)           10.1534                                         !
 ! D26   D(5,7,17,19)          166.3042                                         !
 ! D27   D(10,7,17,18)        -169.1425                                         !
 ! D28   D(10,7,17,19)         -12.9917                                         !
 ! D29   D(5,8,11,12)          -62.6396                                         !
 ! D30   D(5,8,11,13)           59.6017                                         !
 ! D31   D(5,8,11,14)          178.494                                          !
 ! D32   D(9,8,11,12)           58.2315                                         !
 ! D33   D(9,8,11,13)         -179.5272                                         !
 ! D34   D(9,8,11,14)          -60.6349                                         !
 ! D35   D(15,8,11,12)        -179.2903                                         !
 ! D36   D(15,8,11,13)         -57.049                                          !
 ! D37   D(15,8,11,14)          61.8432                                         !
 ! D38   D(5,8,15,16)          176.2537                                         !
 ! D39   D(9,8,15,16)           61.2239                                         !
 ! D40   D(11,8,15,16)         -61.6369                                         !
 ! D41   D(7,17,19,20)         -17.5318                                         !
 ! D42   D(7,17,19,21)        -134.1079                                         !
 ! D43   D(7,17,19,22)         102.9524                                         !
 ! D44   D(18,17,19,20)        140.3393                                         !
 ! D45   D(18,17,19,21)         23.7631                                         !
 ! D46   D(18,17,19,22)        -99.1766                                         !
 ! D47   D(17,19,21,24)         -7.4324                                         !
 ! D48   D(17,19,21,36)        172.3843                                         !
 ! D49   D(20,19,21,24)       -122.5074                                         !
 ! D50   D(20,19,21,36)         57.3093                                         !
 ! D51   D(22,19,21,24)        115.7505                                         !
 ! D52   D(22,19,21,36)        -64.4328                                         !
 ! D53   D(17,19,22,23)        178.7132                                         !
 ! D54   D(17,19,22,25)         62.1789                                         !
 ! D55   D(17,19,22,28)        -65.2491                                         !
 ! D56   D(20,19,22,23)        -61.5324                                         !
 ! D57   D(20,19,22,25)       -178.0667                                         !
 ! D58   D(20,19,22,28)         54.5053                                         !
 ! D59   D(21,19,22,23)         60.6953                                         !
 ! D60   D(21,19,22,25)        -55.8389                                         !
 ! D61   D(21,19,22,28)        176.733                                          !
 ! D62   D(19,21,36,37)         16.9498                                         !
 ! D63   D(19,21,36,38)        159.256                                          !
 ! D64   D(24,21,36,37)       -163.2432                                         !
 ! D65   D(24,21,36,38)        -20.937                                          !
 ! D66   D(19,22,25,26)         46.925                                          !
 ! D67   D(19,22,25,27)        -68.9302                                         !
 ! D68   D(19,22,25,32)        167.938                                          !
 ! D69   D(23,22,25,26)        -68.7638                                         !
 ! D70   D(23,22,25,27)        175.381                                          !
 ! D71   D(23,22,25,32)         52.2492                                         !
 ! D72   D(28,22,25,26)        173.163                                          !
 ! D73   D(28,22,25,27)         57.3078                                         !
 ! D74   D(28,22,25,32)        -65.824                                          !
 ! D75   D(19,22,28,29)         68.761                                          !
 ! D76   D(19,22,28,30)        -51.7693                                         !
 ! D77   D(19,22,28,31)       -171.9452                                         !
 ! D78   D(23,22,28,29)       -176.4172                                         !
 ! D79   D(23,22,28,30)         63.0524                                         !
 ! D80   D(23,22,28,31)        -57.1235                                         !
 ! D81   D(25,22,28,29)        -58.6531                                         !
 ! D82   D(25,22,28,30)       -179.1834                                         !
 ! D83   D(25,22,28,31)         60.6407                                         !
 ! D84   D(22,25,32,33)       -172.4536                                         !
 ! D85   D(22,25,32,34)         66.7506                                         !
 ! D86   D(22,25,32,35)        -53.6007                                         !
 ! D87   D(26,25,32,33)        -50.8862                                         !
 ! D88   D(26,25,32,34)       -171.682                                          !
 ! D89   D(26,25,32,35)         67.9667                                         !
 ! D90   D(27,25,32,33)         64.7498                                         !
 ! D91   D(27,25,32,34)        -56.046                                          !
 ! D92   D(27,25,32,35)       -176.3974                                         !
 ! D93   D(21,36,38,39)         16.5288                                         !
 ! D94   D(21,36,38,40)       -101.6714                                         !
 ! D95   D(21,36,38,41)        137.5256                                         !
 ! D96   D(37,36,38,39)        160.8204                                         !
 ! D97   D(37,36,38,40)         42.6202                                         !
 ! D98   D(37,36,38,41)        -78.1827                                         !
 ! D99   D(36,38,40,45)        -31.4322                                         !
 ! D100  D(36,38,40,46)        148.5886                                         !
 ! D101  D(39,38,40,45)       -147.0064                                         !
 ! D102  D(39,38,40,46)         33.0145                                         !
 ! D103  D(41,38,40,45)         89.252                                          !
 ! D104  D(41,38,40,46)        -90.7272                                         !
 ! D105  D(36,38,41,42)        179.9089                                         !
 ! D106  D(36,38,41,43)         60.5157                                         !
 ! D107  D(36,38,41,44)        -59.9139                                         !
 ! D108  D(39,38,41,42)        -61.1671                                         !
 ! D109  D(39,38,41,43)        179.4397                                         !
 ! D110  D(39,38,41,44)         59.0101                                         !
 ! D111  D(40,38,41,42)         62.7786                                         !
 ! D112  D(40,38,41,43)        -56.6146                                         !
 ! D113  D(40,38,41,44)       -177.0442                                         !
 ! D114  D(38,40,46,47)         -4.1837                                         !
 ! D115  D(38,40,46,48)       -172.9613                                         !
 ! D116  D(45,40,46,47)        175.8385                                         !
 ! D117  D(45,40,46,48)          7.0608                                         !
 ! D118  D(40,46,48,49)        -47.3297                                         !
 ! D119  D(40,46,48,50)       -167.8378                                         !
 ! D120  D(40,46,48,51)         73.9696                                         !
 ! D121  D(47,46,48,49)        142.9887                                         !
 ! D122  D(47,46,48,50)         22.4807                                         !
 ! D123  D(47,46,48,51)        -95.712                                          !
 ! D124  D(46,48,50,54)        -30.0918                                         !
 ! D125  D(46,48,50,63)        151.9951                                         !
 ! D126  D(49,48,50,54)       -149.0019                                         !
 ! D127  D(49,48,50,63)         33.085                                          !
 ! D128  D(51,48,50,54)         87.9156                                         !
 ! D129  D(51,48,50,63)        -89.9974                                         !
 ! D130  D(46,48,51,52)         65.0712                                         !
 ! D131  D(46,48,51,53)        -50.4948                                         !
 ! D132  D(46,48,51,55)       -172.3902                                         !
 ! D133  D(49,48,51,52)       -174.1312                                         !
 ! D134  D(49,48,51,53)         70.3028                                         !
 ! D135  D(49,48,51,55)        -51.5926                                         !
 ! D136  D(50,48,51,52)        -50.1289                                         !
 ! D137  D(50,48,51,53)       -165.6949                                         !
 ! D138  D(50,48,51,55)         72.4097                                         !
 ! D139  D(48,50,63,64)         -2.1752                                         !
 ! D140  D(48,50,63,65)        168.2423                                         !
 ! D141  D(54,50,63,64)       -179.9545                                         !
 ! D142  D(54,50,63,65)         -9.5369                                         !
 ! D143  D(48,51,55,56)        -43.6456                                         !
 ! D144  D(48,51,55,57)         74.5554                                         !
 ! D145  D(48,51,55,58)       -164.9035                                         !
 ! D146  D(52,51,55,56)         77.2364                                         !
 ! D147  D(52,51,55,57)       -164.5626                                         !
 ! D148  D(52,51,55,58)        -44.0215                                         !
 ! D149  D(53,51,55,56)       -164.7675                                         !
 ! D150  D(53,51,55,57)        -46.5666                                         !
 ! D151  D(53,51,55,58)         73.9746                                         !
 ! D152  D(51,55,58,59)        122.8791                                         !
 ! D153  D(51,55,58,62)        -57.4729                                         !
 ! D154  D(56,55,58,59)          0.9871                                         !
 ! D155  D(56,55,58,62)       -179.3649                                         !
 ! D156  D(57,55,58,59)       -115.6918                                         !
 ! D157  D(57,55,58,62)         63.9561                                         !
 ! D158  D(55,58,59,60)        -16.1197                                         !
 ! D159  D(55,58,59,61)       -172.4824                                         !
 ! D160  D(62,58,59,60)        164.2295                                         !
 ! D161  D(62,58,59,61)          7.8669                                         !
 ! D162  D(50,63,65,66)          6.1233                                         !
 ! D163  D(50,63,65,67)       -107.9618                                         !
 ! D164  D(50,63,65,68)        125.5323                                         !
 ! D165  D(64,63,65,66)        177.1104                                         !
 ! D166  D(64,63,65,67)         63.0253                                         !
 ! D167  D(64,63,65,68)        -63.4805                                         !
 ! D168  D(63,65,67,71)         45.8924                                         !
 ! D169  D(63,65,67,84)       -133.261                                          !
 ! D170  D(66,65,67,71)        -67.794                                          !
 ! D171  D(66,65,67,84)        113.0526                                         !
 ! D172  D(68,65,67,71)        170.1441                                         !
 ! D173  D(68,65,67,84)         -9.0093                                         !
 ! D174  D(63,65,68,69)       -175.7602                                         !
 ! D175  D(63,65,68,70)         67.1771                                         !
 ! D176  D(63,65,68,72)        -53.8277                                         !
 ! D177  D(66,65,68,69)        -58.4418                                         !
 ! D178  D(66,65,68,70)       -175.5045                                         !
 ! D179  D(66,65,68,72)         63.4906                                         !
 ! D180  D(67,65,68,69)         62.0526                                         !
 ! D181  D(67,65,68,70)        -55.0101                                         !
 ! D182  D(67,65,68,72)       -176.0149                                         !
 ! D183  D(65,67,84,85)          4.1832                                         !
 ! D184  D(65,67,84,86)        169.4707                                         !
 ! D185  D(71,67,84,85)       -174.9659                                         !
 ! D186  D(71,67,84,86)         -9.6785                                         !
 ! D187  D(65,68,72,73)        -86.9227                                         !
 ! D188  D(65,68,72,75)         92.6627                                         !
 ! D189  D(69,68,72,73)         34.5536                                         !
 ! D190  D(69,68,72,75)       -145.861                                          !
 ! D191  D(70,68,72,73)        152.2853                                         !
 ! D192  D(70,68,72,75)        -28.1293                                         !
 ! D193  D(68,72,73,74)         -0.5865                                         !
 ! D194  D(68,72,73,77)        179.624                                          !
 ! D195  D(75,72,73,74)        179.8193                                         !
 ! D196  D(75,72,73,77)          0.0297                                         !
 ! D197  D(68,72,75,76)          0.0171                                         !
 ! D198  D(68,72,75,79)       -179.6654                                         !
 ! D199  D(73,72,75,76)        179.6162                                         !
 ! D200  D(73,72,75,79)         -0.0662                                         !
 ! D201  D(72,73,77,78)        179.6704                                         !
 ! D202  D(72,73,77,83)          0.0427                                         !
 ! D203  D(74,73,77,78)         -0.1205                                         !
 ! D204  D(74,73,77,83)       -179.7482                                         !
 ! D205  D(72,75,79,80)       -179.7832                                         !
 ! D206  D(72,75,79,83)          0.0301                                         !
 ! D207  D(76,75,79,80)          0.5351                                         !
 ! D208  D(76,75,79,83)       -179.6517                                         !
 ! D209  D(73,77,83,79)         -0.0796                                         !
 ! D210  D(73,77,83,81)        179.8058                                         !
 ! D211  D(78,77,83,79)       -179.7159                                         !
 ! D212  D(78,77,83,81)          0.1695                                         !
 ! D213  D(75,79,83,77)          0.0439                                         !
 ! D214  D(75,79,83,81)       -179.8353                                         !
 ! D215  D(80,79,83,77)        179.857                                          !
 ! D216  D(80,79,83,81)         -0.0222                                         !
 ! D217  D(82,81,83,77)       -178.2707                                         !
 ! D218  D(82,81,83,79)          1.6111                                         !
 ! D219  D(67,84,86,87)         48.2919                                         !
 ! D220  D(67,84,86,88)        -66.8033                                         !
 ! D221  D(67,84,86,89)        168.0357                                         !
 ! D222  D(85,84,86,87)       -146.2691                                         !
 ! D223  D(85,84,86,88)         98.6357                                         !
 ! D224  D(85,84,86,89)        -26.5254                                         !
 ! D225  D(84,86,88,93)        160.5149                                         !
 ! D226  D(84,86,88,94)        -21.4998                                         !
 ! D227  D(87,86,88,93)         43.4761                                         !
 ! D228  D(87,86,88,94)       -138.5386                                         !
 ! D229  D(89,86,88,93)        -74.4212                                         !
 ! D230  D(89,86,88,94)        103.5641                                         !
 ! D231  D(84,86,89,90)        179.4576                                         !
 ! D232  D(84,86,89,91)        -60.7041                                         !
 ! D233  D(84,86,89,92)         60.3042                                         !
 ! D234  D(87,86,89,90)        -61.9029                                         !
 ! D235  D(87,86,89,91)         57.9355                                         !
 ! D236  D(87,86,89,92)        178.9438                                         !
 ! D237  D(88,86,89,90)         52.8249                                         !
 ! D238  D(88,86,89,91)        172.6633                                         !
 ! D239  D(88,86,89,92)        -66.3284                                         !
 ! D240  D(86,88,94,95)         11.3286                                         !
 ! D241  D(86,88,94,96)        153.8137                                         !
 ! D242  D(93,88,94,95)       -170.8391                                         !
 ! D243  D(93,88,94,96)        -28.354                                          !
 ! D244  D(88,94,96,97)        -29.2317                                         !
 ! D245  D(88,94,96,98)       -144.0332                                         !
 ! D246  D(88,94,96,99)         92.3625                                         !
 ! D247  D(95,94,96,97)        116.5928                                         !
 ! D248  D(95,94,96,98)          1.7913                                         !
 ! D249  D(95,94,96,99)       -121.813                                          !
 ! D250  D(94,96,98,102)      -178.2913                                         !
 ! D251  D(94,96,98,118)         3.1484                                         !
 ! D252  D(97,96,98,102)        65.4484                                         !
 ! D253  D(97,96,98,118)      -113.1119                                         !
 ! D254  D(99,96,98,102)       -52.4692                                         !
 ! D255  D(99,96,98,118)       128.9705                                         !
 ! D256  D(94,96,99,100)       162.4115                                         !
 ! D257  D(94,96,99,101)        46.3155                                         !
 ! D258  D(94,96,99,103)       -76.035                                          !
 ! D259  D(97,96,99,100)       -75.9041                                         !
 ! D260  D(97,96,99,101)       167.9998                                         !
 ! D261  D(97,96,99,103)        45.6493                                         !
 ! D262  D(98,96,99,100)        40.7708                                         !
 ! D263  D(98,96,99,101)       -75.3253                                         !
 ! D264  D(98,96,99,103)       162.3243                                         !
 ! D265  D(96,99,103,104)       51.2903                                         !
 ! D266  D(96,99,103,105)      -64.7279                                         !
 ! D267  D(96,99,103,106)      174.1129                                         !
 ! D268  D(100,99,103,104)     170.4674                                         !
 ! D269  D(100,99,103,105)      54.4492                                         !
 ! D270  D(100,99,103,106)     -66.7099                                         !
 ! D271  D(101,99,103,104)     -70.216                                          !
 ! D272  D(101,99,103,105)     173.7659                                         !
 ! D273  D(101,99,103,106)      52.6067                                         !
 ! D274  D(99,103,106,107)      63.86                                           !
 ! D275  D(99,103,106,108)     -57.0206                                         !
 ! D276  D(99,103,106,109)    -176.8486                                         !
 ! D277  D(104,103,106,107)   -173.7206                                         !
 ! D278  D(104,103,106,108)     65.3989                                         !
 ! D279  D(104,103,106,109)    -54.4292                                         !
 ! D280  D(105,103,106,107)    -57.5079                                         !
 ! D281  D(105,103,106,108)   -178.3885                                         !
 ! D282  D(105,103,106,109)     61.7834                                         !
 ! D283  D(103,106,109,110)     16.3143                                         !
 ! D284  D(103,106,109,117)   -166.2764                                         !
 ! D285  D(107,106,109,110)    137.2967                                         !
 ! D286  D(107,106,109,117)    -45.294                                          !
 ! D287  D(108,106,109,110)   -104.5135                                         !
 ! D288  D(108,106,109,117)     72.8958                                         !
 ! D289  D(106,109,117,111)     -8.7731                                         !
 ! D290  D(106,109,117,114)    170.5688                                         !
 ! D291  D(110,109,117,111)    168.5724                                         !
 ! D292  D(110,109,117,114)    -12.0857                                         !
 ! D293  D(112,111,117,109)    160.4534                                         !
 ! D294  D(112,111,117,114)    -18.9039                                         !
 ! D295  D(113,111,117,109)     -3.657                                          !
 ! D296  D(113,111,117,114)    176.9857                                         !
 ! D297  D(115,114,117,109)    158.1274                                         !
 ! D298  D(115,114,117,111)    -22.5165                                         !
 ! D299  D(116,114,117,109)     -3.8987                                         !
 ! D300  D(116,114,117,111)    175.4574                                         !
 --------------------------------------------------------------------------------
 Symmetry turned off by external request.
 Stoichiometry    C36H60N11O11(1+)
 Framework group  C1[X(C36H60N11O11)]
 Deg. of freedom   348
 Full point group                 C1      NOp   1
                          Input orientation:                          
 ---------------------------------------------------------------------
 Center     Atomic      Atomic             Coordinates (Angstroms)
 Number     Number       Type             X           Y           Z
 ---------------------------------------------------------------------
      1          7           0       -7.780670   -6.441079    0.829100
      2          1           0       -7.530539   -6.535605    1.816857
      3          1           0       -8.143591   -7.339102    0.469385
      4          1           0       -8.456972   -5.643112    0.726372
      5          6           0       -6.619732   -6.024857   -0.037917
      6          1           0       -5.693385   -6.352971    0.438576
      7          6           0       -6.763011   -4.483037   -0.125060
      8          6           0       -6.797164   -6.718425   -1.412931
      9          1           0       -7.606985   -6.202781   -1.951494
     10          8           0       -7.886211   -4.015120    0.105876
     11          6           0       -5.522121   -6.715085   -2.247991
     12          1           0       -5.194502   -5.700970   -2.499750
     13          1           0       -4.715385   -7.234486   -1.719845
     14          1           0       -5.702424   -7.240405   -3.192271
     15          8           0       -7.217549   -8.046516   -1.069229
     16          1           0       -7.411633   -8.542126   -1.880841
     17          7           0       -5.666135   -3.809134   -0.453026
     18          1           0       -4.840936   -4.312429   -0.780627
     19          6           0       -5.632049   -2.402326   -0.867433
     20          1           0       -6.648509   -2.116837   -1.158529
     21          6           0       -4.707579   -2.395110   -2.111841
     22          6           0       -5.139760   -1.443367    0.256569
     23          1           0       -5.140642   -0.439347   -0.190426
     24          8           0       -4.096007   -3.421697   -2.429557
     25          6           0       -3.691745   -1.737704    0.702494
     26          1           0       -3.056280   -1.855275   -0.184342
     27          1           0       -3.662802   -2.702023    1.231229
     28          6           0       -6.132712   -1.429174    1.427778
     29          1           0       -6.133164   -2.388498    1.959547
     30          1           0       -7.156079   -1.233081    1.089940
     31          1           0       -5.861324   -0.653325    2.148606
     32          6           0       -3.087002   -0.638744    1.585991
     33          1           0       -2.022804   -0.819915    1.769236
     34          1           0       -3.589588   -0.570550    2.557438
     35          1           0       -3.171102    0.335957    1.090573
     36          7           0       -4.640040   -1.226948   -2.781834
     37          1           0       -4.966690   -0.395905   -2.293948
     38          6           0       -3.520209   -0.905568   -3.674724
     39          1           0       -3.003170   -1.842594   -3.892148
     40          6           0       -2.613851    0.052380   -2.863967
     41          6           0       -4.013100   -0.248253   -4.968622
     42          1           0       -3.166254   -0.013997   -5.621480
     43          1           0       -4.540075    0.686375   -4.748021
     44          1           0       -4.693443   -0.917744   -5.503777
     45          8           0       -3.128313    0.812487   -2.036955
     46          7           0       -1.301287   -0.018288   -3.129801
     47          1           0       -0.917183   -0.704190   -3.775697
     48          6           0       -0.272178    0.691082   -2.373462
     49          1           0       -0.570002    1.735596   -2.240461
     50          6           0        1.010162    0.560707   -3.216374
     51          6           0       -0.071775    0.006992   -0.996308
     52          1           0        0.325945   -0.997857   -1.186634
     53          1           0       -1.054063   -0.111119   -0.532498
     54          8           0        1.168104   -0.437917   -3.926129
     55          6           0        0.854527    0.773938   -0.039866
     56          1           0        1.734318    1.135568   -0.571210
     57          1           0        0.339391    1.652408    0.366346
     58          6           0        1.293389   -0.116121    1.115315
     59          7           0        2.647694   -0.241814    1.238442
     60          1           0        3.262140    0.020735    0.473893
     61          1           0        2.987809   -0.912714    1.914378
     62          8           0        0.504276   -0.670638    1.878323
     63          7           0        1.904909    1.556693   -3.076036
     64          1           0        1.721046    2.370059   -2.467260
     65          6           0        3.255822    1.464636   -3.598577
     66          1           0        3.300272    0.533048   -4.172833
     67          6           0        4.210675    1.292588   -2.384934
     68          6           0        3.582477    2.666038   -4.522618
     69          1           0        4.582427    2.513092   -4.951930
     70          1           0        3.610825    3.574327   -3.908875
     71          8           0        3.950392    0.492694   -1.487612
     72          6           0        2.584108    2.868458   -5.641053
     73          6           0        2.710559    2.199481   -6.865883
     74          1           0        3.549261    1.524791   -7.025459
     75          6           0        1.495708    3.732230   -5.469769
     76          1           0        1.374834    4.256736   -4.524832
     77          6           0        1.787138    2.380502   -7.891611
     78          1           0        1.889873    1.865361   -8.841512
     79          6           0        0.562711    3.924671   -6.488030
     80          1           0       -0.275508    4.603358   -6.337501
     81          8           0       -0.173286    3.397540   -8.742173
     82          1           0       -0.850587    4.042755   -8.486440
     83          6           0        0.706907    3.248458   -7.703317
     84          7           0        5.333145    2.067534   -2.339357
     85          1           0        5.477201    2.767534   -3.053108
     86          6           0        6.157598    2.132982   -1.135217
     87          1           0        6.339897    1.108676   -0.800177
     88          6           0        5.443675    2.812218    0.065206
     89          6           0        7.492720    2.820481   -1.433101
     90          1           0        8.085740    2.865415   -0.516018
     91          1           0        8.057997    2.267894   -2.190658
     92          1           0        7.340116    3.846938   -1.790269
     93          8           0        5.872547    2.608371    1.205356
     94          7           0        4.411827    3.623112   -0.249910
     95          1           0        4.058565    3.600977   -1.209378
     96          6           0        3.275766    3.942559    0.614206
     97          1           0        3.093385    3.091778    1.285333
     98          6           0        2.000745    4.065133   -0.312276
     99          6           0        3.457149    5.204875    1.465571
    100          1           0        2.458587    5.502385    1.804229
    101          1           0        3.849626    6.009166    0.827600
    102          8           0        0.946380    4.366619    0.257038
    103          6           0        4.389499    4.970610    2.659501
    104          1           0        5.322517    4.513199    2.308137
    105          1           0        3.927431    4.245085    3.342319
    106          6           0        4.692146    6.251383    3.431804
    107          1           0        3.782061    6.663000    3.885084
    108          1           0        5.129793    7.008749    2.768203
    109          7           0        5.655152    5.945305    4.515485
    110          1           0        6.146195    5.062652    4.425599
    111          7           0        5.514412    7.996101    5.588192
    112          1           0        5.482749    8.497700    6.464177
    113          1           0        4.990752    8.382378    4.815959
    114          7           0        6.706062    6.269274    6.564395
    115          1           0        7.206550    6.912264    7.161524
    116          1           0        6.997795    5.302454    6.592866
    117          6           0        5.957746    6.728379    5.539900
    118          8           0        2.210719    3.806989   -1.546691
 ---------------------------------------------------------------------
 Rotational constants (GHZ):           0.0492828           0.0182520           0.0148523
 Standard basis: 6-31G(d) (6D, 7F)
   990 basis functions,  1864 primitive gaussians,   990 cartesian basis functions
   220 alpha electrons      220 beta electrons
       nuclear repulsion energy      8595.0306330422 Hartrees.
 NAtoms=  118 NActive=  118 NUniq=  118 SFac= 1.00D+00 NAtFMM=   60 NAOKFM=T Big=T
 Integral buffers will be    131072 words long.
 Raffenetti 2 integral format.
 Two-electron integral symmetry is turned off.
 One-electron integrals computed using PRISM.
 NBasis=   990 RedAO= T EigKep=  4.27D-04  NBF=   990
 NBsUse=   990 1.00D-06 EigRej= -1.00D+00 NBFU=   990
 Initial guess from the checkpoint file:  "conf-662.chk"
 B after Tr=     0.000000    0.000000    0.000000
         Rot=    1.000000    0.000000    0.000000    0.000000 Ang=   0.00 deg.
 Requested convergence on RMS density matrix=1.00D-08 within 128 cycles.
 Requested convergence on MAX density matrix=1.00D-06.
 Requested convergence on             energy=1.00D-06.
 No special actions if energy rises.
 SCF Done:  E(RB3LYP) =  -2837.61161082     A.U. after    2 cycles
            NFock=  2  Conv=0.60D-08     -V/T= 2.0093
 Hyperfine terms turned off by default for NAtoms > 100.

 **********************************************************************

            Population analysis using the SCF Density.

 **********************************************************************

 Alpha  occ. eigenvalues --  -19.28781 -19.24532 -19.20207 -19.19860 -19.15615
 Alpha  occ. eigenvalues --  -19.15326 -19.13980 -19.13708 -19.12087 -19.10169
 Alpha  occ. eigenvalues --  -19.08670 -14.57741 -14.51570 -14.51481 -14.51086
 Alpha  occ. eigenvalues --  -14.47241 -14.42638 -14.40199 -14.39561 -14.37050
 Alpha  occ. eigenvalues --  -14.36709 -14.36094 -10.47673 -10.41569 -10.38840
 Alpha  occ. eigenvalues --  -10.38144 -10.36651 -10.33212 -10.32762 -10.32504
 Alpha  occ. eigenvalues --  -10.31738 -10.30996 -10.30748 -10.29636 -10.28756
 Alpha  occ. eigenvalues --  -10.28713 -10.27590 -10.27124 -10.26861 -10.26175
 Alpha  occ. eigenvalues --  -10.26104 -10.25827 -10.25105 -10.23765 -10.23601
 Alpha  occ. eigenvalues --  -10.23469 -10.23231 -10.22849 -10.22496 -10.22385
 Alpha  occ. eigenvalues --  -10.21369 -10.21299 -10.21160 -10.21069 -10.21047
 Alpha  occ. eigenvalues --  -10.20690 -10.20189 -10.19551  -1.17505  -1.16171
 Alpha  occ. eigenvalues --   -1.15813  -1.11755  -1.11269  -1.08160  -1.07524
 Alpha  occ. eigenvalues --   -1.07344  -1.05440  -1.05266  -1.05124  -1.04493
 Alpha  occ. eigenvalues --   -1.03863  -1.03569  -1.02588  -0.99303  -0.96627
 Alpha  occ. eigenvalues --   -0.96006  -0.94806  -0.94300  -0.92766  -0.91636
 Alpha  occ. eigenvalues --   -0.90781  -0.87879  -0.87645  -0.87479  -0.83494
 Alpha  occ. eigenvalues --   -0.83320  -0.82317  -0.81079  -0.80509  -0.79730
 Alpha  occ. eigenvalues --   -0.79478  -0.77604  -0.76881  -0.76865  -0.75711
 Alpha  occ. eigenvalues --   -0.75434  -0.74173  -0.73892  -0.72368  -0.72260
 Alpha  occ. eigenvalues --   -0.70885  -0.69966  -0.69722  -0.69552  -0.68872
 Alpha  occ. eigenvalues --   -0.68313  -0.67902  -0.66246  -0.65299  -0.64968
 Alpha  occ. eigenvalues --   -0.64734  -0.64616  -0.64327  -0.63636  -0.63326
 Alpha  occ. eigenvalues --   -0.63004  -0.61789  -0.61737  -0.61157  -0.60967
 Alpha  occ. eigenvalues --   -0.60313  -0.59988  -0.58945  -0.58785  -0.58350
 Alpha  occ. eigenvalues --   -0.57206  -0.57138  -0.56848  -0.56523  -0.56212
 Alpha  occ. eigenvalues --   -0.55568  -0.54757  -0.54383  -0.54128  -0.53817
 Alpha  occ. eigenvalues --   -0.53100  -0.52942  -0.51744  -0.51551  -0.51263
 Alpha  occ. eigenvalues --   -0.51151  -0.50394  -0.50258  -0.50131  -0.50036
 Alpha  occ. eigenvalues --   -0.49630  -0.49496  -0.49356  -0.49149  -0.48795
 Alpha  occ. eigenvalues --   -0.48255  -0.47987  -0.47721  -0.47441  -0.46687
 Alpha  occ. eigenvalues --   -0.46392  -0.46173  -0.46054  -0.45926  -0.45752
 Alpha  occ. eigenvalues --   -0.45552  -0.45305  -0.45224  -0.44668  -0.44334
 Alpha  occ. eigenvalues --   -0.44231  -0.43802  -0.43565  -0.43499  -0.43152
 Alpha  occ. eigenvalues --   -0.42872  -0.42734  -0.42676  -0.42557  -0.42490
 Alpha  occ. eigenvalues --   -0.41921  -0.41844  -0.41584  -0.41302  -0.41039
 Alpha  occ. eigenvalues --   -0.40858  -0.40443  -0.40314  -0.40117  -0.39864
 Alpha  occ. eigenvalues --   -0.39672  -0.39618  -0.39457  -0.39130  -0.38755
 Alpha  occ. eigenvalues --   -0.38673  -0.38344  -0.38032  -0.37817  -0.37561
 Alpha  occ. eigenvalues --   -0.37353  -0.37011  -0.36602  -0.36102  -0.35994
 Alpha  occ. eigenvalues --   -0.35851  -0.35352  -0.34816  -0.33739  -0.33028
 Alpha  occ. eigenvalues --   -0.31368  -0.29880  -0.29475  -0.29031  -0.28202
 Alpha  occ. eigenvalues --   -0.27727  -0.27618  -0.27572  -0.26900  -0.26768
 Alpha  occ. eigenvalues --   -0.25644  -0.25130  -0.24879  -0.23919  -0.22679
 Alpha virt. eigenvalues --   -0.11584  -0.10643  -0.08400  -0.07655  -0.05718
 Alpha virt. eigenvalues --   -0.04489  -0.03662  -0.02722  -0.02635  -0.02535
 Alpha virt. eigenvalues --   -0.02115  -0.02098  -0.01903  -0.01082  -0.00717
 Alpha virt. eigenvalues --   -0.00603   0.00534   0.00916   0.01790   0.01940
 Alpha virt. eigenvalues --    0.02064   0.02649   0.03013   0.03323   0.03852
 Alpha virt. eigenvalues --    0.04251   0.04632   0.04668   0.04710   0.05333
 Alpha virt. eigenvalues --    0.05442   0.05553   0.05834   0.06591   0.06850
 Alpha virt. eigenvalues --    0.07057   0.07717   0.08020   0.08243   0.08573
 Alpha virt. eigenvalues --    0.08813   0.09049   0.09305   0.09751   0.09799
 Alpha virt. eigenvalues --    0.09959   0.10248   0.10306   0.10815   0.10845
 Alpha virt. eigenvalues --    0.11288   0.11561   0.11684   0.11797   0.11986
 Alpha virt. eigenvalues --    0.12311   0.12330   0.12557   0.12856   0.12981
 Alpha virt. eigenvalues --    0.13196   0.13379   0.13481   0.13883   0.13909
 Alpha virt. eigenvalues --    0.14152   0.14374   0.14687   0.14872   0.14989
 Alpha virt. eigenvalues --    0.15168   0.15431   0.15674   0.16211   0.16356
 Alpha virt. eigenvalues --    0.16654   0.16815   0.17359   0.17545   0.17663
 Alpha virt. eigenvalues --    0.17775   0.18148   0.18559   0.19002   0.19548
 Alpha virt. eigenvalues --    0.19630   0.19776   0.19966   0.20486   0.20914
 Alpha virt. eigenvalues --    0.21317   0.21362   0.21580   0.21991   0.22462
 Alpha virt. eigenvalues --    0.22961   0.23061   0.23285   0.23546   0.24240
 Alpha virt. eigenvalues --    0.24423   0.24555   0.24943   0.25654   0.25892
 Alpha virt. eigenvalues --    0.26500   0.26940   0.28342   0.28506   0.29706
 Alpha virt. eigenvalues --    0.30453   0.31184   0.31416   0.31778   0.32131
 Alpha virt. eigenvalues --    0.32570   0.33030   0.33224   0.34142   0.34652
 Alpha virt. eigenvalues --    0.35918   0.36788   0.37721   0.37929   0.38756
 Alpha virt. eigenvalues --    0.39587   0.39986   0.40399   0.40429   0.40519
 Alpha virt. eigenvalues --    0.40640   0.41042   0.41805   0.43024   0.43075
 Alpha virt. eigenvalues --    0.43716   0.44132   0.44863   0.45318   0.45865
 Alpha virt. eigenvalues --    0.46238   0.46732   0.46955   0.47269   0.47522
 Alpha virt. eigenvalues --    0.47752   0.47877   0.48099   0.48211   0.48814
 Alpha virt. eigenvalues --    0.48937   0.49400   0.49940   0.50382   0.50602
 Alpha virt. eigenvalues --    0.50675   0.50837   0.51028   0.51319   0.51700
 Alpha virt. eigenvalues --    0.51849   0.52181   0.52437   0.52562   0.53080
 Alpha virt. eigenvalues --    0.53449   0.53758   0.54008   0.54552   0.54772
 Alpha virt. eigenvalues --    0.54924   0.55162   0.55505   0.55812   0.56169
 Alpha virt. eigenvalues --    0.56458   0.56807   0.57173   0.57205   0.57538
 Alpha virt. eigenvalues --    0.57951   0.58181   0.58704   0.59059   0.59310
 Alpha virt. eigenvalues --    0.59511   0.59660   0.59782   0.59949   0.60428
 Alpha virt. eigenvalues --    0.60710   0.61235   0.61488   0.61681   0.62117
 Alpha virt. eigenvalues --    0.62364   0.62653   0.62907   0.62976   0.63103
 Alpha virt. eigenvalues --    0.63277   0.63849   0.63909   0.64290   0.64391
 Alpha virt. eigenvalues --    0.65118   0.65426   0.65729   0.66007   0.66196
 Alpha virt. eigenvalues --    0.66344   0.66402   0.66837   0.67303   0.67634
 Alpha virt. eigenvalues --    0.68066   0.68203   0.68508   0.68815   0.69173
 Alpha virt. eigenvalues --    0.69729   0.70080   0.70242   0.70963   0.71221
 Alpha virt. eigenvalues --    0.71457   0.71657   0.71797   0.72577   0.72780
 Alpha virt. eigenvalues --    0.73042   0.73188   0.73243   0.73517   0.73880
 Alpha virt. eigenvalues --    0.74093   0.74358   0.74947   0.75237   0.75396
 Alpha virt. eigenvalues --    0.75796   0.75995   0.76373   0.76894   0.77161
 Alpha virt. eigenvalues --    0.77409   0.77718   0.77906   0.78000   0.78841
 Alpha virt. eigenvalues --    0.79023   0.79342   0.79382   0.79461   0.79736
 Alpha virt. eigenvalues --    0.79920   0.80311   0.80517   0.80619   0.80786
 Alpha virt. eigenvalues --    0.81061   0.81664   0.81754   0.82140   0.82408
 Alpha virt. eigenvalues --    0.82747   0.82762   0.82841   0.83031   0.83211
 Alpha virt. eigenvalues --    0.83498   0.83808   0.84073   0.84129   0.84668
 Alpha virt. eigenvalues --    0.84781   0.84934   0.85599   0.85764   0.86039
 Alpha virt. eigenvalues --    0.86329   0.86355   0.86704   0.86895   0.87065
 Alpha virt. eigenvalues --    0.87178   0.87403   0.87516   0.87896   0.88271
 Alpha virt. eigenvalues --    0.88581   0.88779   0.89073   0.89533   0.89748
 Alpha virt. eigenvalues --    0.90286   0.90497   0.90950   0.91045   0.91388
 Alpha virt. eigenvalues --    0.91644   0.91880   0.92084   0.92674   0.92944
 Alpha virt. eigenvalues --    0.93181   0.93293   0.93700   0.94196   0.94397
 Alpha virt. eigenvalues --    0.94894   0.95003   0.95225   0.95548   0.96215
 Alpha virt. eigenvalues --    0.96464   0.96593   0.97091   0.97428   0.97615
 Alpha virt. eigenvalues --    0.98116   0.98276   0.99210   0.99571   0.99931
 Alpha virt. eigenvalues --    0.99971   1.00628   1.01228   1.01539   1.02190
 Alpha virt. eigenvalues --    1.02378   1.02660   1.03440   1.03532   1.03817
 Alpha virt. eigenvalues --    1.04152   1.05173   1.05393   1.05646   1.06191
 Alpha virt. eigenvalues --    1.06957   1.07343   1.07682   1.09115   1.09303
 Alpha virt. eigenvalues --    1.09830   1.10136   1.10982   1.11336   1.11952
 Alpha virt. eigenvalues --    1.12364   1.12680   1.13425   1.13673   1.14114
 Alpha virt. eigenvalues --    1.14313   1.14645   1.15207   1.15612   1.16003
 Alpha virt. eigenvalues --    1.16426   1.16819   1.17799   1.18292   1.18376
 Alpha virt. eigenvalues --    1.19167   1.19331   1.20729   1.21131   1.21925
 Alpha virt. eigenvalues --    1.22327   1.22505   1.23226   1.23608   1.23796
 Alpha virt. eigenvalues --    1.24645   1.25348   1.25921   1.26034   1.26538
 Alpha virt. eigenvalues --    1.27107   1.27254   1.28271   1.29332   1.29921
 Alpha virt. eigenvalues --    1.30523   1.30917   1.31560   1.31827   1.33190
 Alpha virt. eigenvalues --    1.33753   1.34223   1.34777   1.34922   1.36351
 Alpha virt. eigenvalues --    1.37038   1.37705   1.38272   1.38934   1.40269
 Alpha virt. eigenvalues --    1.40719   1.41032   1.41177   1.41461   1.42592
 Alpha virt. eigenvalues --    1.42943   1.43380   1.43623   1.43726   1.44149
 Alpha virt. eigenvalues --    1.44270   1.44448   1.46039   1.46433   1.47105
 Alpha virt. eigenvalues --    1.47249   1.47898   1.48129   1.48504   1.49033
 Alpha virt. eigenvalues --    1.49693   1.50583   1.50831   1.51553   1.51760
 Alpha virt. eigenvalues --    1.52106   1.52760   1.53577   1.53754   1.54774
 Alpha virt. eigenvalues --    1.55402   1.55694   1.56243   1.56853   1.57973
 Alpha virt. eigenvalues --    1.58504   1.59060   1.59802   1.60369   1.60868
 Alpha virt. eigenvalues --    1.61244   1.62630   1.62984   1.63344   1.64353
 Alpha virt. eigenvalues --    1.65055   1.65100   1.65307   1.65882   1.66450
 Alpha virt. eigenvalues --    1.67203   1.67536   1.68149   1.68750   1.69120
 Alpha virt. eigenvalues --    1.69943   1.70046   1.70548   1.70859   1.71022
 Alpha virt. eigenvalues --    1.71555   1.71783   1.72133   1.72179   1.72505
 Alpha virt. eigenvalues --    1.72746   1.73368   1.73786   1.74128   1.74584
 Alpha virt. eigenvalues --    1.74956   1.75330   1.75846   1.76886   1.76946
 Alpha virt. eigenvalues --    1.77351   1.77676   1.78106   1.78390   1.78546
 Alpha virt. eigenvalues --    1.78901   1.79443   1.80258   1.80428   1.80610
 Alpha virt. eigenvalues --    1.80696   1.80928   1.81398   1.81940   1.82143
 Alpha virt. eigenvalues --    1.82678   1.83000   1.83393   1.83959   1.84457
 Alpha virt. eigenvalues --    1.84618   1.84686   1.85084   1.85424   1.86044
 Alpha virt. eigenvalues --    1.86144   1.86544   1.87137   1.87594   1.87718
 Alpha virt. eigenvalues --    1.88080   1.88757   1.89189   1.89202   1.89563
 Alpha virt. eigenvalues --    1.90154   1.90934   1.91367   1.91693   1.92273
 Alpha virt. eigenvalues --    1.92580   1.92931   1.93036   1.93178   1.93542
 Alpha virt. eigenvalues --    1.94082   1.94426   1.94574   1.95368   1.95440
 Alpha virt. eigenvalues --    1.95479   1.95650   1.95908   1.96411   1.96611
 Alpha virt. eigenvalues --    1.96824   1.97273   1.97540   1.98098   1.98426
 Alpha virt. eigenvalues --    1.98594   1.99241   1.99347   1.99978   2.00160
 Alpha virt. eigenvalues --    2.00402   2.01326   2.01925   2.02073   2.02282
 Alpha virt. eigenvalues --    2.02550   2.02655   2.03594   2.03951   2.04358
 Alpha virt. eigenvalues --    2.04553   2.04948   2.05275   2.06670   2.06794
 Alpha virt. eigenvalues --    2.07145   2.07554   2.07950   2.08233   2.08457
 Alpha virt. eigenvalues --    2.09079   2.09432   2.09668   2.10421   2.10503
 Alpha virt. eigenvalues --    2.11216   2.11489   2.11835   2.12062   2.12742
 Alpha virt. eigenvalues --    2.13028   2.13117   2.13449   2.14277   2.16084
 Alpha virt. eigenvalues --    2.16626   2.17078   2.17732   2.18071   2.18706
 Alpha virt. eigenvalues --    2.19439   2.20140   2.20805   2.21968   2.22308
 Alpha virt. eigenvalues --    2.22551   2.23286   2.23920   2.24193   2.24428
 Alpha virt. eigenvalues --    2.24850   2.25117   2.25494   2.26122   2.27081
 Alpha virt. eigenvalues --    2.27278   2.27949   2.28756   2.29502   2.29809
 Alpha virt. eigenvalues --    2.30602   2.31073   2.31394   2.32068   2.32454
 Alpha virt. eigenvalues --    2.32593   2.33246   2.33613   2.34470   2.35232
 Alpha virt. eigenvalues --    2.35871   2.36620   2.37027   2.37241   2.37569
 Alpha virt. eigenvalues --    2.37681   2.38062   2.38988   2.39967   2.40789
 Alpha virt. eigenvalues --    2.41251   2.41783   2.42086   2.42564   2.43153
 Alpha virt. eigenvalues --    2.44036   2.44274   2.44525   2.45066   2.45182
 Alpha virt. eigenvalues --    2.45845   2.46274   2.46783   2.47355   2.48948
 Alpha virt. eigenvalues --    2.49107   2.49493   2.50315   2.51605   2.52458
 Alpha virt. eigenvalues --    2.52853   2.53337   2.54580   2.54980   2.55970
 Alpha virt. eigenvalues --    2.57580   2.58988   2.59480   2.59648   2.60329
 Alpha virt. eigenvalues --    2.60477   2.60786   2.61199   2.61861   2.62963
 Alpha virt. eigenvalues --    2.63065   2.63403   2.63592   2.64198   2.65210
 Alpha virt. eigenvalues --    2.65441   2.65849   2.66304   2.66543   2.67950
 Alpha virt. eigenvalues --    2.69276   2.70237   2.70773   2.71100   2.72317
 Alpha virt. eigenvalues --    2.73151   2.73829   2.74993   2.76193   2.76539
 Alpha virt. eigenvalues --    2.76928   2.78017   2.79726   2.80242   2.81288
 Alpha virt. eigenvalues --    2.82899   2.83921   2.84938   2.86153   2.86704
 Alpha virt. eigenvalues --    2.88177   2.88809   2.89049   2.91126   2.91285
 Alpha virt. eigenvalues --    2.93140   2.93618   2.94693   2.96159   2.96856
 Alpha virt. eigenvalues --    2.97628   2.99286   2.99571   2.99899   3.00528
 Alpha virt. eigenvalues --    3.02682   3.03075   3.03675   3.06314   3.09639
 Alpha virt. eigenvalues --    3.09824   3.11883   3.14267   3.14532   3.17417
 Alpha virt. eigenvalues --    3.20274   3.39800   3.64871   3.67729   3.69546
 Alpha virt. eigenvalues --    3.70881   3.84924   3.87810   3.91418   3.91558
 Alpha virt. eigenvalues --    3.96301   3.97745   3.99627   4.02272   4.05698
 Alpha virt. eigenvalues --    4.06013   4.07078   4.07214   4.08151   4.09280
 Alpha virt. eigenvalues --    4.09535   4.11015   4.12610   4.12758   4.13879
 Alpha virt. eigenvalues --    4.15667   4.16023   4.16898   4.18944   4.19931
 Alpha virt. eigenvalues --    4.20903   4.22825   4.22957   4.23426   4.26034
 Alpha virt. eigenvalues --    4.28144   4.29021   4.32289   4.32662   4.33588
 Alpha virt. eigenvalues --    4.35016   4.35899   4.39066   4.40063   4.41028
 Alpha virt. eigenvalues --    4.42050   4.45175   4.47586   4.49295   4.50645
 Alpha virt. eigenvalues --    4.51002   4.53317   4.56479   4.59989   4.62575
 Alpha virt. eigenvalues --    4.63670   4.65276   4.68819   4.73184   4.75685
          Condensed to atoms (all electrons):
 Mulliken charges:
               1
     1  N   -0.748680
     2  H    0.413969
     3  H    0.428117
     4  H    0.423419
     5  C   -0.125919
     6  H    0.214276
     7  C    0.641157
     8  C    0.127172
     9  H    0.170672
    10  O   -0.538074
    11  C   -0.498598
    12  H    0.212835
    13  H    0.178698
    14  H    0.177531
    15  O   -0.651091
    16  H    0.432016
    17  N   -0.580303
    18  H    0.371351
    19  C   -0.095475
    20  H    0.191121
    21  C    0.623304
    22  C   -0.084892
    23  H    0.160255
    24  O   -0.548221
    25  C   -0.273177
    26  H    0.156180
    27  H    0.118588
    28  C   -0.452014
    29  H    0.128250
    30  H    0.153933
    31  H    0.174045
    32  C   -0.483834
    33  H    0.210265
    34  H    0.133712
    35  H    0.168269
    36  N   -0.577641
    37  H    0.355888
    38  C   -0.090355
    39  H    0.184736
    40  C    0.637038
    41  C   -0.444609
    42  H    0.173972
    43  H    0.165817
    44  H    0.162287
    45  O   -0.554682
    46  N   -0.614665
    47  H    0.353992
    48  C   -0.049245
    49  H    0.192418
    50  C    0.622474
    51  C   -0.276909
    52  H    0.149161
    53  H    0.183554
    54  O   -0.558025
    55  C   -0.394716
    56  H    0.172088
    57  H    0.198710
    58  C    0.580215
    59  N   -0.767858
    60  H    0.387186
    61  H    0.321738
    62  O   -0.529914
    63  N   -0.623451
    64  H    0.410473
    65  C   -0.049584
    66  H    0.201236
    67  C    0.622853
    68  C   -0.416214
    69  H    0.138355
    70  H    0.174169
    71  O   -0.533025
    72  C    0.177444
    73  C   -0.179195
    74  H    0.122575
    75  C   -0.193186
    76  H    0.160692
    77  C   -0.159469
    78  H    0.138120
    79  C   -0.199598
    80  H    0.119680
    81  O   -0.645047
    82  H    0.406041
    83  C    0.349025
    84  N   -0.630254
    85  H    0.341297
    86  C   -0.012531
    87  H    0.187680
    88  C    0.599470
    89  C   -0.477155
    90  H    0.175964
    91  H    0.164329
    92  H    0.146944
    93  O   -0.566246
    94  N   -0.613431
    95  H    0.356754
    96  C   -0.068675
    97  H    0.161757
    98  C    0.600595
    99  C   -0.262448
   100  H    0.174027
   101  H    0.130625
   102  O   -0.562349
   103  C   -0.326987
   104  H    0.194840
   105  H    0.159596
   106  C   -0.149283
   107  H    0.179049
   108  H    0.181389
   109  N   -0.600175
   110  H    0.375323
   111  N   -0.755690
   112  H    0.382602
   113  H    0.395887
   114  N   -0.761737
   115  H    0.381387
   116  H    0.384418
   117  C    0.825472
   118  O   -0.645850
 Sum of Mulliken charges =   1.00000
 Mulliken charges with hydrogens summed into heavy atoms:
               1
     1  N    0.516825
     5  C    0.088357
     7  C    0.641157
     8  C    0.297844
    10  O   -0.538074
    11  C    0.070467
    15  O   -0.219074
    17  N   -0.208951
    19  C    0.095646
    21  C    0.623304
    22  C    0.075363
    24  O   -0.548221
    25  C    0.001592
    28  C    0.004214
    32  C    0.028412
    36  N   -0.221753
    38  C    0.094382
    40  C    0.637038
    41  C    0.057467
    45  O   -0.554682
    46  N   -0.260673
    48  C    0.143173
    50  C    0.622474
    51  C    0.055807
    54  O   -0.558025
    55  C   -0.023918
    58  C    0.580215
    59  N   -0.058934
    62  O   -0.529914
    63  N   -0.212979
    65  C    0.151651
    67  C    0.622853
    68  C   -0.103690
    71  O   -0.533025
    72  C    0.177444
    73  C   -0.056620
    75  C   -0.032494
    77  C   -0.021349
    79  C   -0.079918
    81  O   -0.239006
    83  C    0.349025
    84  N   -0.288957
    86  C    0.175149
    88  C    0.599470
    89  C    0.010082
    93  O   -0.566246
    94  N   -0.256677
    96  C    0.093081
    98  C    0.600595
    99  C    0.042204
   102  O   -0.562349
   103  C    0.027449
   106  C    0.211155
   109  N   -0.224852
   111  N    0.022798
   114  N    0.004068
   117  C    0.825472
   118  O   -0.645850
 Electronic spatial extent (au):  <R**2>=          72911.9397
 Charge=              1.0000 electrons
 Dipole moment (field-independent basis, Debye):
    X=             -4.7039    Y=             -1.2520    Z=             18.4981  Tot=             19.1278
 Quadrupole moment (field-independent basis, Debye-Ang):
   XX=             -7.4456   YY=            -13.3020   ZZ=           -204.1475
   XY=            320.8149   XZ=            132.7469   YZ=            141.0320
 Traceless Quadrupole moment (field-independent basis, Debye-Ang):
   XX=             67.5194   YY=             61.6631   ZZ=           -129.1825
   XY=            320.8149   XZ=            132.7469   YZ=            141.0320
 Octapole moment (field-independent basis, Debye-Ang**2):
  XXX=           -491.3885  YYY=           -556.8606  ZZZ=           2100.8883  XYY=           -173.6880
  XXY=           -570.2598  XXZ=           1137.9619  XZZ=            668.9037  YZZ=            619.9348
  YYZ=           1427.3994  XYZ=            909.5450
 Hexadecapole moment (field-independent basis, Debye-Ang**3):
 XXXX=         -24278.9668 YYYY=          -9600.4133 ZZZZ=         -20620.8712 XXXY=           1432.9272
 XXXZ=           2613.9245 YYYX=           2409.7641 YYYZ=           7760.4032 ZZZX=           3830.4542
 ZZZY=           4986.6271 XXYY=           4120.9393 XXZZ=          -4081.3638 YYZZ=          -1193.1728
 XXYZ=           5071.2323 YYXZ=           6247.5043 ZZXY=           1450.1659
 N-N= 8.595030633042D+03 E-N=-2.378157803837D+04  KE= 2.811345933601D+03
 Unable to Open any file for archive entry.
 1\1\GINC-LAC-309\SP\RB3LYP\6-31G(d)\C36H60N11O11(1+)\KENGMITH\02-Jul-2
 022\0\\# B3LYP/6-31G* guess=read geom=check nosymm integral(ultrafineg
 rid)\\Candidate Structure: Conf:662 Charge calc in gas phase\\1,1\N,0,
 -7.7806703657,-6.4410791819,0.8290995342\H,0,-7.5305394549,-6.53560474
 3,1.816856674\H,0,-8.1435907772,-7.3391018646,0.4693845193\H,0,-8.4569
 721741,-5.6431124618,0.7263717211\C,0,-6.6197321675,-6.0248573371,-0.0
 379171025\H,0,-5.6933854629,-6.3529707571,0.4385761438\C,0,-6.76301127
 25,-4.4830365233,-0.125059831\C,0,-6.7971640044,-6.7184252827,-1.41293
 07409\H,0,-7.606985179,-6.2027808324,-1.9514943283\O,0,-7.886210826,-4
 .0151196954,0.1058757715\C,0,-5.522121467,-6.7150853488,-2.2479914508\
 H,0,-5.1945024582,-5.7009702805,-2.4997502165\H,0,-4.7153848559,-7.234
 486391,-1.7198454332\H,0,-5.7024236744,-7.240404769,-3.1922709142\O,0,
 -7.2175485805,-8.0465164076,-1.0692287275\H,0,-7.4116334214,-8.5421261
 754,-1.880840823\N,0,-5.6661349231,-3.8091339756,-0.4530258986\H,0,-4.
 8409362275,-4.3124286078,-0.7806266496\C,0,-5.6320493747,-2.4023263615
 ,-0.8674330521\H,0,-6.648508814,-2.1168373684,-1.1585289385\C,0,-4.707
 5787074,-2.3951100677,-2.1118414868\C,0,-5.1397601886,-1.4433666415,0.
 2565694434\H,0,-5.14064213,-0.4393474086,-0.190426456\O,0,-4.096007118
 4,-3.4216965924,-2.4295573999\C,0,-3.6917451096,-1.7377039863,0.702494
 0232\H,0,-3.0562797378,-1.8552752583,-0.1843417053\H,0,-3.6628020151,-
 2.7020228647,1.2312294988\C,0,-6.1327121145,-1.4291740284,1.4277778676
 \H,0,-6.1331641096,-2.388497519,1.9595465404\H,0,-7.1560789889,-1.2330
 80829,1.0899400556\H,0,-5.8613243303,-0.6533247574,2.1486061392\C,0,-3
 .0870015354,-0.6387443402,1.5859913693\H,0,-2.0228035511,-0.8199147383
 ,1.7692357336\H,0,-3.5895883381,-0.5705495297,2.5574377811\H,0,-3.1711
 01687,0.3359571905,1.0905732162\N,0,-4.6400403983,-1.2269475985,-2.781
 8338789\H,0,-4.9666895883,-0.3959046818,-2.2939479455\C,0,-3.520208566
 7,-0.9055680318,-3.674723942\H,0,-3.0031704836,-1.8425936769,-3.892147
 9697\C,0,-2.6138505317,0.0523795935,-2.8639669262\C,0,-4.013100128,-0.
 2482533155,-4.9686222117\H,0,-3.1662540189,-0.0139967066,-5.621480242\
 H,0,-4.5400753514,0.6863748042,-4.7480211443\H,0,-4.6934432115,-0.9177
 437808,-5.5037765151\O,0,-3.1283131378,0.8124869435,-2.0369550967\N,0,
 -1.3012871818,-0.0182875629,-3.1298009222\H,0,-0.9171829282,-0.7041898
 89,-3.7756969333\C,0,-0.2721778622,0.6910824114,-2.3734623716\H,0,-0.5
 700024089,1.7355955874,-2.2404606361\C,0,1.0101621307,0.5607067658,-3.
 2163737568\C,0,-0.0717749795,0.006991861,-0.9963082017\H,0,0.325944954
 9,-0.9978572309,-1.1866343605\H,0,-1.0540630161,-0.1111190093,-0.53249
 75729\O,0,1.1681043813,-0.4379166961,-3.9261294513\C,0,0.8545265587,0.
 7739384453,-0.0398664784\H,0,1.7343179079,1.1355684923,-0.5712098863\H
 ,0,0.3393908972,1.6524084176,0.3663456854\C,0,1.2933893883,-0.11612105
 12,1.1153153843\N,0,2.6476943355,-0.2418143298,1.2384417845\H,0,3.2621
 396247,0.0207351338,0.4738926326\H,0,2.9878094426,-0.9127142777,1.9143
 781004\O,0,0.5042759042,-0.6706376284,1.8783227979\N,0,1.9049093587,1.
 5566927022,-3.0760355427\H,0,1.7210463959,2.3700587328,-2.4672601291\C
 ,0,3.2558216591,1.4646361476,-3.5985767782\H,0,3.300271917,0.533047876
 ,-4.1728328474\C,0,4.2106746736,1.2925876619,-2.3849344131\C,0,3.58247
 6702,2.6660378505,-4.5226182648\H,0,4.5824268179,2.5130918078,-4.95193
 02086\H,0,3.6108249354,3.5743273912,-3.9088748937\O,0,3.9503923155,0.4
 92694035,-1.4876120779\C,0,2.5841080487,2.8684582468,-5.6410526477\C,0
 ,2.7105590019,2.199481382,-6.8658827804\H,0,3.5492612846,1.524791331,-
 7.0254589151\C,0,1.4957081566,3.7322302711,-5.4697688038\H,0,1.3748339
 164,4.2567356459,-4.5248322228\C,0,1.7871375808,2.3805018328,-7.891611
 389\H,0,1.8898734129,1.8653608371,-8.8415118633\C,0,0.5627113078,3.924
 6710543,-6.4880297647\H,0,-0.27550761,4.6033580764,-6.3375010833\O,0,-
 0.1732863285,3.3975397287,-8.7421726045\H,0,-0.850586836,4.0427550461,
 -8.4864403954\C,0,0.7069070105,3.2484584186,-7.7033171363\N,0,5.333144
 7578,2.0675340757,-2.3393573085\H,0,5.4772010531,2.767534487,-3.053107
 5865\C,0,6.157597873,2.1329818576,-1.1352174895\H,0,6.3398972424,1.108
 6756068,-0.8001768384\C,0,5.4436749896,2.8122179425,0.0652057227\C,0,7
 .4927197627,2.8204808793,-1.4331009197\H,0,8.085739776,2.8654152415,-0
 .5160183126\H,0,8.0579966313,2.2678938946,-2.1906577819\H,0,7.34011646
 69,3.8469383598,-1.7902687582\O,0,5.872546863,2.6083705259,1.205356029
 5\N,0,4.4118266161,3.623111899,-0.2499099495\H,0,4.0585648975,3.600976
 5495,-1.2093784128\C,0,3.2757657155,3.9425589058,0.6142057387\H,0,3.09
 33847252,3.0917784094,1.2853328664\C,0,2.0007447971,4.065133226,-0.312
 2761428\C,0,3.4571487675,5.2048748106,1.4655707479\H,0,2.4585872542,5.
 5023854246,1.8042289864\H,0,3.8496264539,6.0091656352,0.8276000541\O,0
 ,0.9463802606,4.3666193095,0.2570383503\C,0,4.3894990349,4.9706096104,
 2.6595014034\H,0,5.3225174352,4.5131988741,2.3081374949\H,0,3.92743123
 07,4.2450847572,3.3423191368\C,0,4.692145824,6.251383099,3.4318039392\
 H,0,3.7820606238,6.6629996736,3.8850844204\H,0,5.129793043,7.008748950
 6,2.7682030136\N,0,5.6551515751,5.9453054354,4.5154845386\H,0,6.146194
 5736,5.0626515955,4.4255991669\N,0,5.5144120971,7.9961005354,5.5881915
 979\H,0,5.4827487916,8.4977003541,6.4641773893\H,0,4.9907521428,8.3823
 781228,4.8159586879\N,0,6.7060615076,6.2692737423,6.5643945443\H,0,7.2
 0654967,6.9122639248,7.1615239577\H,0,6.9977947943,5.3024544139,6.5928
 661016\C,0,5.9577462867,6.7283789189,5.539899868\O,0,2.2107193756,3.80
 69889528,-1.546691434\\Version=ES64L-G16RevC.01\HF=-2837.6116108\RMSD=
 5.974e-09\Dipole=-1.9851115,-1.834277,9.3901373\Quadrupole=50.1990366,
 45.844976,-96.0440127,238.5180068,98.6940357,104.8538513\PG=C01 [X(C36
 H60N11O11)]\\@
 The archive entry for this job was punched.


 TOM, TOM, THE BURGLAR'S SON
 STOLE A MACHINE AND AWAY HE RUN
 THE JOB WAS NEAT, BUT TOM GOT BEAT
 BY THE TIME HE GOT HOME IT WAS OBSOLETE.
 Job cpu time:       0 days  0 hours  6 minutes 16.6 seconds.
 Elapsed time:       0 days  0 hours  1 minutes 35.0 seconds.
 File lengths (MBytes):  RWF=    624 Int=      0 D2E=      0 Chk=     96 Scr=     16
 Normal termination of Gaussian 16 at Sat Jul  2 15:33:18 2022.
