 Entering Gaussian System, Link 0=/opt/software/Gaussian/g16-AVX2-C.01/g16/g16
 Input=charge-conf-549.com
 Output=charge-conf-549.log
 Initial command:
 /opt/software/Gaussian/g16-AVX2-C.01/g16/l1.exe "/mnt/gs18/scratch/users/kengmith/Gau-28181.inp" -scrdir="/mnt/gs18/scratch/users/kengmith/"
 Entering Link 1 = /opt/software/Gaussian/g16-AVX2-C.01/g16/l1.exe PID=     28191.
  
 Copyright (c) 1988-2019, Gaussian, Inc.  All Rights Reserved.
  
 This is part of the Gaussian(R) 16 program.  It is based on
 the Gaussian(R) 09 system (copyright 2009, Gaussian, Inc.),
 the Gaussian(R) 03 system (copyright 2003, Gaussian, Inc.),
 the Gaussian(R) 98 system (copyright 1998, Gaussian, Inc.),
 the Gaussian(R) 94 system (copyright 1995, Gaussian, Inc.),
 the Gaussian 92(TM) system (copyright 1992, Gaussian, Inc.),
 the Gaussian 90(TM) system (copyright 1990, Gaussian, Inc.),
 the Gaussian 88(TM) system (copyright 1988, Gaussian, Inc.),
 the Gaussian 86(TM) system (copyright 1986, Carnegie Mellon
 University), and the Gaussian 82(TM) system (copyright 1983,
 Carnegie Mellon University). Gaussian is a federally registered
 trademark of Gaussian, Inc.
  
 This software contains proprietary and confidential information,
 including trade secrets, belonging to Gaussian, Inc.
  
 This software is provided under written license and may be
 used, copied, transmitted, or stored only in accord with that
 written license.
  
 The following legend is applicable only to US Government
 contracts under FAR:
  
                    RESTRICTED RIGHTS LEGEND
  
 Use, reproduction and disclosure by the US Government is
 subject to restrictions as set forth in subparagraphs (a)
 and (c) of the Commercial Computer Software - Restricted
 Rights clause in FAR 52.227-19.
  
 Gaussian, Inc.
 340 Quinnipiac St., Bldg. 40, Wallingford CT 06492
  
  
 ---------------------------------------------------------------
 Warning -- This program may not be used in any manner that
 competes with the business of Gaussian, Inc. or will provide
 assistance to any competitor of Gaussian, Inc.  The licensee
 of this program is prohibited from giving any competitor of
 Gaussian, Inc. access to this program.  By using this program,
 the user acknowledges that Gaussian, Inc. is engaged in the
 business of creating and licensing software in the field of
 computational chemistry and represents and warrants to the
 licensee that it is not a competitor of Gaussian, Inc. and that
 it will not use this program in any manner prohibited above.
 ---------------------------------------------------------------
  

 Cite this work as:
 Gaussian 16, Revision C.01,
 M. J. Frisch, G. W. Trucks, H. B. Schlegel, G. E. Scuseria, 
 M. A. Robb, J. R. Cheeseman, G. Scalmani, V. Barone, 
 G. A. Petersson, H. Nakatsuji, X. Li, M. Caricato, A. V. Marenich, 
 J. Bloino, B. G. Janesko, R. Gomperts, B. Mennucci, H. P. Hratchian, 
 J. V. Ortiz, A. F. Izmaylov, J. L. Sonnenberg, D. Williams-Young, 
 F. Ding, F. Lipparini, F. Egidi, J. Goings, B. Peng, A. Petrone, 
 T. Henderson, D. Ranasinghe, V. G. Zakrzewski, J. Gao, N. Rega, 
 G. Zheng, W. Liang, M. Hada, M. Ehara, K. Toyota, R. Fukuda, 
 J. Hasegawa, M. Ishida, T. Nakajima, Y. Honda, O. Kitao, H. Nakai, 
 T. Vreven, K. Throssell, J. A. Montgomery, Jr., J. E. Peralta, 
 F. Ogliaro, M. J. Bearpark, J. J. Heyd, E. N. Brothers, K. N. Kudin, 
 V. N. Staroverov, T. A. Keith, R. Kobayashi, J. Normand, 
 K. Raghavachari, A. P. Rendell, J. C. Burant, S. S. Iyengar, 
 J. Tomasi, M. Cossi, J. M. Millam, M. Klene, C. Adamo, R. Cammi, 
 J. W. Ochterski, R. L. Martin, K. Morokuma, O. Farkas, 
 J. B. Foresman, and D. J. Fox, Gaussian, Inc., Wallingford CT, 2019.
 
 ******************************************
 Gaussian 16:  ES64L-G16RevC.01  3-Jul-2019
                 2-Jul-2022 
 ******************************************
 %mem=8gb
 %nproc=4
 Will use up to    4 processors via shared memory.
 %chk=conf-549.chk
 -------------------------------------------------------------------
 # B3LYP/6-31G* guess=read geom=check nosymm integral(ultrafinegrid)
 -------------------------------------------------------------------
 1/29=2,38=1,172=1/1;
 2/12=2,15=1,40=1/2;
 3/5=1,6=6,7=1,11=2,14=-4,25=1,30=1,74=-5,75=-5,116=-2/1,2,3;
 4/5=1/1;
 5/5=2,38=6/2;
 6/7=2,8=2,9=2,10=2,28=1/1;
 99/5=1,9=1/99;
 ------------------------------------------------------
 Candidate Structure: Conf:549 Charge calc in gas phase
 ------------------------------------------------------
 Structure from the checkpoint file:  "conf-549.chk"
 Charge =  1 Multiplicity = 1
 Redundant internal coordinates found in file.  (old form).
 N,0,-6.954650901,-2.2773540592,-9.9014905707
 H,0,-7.5221647285,-1.6460107195,-9.2593063089
 H,0,-7.5441830371,-2.934658313,-10.4144963218
 H,0,-6.4130750576,-1.6814552585,-10.5487744904
 C,0,-5.9815700935,-2.9071588228,-8.9393385529
 H,0,-6.2653441866,-3.9504728721,-8.7812516215
 C,0,-6.2220393207,-2.0955015942,-7.6268137106
 C,0,-4.5550982894,-2.8090501168,-9.5276444724
 H,0,-3.8411722727,-2.8851103985,-8.6972085977
 O,0,-7.1522052452,-1.2770255873,-7.6284334961
 C,0,-4.2518884436,-3.8901055246,-10.5640356621
 H,0,-4.2930950642,-4.8883948272,-10.1153041353
 H,0,-4.9530977872,-3.8540071528,-11.4059849321
 H,0,-3.2420272576,-3.7539590452,-10.9658056799
 O,0,-4.5155013533,-1.4952248436,-10.087812587
 H,0,-3.6476191774,-1.3354922174,-10.4911240691
 N,0,-5.4302975471,-2.3932515468,-6.6059059556
 H,0,-4.6041326522,-2.9830905528,-6.7245657154
 C,0,-5.3458091701,-1.6524628733,-5.3400738769
 H,0,-5.8076577022,-0.6712530264,-5.4873895538
 C,0,-3.8149117623,-1.5306702524,-5.124976929
 C,0,-6.0588882862,-2.3998765475,-4.1687822574
 H,0,-5.50294075,-3.3355612023,-4.007103598
 O,0,-3.0713754764,-2.3877008997,-5.6231487984
 C,0,-7.5102498555,-2.765046827,-4.5503511188
 H,0,-7.5018349035,-3.3106520532,-5.5015678512
 H,0,-8.0789238046,-1.8422967239,-4.7294995808
 C,0,-6.0091846722,-1.5699285184,-2.8753723399
 H,0,-6.5452094239,-0.6193981852,-2.9965465357
 H,0,-4.9903580128,-1.3445419673,-2.5522106354
 H,0,-6.487694417,-2.1122271759,-2.0563072345
 C,0,-8.2351579174,-3.6291728854,-3.5108407341
 H,0,-9.2145582271,-3.9392924413,-3.8906352931
 H,0,-8.4063610156,-3.0949153758,-2.5716445224
 H,0,-7.6652073697,-4.5376735836,-3.2806423097
 N,0,-3.3826629524,-0.4848306641,-4.4105694817
 H,0,-4.0250101769,0.1505527926,-3.9380155272
 C,0,-2.002226296,-0.3255155017,-3.9644491508
 H,0,-1.598444161,-1.3170819246,-3.7306491803
 C,0,-2.0938246105,0.5191423051,-2.673481528
 C,0,-1.121007641,0.3379374028,-5.0353508667
 H,0,-0.0891333933,0.4388742068,-4.6841187215
 H,0,-1.5006365705,1.3342956813,-5.283935506
 H,0,-1.1178121441,-0.2783968876,-5.9386767515
 O,0,-3.1513142465,1.0809370567,-2.3725477681
 N,0,-0.9681505216,0.5981704305,-1.9453874327
 H,0,-0.1165236423,0.1047351299,-2.1986223537
 C,0,-0.8829069302,1.3197896291,-0.6807943129
 H,0,-1.4002624638,2.2792967736,-0.7915241843
 C,0,0.6235473839,1.5178571111,-0.4279071177
 C,0,-1.5309185117,0.5060431184,0.4714884676
 H,0,-0.8673449274,-0.3344992246,0.7099321649
 H,0,-2.4685049075,0.0819031291,0.1034358904
 O,0,1.4378266818,0.7395863249,-0.9250836044
 C,0,-1.82689641,1.3320397803,1.7338560997
 H,0,-0.9725269824,1.9481212449,2.0165716444
 H,0,-2.6841449273,1.9901922372,1.5470368073
 C,0,-2.1870176413,0.4094571646,2.8982766385
 N,0,-1.3505174525,0.5135589643,3.9690669723
 H,0,-0.5020749681,1.0669052217,3.9299108171
 H,0,-1.4969543825,-0.11431561,4.7473878362
 O,0,-3.138900406,-0.3599602474,2.8519453436
 N,0,0.9709223887,2.55998653,0.3696583101
 H,0,0.2352003889,3.0883935008,0.8198519542
 C,0,2.2924930773,2.6775254594,0.9640304102
 H,0,2.8950712495,1.8822526898,0.5144152219
 C,0,2.1881384661,2.4070917915,2.4860960857
 C,0,2.9534074901,4.0436650839,0.6238744018
 H,0,3.0055420257,4.1014027418,-0.4691990283
 H,0,3.9896946142,4.0321560864,0.9813522252
 O,0,1.1034624515,2.1914279207,3.0342825686
 C,0,2.2316315321,5.2527179182,1.1804831481
 C,0,1.1606011147,5.8393165566,0.4872152081
 H,0,0.8696387452,5.4402903532,-0.4818668189
 C,0,2.6038878499,5.8154301284,2.4086381471
 H,0,3.4445961013,5.3986534266,2.9584770619
 C,0,0.4702308232,6.9322988855,1.0024068234
 H,0,-0.3537591632,7.3865564786,0.4612633429
 C,0,1.9227288598,6.9117928338,2.9363375652
 H,0,2.2307550463,7.336125293,3.8903673915
 O,0,0.1398959796,8.543919402,2.697198524
 H,0,0.4958714379,8.816841778,3.5571876946
 C,0,0.8482982453,7.4712507979,2.2370895294
 N,0,3.3609174555,2.4079225836,3.1501178552
 H,0,4.2147924156,2.7498343899,2.7166315984
 C,0,3.4526009445,2.3313867882,4.6012184053
 H,0,2.5588726545,2.8038084584,5.0247879322
 C,0,4.6975880935,3.1567437982,4.9939095901
 C,0,3.531725871,0.8765310729,5.095046893
 H,0,3.5702017515,0.8268404518,6.1880415566
 H,0,2.6466880967,0.3297955738,4.7574011119
 H,0,4.4220757936,0.380297364,4.6950390093
 O,0,5.442587962,3.6273530552,4.1208344311
 N,0,4.8947231707,3.3218670244,6.3088109277
 H,0,4.3533963135,2.827397264,7.0208260348
 C,0,6.0945038575,3.9162190734,6.8784954544
 H,0,6.9671822148,3.4430565359,6.4068017791
 C,0,6.1086167768,3.4957615532,8.3888542919
 C,0,6.179419887,5.455883847,6.6259602273
 H,0,6.0773669905,6.0002716137,7.5735972543
 H,0,5.3127145806,5.7301366287,6.0195706247
 O,0,7.1037483394,3.9431772752,9.0681234485
 C,0,7.4459085123,5.9201114752,5.8702463179
 H,0,7.2188697148,6.8313310024,5.3034883581
 H,0,7.7117860592,5.1554805285,5.1316768173
 C,0,8.6637802228,6.2513797797,6.7541029158
 H,0,8.4986586347,7.2057239495,7.2717431588
 H,0,9.5514527971,6.375478881,6.1206796235
 N,0,8.8891378814,5.217881202,7.7560125133
 H,0,8.0247663286,4.805338698,8.2799017389
 N,0,11.2439307495,5.0667536641,7.7450441174
 H,0,11.9959441767,4.3931583618,7.7065978421
 H,0,11.3196109199,5.8465530786,7.1093352176
 N,0,9.9307486388,3.5269975654,8.8969964534
 H,0,10.6843253517,3.3517164458,9.5476874832
 H,0,8.9837464657,3.2967370383,9.2179855588
 C,0,10.0093005053,4.6323686653,8.1126985964
 O,0,5.1975089409,2.7682878828,8.7928025393
 Recover connectivity data from disk.
                           ----------------------------
                           !    Current Parameters    !
                           ! (Angstroms and Degrees)  !
 --------------------------                            --------------------------
 ! Name  Definition              Value                                          !
 --------------------------------------------------------------------------------
 ! R1    R(1,2)                  1.0645                                         !
 ! R2    R(1,3)                  1.0212                                         !
 ! R3    R(1,4)                  1.0331                                         !
 ! R4    R(1,5)                  1.5064                                         !
 ! R5    R(5,6)                  1.0927                                         !
 ! R6    R(5,7)                  1.5618                                         !
 ! R7    R(5,8)                  1.5461                                         !
 ! R8    R(7,10)                 1.239                                          !
 ! R9    R(7,17)                 1.3258                                         !
 ! R10   R(8,9)                  1.0978                                         !
 ! R11   R(8,11)                 1.528                                          !
 ! R12   R(8,15)                 1.4288                                         !
 ! R13   R(11,12)                1.0953                                         !
 ! R14   R(11,13)                1.0963                                         !
 ! R15   R(11,14)                1.0953                                         !
 ! R16   R(15,16)                0.9703                                         !
 ! R17   R(17,18)                1.022                                          !
 ! R18   R(17,19)                1.4691                                         !
 ! R19   R(19,20)                1.0944                                         !
 ! R20   R(19,21)                1.5507                                         !
 ! R21   R(19,22)                1.5617                                         !
 ! R22   R(21,24)                1.2392                                         !
 ! R23   R(21,36)                1.3383                                         !
 ! R24   R(22,23)                1.1003                                         !
 ! R25   R(22,25)                1.5445                                         !
 ! R26   R(22,28)                1.5376                                         !
 ! R27   R(25,26)                1.0966                                         !
 ! R28   R(25,27)                1.0986                                         !
 ! R29   R(25,32)                1.5339                                         !
 ! R30   R(28,29)                1.098                                          !
 ! R31   R(28,30)                1.0924                                         !
 ! R32   R(28,31)                1.0927                                         !
 ! R33   R(32,33)                1.0953                                         !
 ! R34   R(32,34)                1.094                                          !
 ! R35   R(32,35)                1.0969                                         !
 ! R36   R(36,37)                1.0196                                         !
 ! R37   R(36,38)                1.4595                                         !
 ! R38   R(38,39)                1.0959                                         !
 ! R39   R(38,40)                1.5455                                         !
 ! R40   R(38,41)                1.5374                                         !
 ! R41   R(40,45)                1.2347                                         !
 ! R42   R(40,46)                1.3429                                         !
 ! R43   R(41,42)                1.0947                                         !
 ! R44   R(41,43)                1.0948                                         !
 ! R45   R(41,44)                1.0936                                         !
 ! R46   R(46,47)                1.0163                                         !
 ! R47   R(46,48)                1.4585                                         !
 ! R48   R(48,49)                1.0957                                         !
 ! R49   R(48,50)                1.5403                                         !
 ! R50   R(48,51)                1.5524                                         !
 ! R51   R(50,54)                1.2312                                         !
 ! R52   R(50,63)                1.3575                                         !
 ! R53   R(51,52)                1.0971                                         !
 ! R54   R(51,53)                1.0929                                         !
 ! R55   R(51,55)                1.5374                                         !
 ! R56   R(55,56)                1.0906                                         !
 ! R57   R(55,57)                1.0968                                         !
 ! R58   R(55,58)                1.5286                                         !
 ! R59   R(58,59)                1.3628                                         !
 ! R60   R(58,62)                1.2248                                         !
 ! R61   R(59,60)                1.0137                                         !
 ! R62   R(59,61)                1.0107                                         !
 ! R63   R(63,64)                1.0115                                         !
 ! R64   R(63,65)                1.4538                                         !
 ! R65   R(65,66)                1.0944                                         !
 ! R66   R(65,67)                1.5494                                         !
 ! R67   R(65,68)                1.5553                                         !
 ! R68   R(67,71)                1.2343                                         !
 ! R69   R(67,84)                1.3477                                         !
 ! R70   R(68,69)                1.0958                                         !
 ! R71   R(68,70)                1.0963                                         !
 ! R72   R(68,72)                1.5141                                         !
 ! R73   R(72,73)                1.4042                                         !
 ! R74   R(72,75)                1.4013                                         !
 ! R75   R(73,74)                1.0877                                         !
 ! R76   R(73,77)                1.3916                                         !
 ! R77   R(75,76)                1.0876                                         !
 ! R78   R(75,79)                1.3944                                         !
 ! R79   R(77,78)                1.0854                                         !
 ! R80   R(77,83)                1.3992                                         !
 ! R81   R(79,80)                1.0886                                         !
 ! R82   R(79,83)                1.3987                                         !
 ! R83   R(81,82)                0.9699                                         !
 ! R84   R(81,83)                1.3653                                         !
 ! R85   R(84,85)                1.0168                                         !
 ! R86   R(84,86)                1.456                                          !
 ! R87   R(86,87)                1.0961                                         !
 ! R88   R(86,88)                1.5445                                         !
 ! R89   R(86,89)                1.5384                                         !
 ! R90   R(88,93)                1.2405                                         !
 ! R91   R(88,94)                1.3398                                         !
 ! R92   R(89,90)                1.0948                                         !
 ! R93   R(89,91)                1.0937                                         !
 ! R94   R(89,92)                1.095                                          !
 ! R95   R(94,95)                1.022                                          !
 ! R96   R(94,96)                1.4551                                         !
 ! R97   R(96,97)                1.0991                                         !
 ! R98   R(96,98)                1.5679                                         !
 ! R99   R(96,99)                1.5625                                         !
 ! R100  R(98,102)               1.2853                                         !
 ! R101  R(98,118)               1.2339                                         !
 ! R102  R(99,100)               1.0976                                         !
 ! R103  R(99,101)               1.0927                                         !
 ! R104  R(99,103)               1.5462                                         !
 ! R105  R(103,104)              1.0969                                         !
 ! R106  R(103,105)              1.0958                                         !
 ! R107  R(103,106)              1.5408                                         !
 ! R108  R(106,107)              1.0982                                         !
 ! R109  R(106,108)              1.0975                                         !
 ! R110  R(106,109)              1.457                                          !
 ! R111  R(109,110)              1.0917                                         !
 ! R112  R(109,117)              1.3133                                         !
 ! R113  R(111,112)              1.0103                                         !
 ! R114  R(111,113)              1.0089                                         !
 ! R115  R(111,117)              1.3595                                         !
 ! R116  R(114,115)              1.0109                                         !
 ! R117  R(114,116)              1.0261                                         !
 ! R118  R(114,117)              1.3576                                         !
 ! A1    A(2,1,3)              112.1519                                         !
 ! A2    A(2,1,4)              108.3825                                         !
 ! A3    A(2,1,5)              101.9486                                         !
 ! A4    A(3,1,4)              111.0479                                         !
 ! A5    A(3,1,5)              115.1303                                         !
 ! A6    A(4,1,5)              107.6193                                         !
 ! A7    A(1,5,6)              108.8948                                         !
 ! A8    A(1,5,7)              102.7105                                         !
 ! A9    A(1,5,8)              109.0509                                         !
 ! A10   A(6,5,7)              109.5496                                         !
 ! A11   A(6,5,8)              110.8075                                         !
 ! A12   A(7,5,8)              115.3936                                         !
 ! A13   A(5,7,10)             117.2445                                         !
 ! A14   A(5,7,17)             116.0054                                         !
 ! A15   A(10,7,17)            126.7046                                         !
 ! A16   A(5,8,9)              107.925                                          !
 ! A17   A(5,8,11)             113.3451                                         !
 ! A18   A(5,8,15)             103.4792                                         !
 ! A19   A(9,8,11)             109.5741                                         !
 ! A20   A(9,8,15)             110.015                                          !
 ! A21   A(11,8,15)            112.2811                                         !
 ! A22   A(8,11,12)            111.0696                                         !
 ! A23   A(8,11,13)            111.7581                                         !
 ! A24   A(8,11,14)            110.1087                                         !
 ! A25   A(12,11,13)           108.6986                                         !
 ! A26   A(12,11,14)           107.3526                                         !
 ! A27   A(13,11,14)           107.6924                                         !
 ! A28   A(8,15,16)            109.8243                                         !
 ! A29   A(7,17,18)            121.5299                                         !
 ! A30   A(7,17,19)            125.7739                                         !
 ! A31   A(18,17,19)           110.1552                                         !
 ! A32   A(17,19,20)           108.1697                                         !
 ! A33   A(17,19,21)           102.468                                          !
 ! A34   A(17,19,22)           112.2496                                         !
 ! A35   A(20,19,21)           111.399                                          !
 ! A36   A(20,19,22)           109.7148                                         !
 ! A37   A(21,19,22)           112.6011                                         !
 ! A38   A(19,21,24)           118.8342                                         !
 ! A39   A(19,21,36)           117.0186                                         !
 ! A40   A(24,21,36)           124.1454                                         !
 ! A41   A(19,22,23)           106.6469                                         !
 ! A42   A(19,22,25)           110.9118                                         !
 ! A43   A(19,22,28)           110.9654                                         !
 ! A44   A(23,22,25)           108.0616                                         !
 ! A45   A(23,22,28)           108.6067                                         !
 ! A46   A(25,22,28)           111.458                                          !
 ! A47   A(22,25,26)           108.9487                                         !
 ! A48   A(22,25,27)           109.1547                                         !
 ! A49   A(22,25,32)           114.1971                                         !
 ! A50   A(26,25,27)           106.285                                          !
 ! A51   A(26,25,32)           108.1303                                         !
 ! A52   A(27,25,32)           109.8196                                         !
 ! A53   A(22,28,29)           111.0189                                         !
 ! A54   A(22,28,30)           112.978                                          !
 ! A55   A(22,28,31)           110.3961                                         !
 ! A56   A(29,28,30)           108.0209                                         !
 ! A57   A(29,28,31)           107.3733                                         !
 ! A58   A(30,28,31)           106.8036                                         !
 ! A59   A(25,32,33)           110.3107                                         !
 ! A60   A(25,32,34)           112.3736                                         !
 ! A61   A(25,32,35)           111.3004                                         !
 ! A62   A(33,32,34)           107.2191                                         !
 ! A63   A(33,32,35)           107.631                                          !
 ! A64   A(34,32,35)           107.7955                                         !
 ! A65   A(21,36,37)           122.0671                                         !
 ! A66   A(21,36,38)           123.6408                                         !
 ! A67   A(37,36,38)           112.7173                                         !
 ! A68   A(36,38,39)           108.3582                                         !
 ! A69   A(36,38,40)           105.0072                                         !
 ! A70   A(36,38,41)           112.1073                                         !
 ! A71   A(39,38,40)           109.7642                                         !
 ! A72   A(39,38,41)           109.1408                                         !
 ! A73   A(40,38,41)           112.3327                                         !
 ! A74   A(38,40,45)           120.2015                                         !
 ! A75   A(38,40,46)           115.8086                                         !
 ! A76   A(45,40,46)           123.9863                                         !
 ! A77   A(38,41,42)           110.8917                                         !
 ! A78   A(38,41,43)           110.6183                                         !
 ! A79   A(38,41,44)           109.5028                                         !
 ! A80   A(42,41,43)           108.4087                                         !
 ! A81   A(42,41,44)           108.3157                                         !
 ! A82   A(43,41,44)           109.0486                                         !
 ! A83   A(40,46,47)           122.5971                                         !
 ! A84   A(40,46,48)           123.2429                                         !
 ! A85   A(47,46,48)           114.0348                                         !
 ! A86   A(46,48,49)           108.5451                                         !
 ! A87   A(46,48,50)           105.2562                                         !
 ! A88   A(46,48,51)           111.0902                                         !
 ! A89   A(49,48,50)           111.4551                                         !
 ! A90   A(49,48,51)           109.6913                                         !
 ! A91   A(50,48,51)           110.7197                                         !
 ! A92   A(48,50,54)           119.9493                                         !
 ! A93   A(48,50,63)           116.4515                                         !
 ! A94   A(54,50,63)           123.5913                                         !
 ! A95   A(48,51,52)           108.0862                                         !
 ! A96   A(48,51,53)           108.154                                          !
 ! A97   A(48,51,55)           114.0935                                         !
 ! A98   A(52,51,53)           107.142                                          !
 ! A99   A(52,51,55)           110.4637                                         !
 ! A100  A(53,51,55)           108.6556                                         !
 ! A101  A(51,55,56)           111.4414                                         !
 ! A102  A(51,55,57)           109.4523                                         !
 ! A103  A(51,55,58)           110.2779                                         !
 ! A104  A(56,55,57)           108.51                                           !
 ! A105  A(56,55,58)           109.1489                                         !
 ! A106  A(57,55,58)           107.9256                                         !
 ! A107  A(55,58,59)           114.068                                          !
 ! A108  A(55,58,62)           122.2353                                         !
 ! A109  A(59,58,62)           123.6927                                         !
 ! A110  A(58,59,60)           121.6751                                         !
 ! A111  A(58,59,61)           117.9505                                         !
 ! A112  A(60,59,61)           119.3496                                         !
 ! A113  A(50,63,64)           118.4501                                         !
 ! A114  A(50,63,65)           122.3354                                         !
 ! A115  A(64,63,65)           115.9114                                         !
 ! A116  A(63,65,66)           105.8904                                         !
 ! A117  A(63,65,67)           109.043                                          !
 ! A118  A(63,65,68)           111.5856                                         !
 ! A119  A(66,65,67)           108.2902                                         !
 ! A120  A(66,65,68)           108.3291                                         !
 ! A121  A(67,65,68)           113.3774                                         !
 ! A122  A(65,67,71)           121.733                                          !
 ! A123  A(65,67,84)           115.1688                                         !
 ! A124  A(71,67,84)           123.0922                                         !
 ! A125  A(65,68,69)           106.5385                                         !
 ! A126  A(65,68,70)           108.7331                                         !
 ! A127  A(65,68,72)           114.7361                                         !
 ! A128  A(69,68,70)           106.3105                                         !
 ! A129  A(69,68,72)           110.3216                                         !
 ! A130  A(70,68,72)           109.8234                                         !
 ! A131  A(68,72,73)           121.0421                                         !
 ! A132  A(68,72,75)           121.0788                                         !
 ! A133  A(73,72,75)           117.8772                                         !
 ! A134  A(72,73,74)           119.3842                                         !
 ! A135  A(72,73,77)           121.5805                                         !
 ! A136  A(74,73,77)           119.0304                                         !
 ! A137  A(72,75,76)           119.6414                                         !
 ! A138  A(72,75,79)           121.1741                                         !
 ! A139  A(76,75,79)           119.1818                                         !
 ! A140  A(73,77,78)           121.3809                                         !
 ! A141  A(73,77,83)           119.6794                                         !
 ! A142  A(78,77,83)           118.9367                                         !
 ! A143  A(75,79,80)           119.9929                                         !
 ! A144  A(75,79,83)           120.0353                                         !
 ! A145  A(80,79,83)           119.971                                          !
 ! A146  A(82,81,83)           109.2345                                         !
 ! A147  A(77,83,79)           119.6453                                         !
 ! A148  A(77,83,81)           117.3731                                         !
 ! A149  A(79,83,81)           122.9792                                         !
 ! A150  A(67,84,85)           121.3934                                         !
 ! A151  A(67,84,86)           123.0797                                         !
 ! A152  A(85,84,86)           112.9344                                         !
 ! A153  A(84,86,87)           108.1282                                         !
 ! A154  A(84,86,88)           106.0256                                         !
 ! A155  A(84,86,89)           111.8924                                         !
 ! A156  A(87,86,88)           109.1897                                         !
 ! A157  A(87,86,89)           108.9956                                         !
 ! A158  A(88,86,89)           112.4757                                         !
 ! A159  A(86,88,93)           120.5246                                         !
 ! A160  A(86,88,94)           115.7213                                         !
 ! A161  A(93,88,94)           123.7533                                         !
 ! A162  A(86,89,90)           111.4198                                         !
 ! A163  A(86,89,91)           109.3914                                         !
 ! A164  A(86,89,92)           110.679                                          !
 ! A165  A(90,89,91)           108.2977                                         !
 ! A166  A(90,89,92)           108.3948                                         !
 ! A167  A(91,89,92)           108.5818                                         !
 ! A168  A(88,94,95)           123.1045                                         !
 ! A169  A(88,94,96)           123.7724                                         !
 ! A170  A(95,94,96)           111.1985                                         !
 ! A171  A(94,96,97)           108.1089                                         !
 ! A172  A(94,96,98)           105.9643                                         !
 ! A173  A(94,96,99)           112.5828                                         !
 ! A174  A(97,96,98)           106.9082                                         !
 ! A175  A(97,96,99)           108.1615                                         !
 ! A176  A(98,96,99)           114.7998                                         !
 ! A177  A(96,98,102)          115.0079                                         !
 ! A178  A(96,98,118)          117.8288                                         !
 ! A179  A(102,98,118)         127.1523                                         !
 ! A180  A(96,99,100)          110.128                                          !
 ! A181  A(96,99,101)          107.0905                                         !
 ! A182  A(96,99,103)          114.794                                          !
 ! A183  A(100,99,101)         106.3123                                         !
 ! A184  A(100,99,103)         110.4399                                         !
 ! A185  A(101,99,103)         107.6436                                         !
 ! A186  A(99,103,104)         109.4166                                         !
 ! A187  A(99,103,105)         108.582                                          !
 ! A188  A(99,103,106)         115.57                                           !
 ! A189  A(104,103,105)        106.3582                                         !
 ! A190  A(104,103,106)        106.3436                                         !
 ! A191  A(105,103,106)        110.173                                          !
 ! A192  A(103,106,107)        109.778                                          !
 ! A193  A(103,106,108)        109.4217                                         !
 ! A194  A(103,106,109)        111.3593                                         !
 ! A195  A(107,106,108)        107.1807                                         !
 ! A196  A(107,106,109)        108.3947                                         !
 ! A197  A(108,106,109)        110.6087                                         !
 ! A198  A(106,109,110)        118.3982                                         !
 ! A199  A(106,109,117)        129.4156                                         !
 ! A200  A(110,109,117)        112.1179                                         !
 ! A201  A(112,111,113)        115.8168                                         !
 ! A202  A(112,111,117)        118.2449                                         !
 ! A203  A(113,111,117)        119.0439                                         !
 ! A204  A(115,114,116)        116.5966                                         !
 ! A205  A(115,114,117)        118.0262                                         !
 ! A206  A(116,114,117)        114.6346                                         !
 ! A207  A(109,117,111)        123.9657                                         !
 ! A208  A(109,117,114)        118.0692                                         !
 ! A209  A(111,117,114)        117.9651                                         !
 ! D1    D(2,1,5,6)            107.1874                                         !
 ! D2    D(2,1,5,7)             -8.9017                                         !
 ! D3    D(2,1,5,8)           -131.7876                                         !
 ! D4    D(3,1,5,6)            -14.4792                                         !
 ! D5    D(3,1,5,7)           -130.5683                                         !
 ! D6    D(3,1,5,8)            106.5458                                         !
 ! D7    D(4,1,5,6)           -138.8953                                         !
 ! D8    D(4,1,5,7)            105.0156                                         !
 ! D9    D(4,1,5,8)            -17.8703                                         !
 ! D10   D(1,5,7,10)             5.8926                                         !
 ! D11   D(1,5,7,17)          -176.3962                                         !
 ! D12   D(6,5,7,10)          -109.7252                                         !
 ! D13   D(6,5,7,17)            67.986                                          !
 ! D14   D(8,5,7,10)           124.4124                                         !
 ! D15   D(8,5,7,17)           -57.8764                                         !
 ! D16   D(1,5,8,9)            157.6466                                         !
 ! D17   D(1,5,8,11)           -80.8113                                         !
 ! D18   D(1,5,8,15)            41.0664                                         !
 ! D19   D(6,5,8,9)            -82.5037                                         !
 ! D20   D(6,5,8,11)            39.0384                                         !
 ! D21   D(6,5,8,15)           160.9161                                         !
 ! D22   D(7,5,8,9)             42.7114                                         !
 ! D23   D(7,5,8,11)           164.2535                                         !
 ! D24   D(7,5,8,15)           -73.8688                                         !
 ! D25   D(5,7,17,18)           11.2921                                         !
 ! D26   D(5,7,17,19)          171.3953                                         !
 ! D27   D(10,7,17,18)        -171.2462                                         !
 ! D28   D(10,7,17,19)         -11.143                                          !
 ! D29   D(5,8,11,12)          -62.8546                                         !
 ! D30   D(5,8,11,13)           58.7247                                         !
 ! D31   D(5,8,11,14)          178.3673                                         !
 ! D32   D(9,8,11,12)           57.7587                                         !
 ! D33   D(9,8,11,13)          179.338                                          !
 ! D34   D(9,8,11,14)          -61.0194                                         !
 ! D35   D(15,8,11,12)        -179.6757                                         !
 ! D36   D(15,8,11,13)         -58.0964                                         !
 ! D37   D(15,8,11,14)          61.5462                                         !
 ! D38   D(5,8,15,16)         -179.7878                                         !
 ! D39   D(9,8,15,16)           65.1156                                         !
 ! D40   D(11,8,15,16)         -57.2003                                         !
 ! D41   D(7,17,19,20)         -16.4561                                         !
 ! D42   D(7,17,19,21)        -134.2213                                         !
 ! D43   D(7,17,19,22)         104.7335                                         !
 ! D44   D(18,17,19,20)        145.5445                                         !
 ! D45   D(18,17,19,21)         27.7793                                         !
 ! D46   D(18,17,19,22)        -93.266                                          !
 ! D47   D(17,19,21,24)        -26.6093                                         !
 ! D48   D(17,19,21,36)        152.925                                          !
 ! D49   D(20,19,21,24)       -142.0551                                         !
 ! D50   D(20,19,21,36)         37.4792                                         !
 ! D51   D(22,19,21,24)         94.1939                                         !
 ! D52   D(22,19,21,36)        -86.2719                                         !
 ! D53   D(17,19,22,23)         64.511                                          !
 ! D54   D(17,19,22,25)        -52.9193                                         !
 ! D55   D(17,19,22,28)       -177.3763                                         !
 ! D56   D(20,19,22,23)       -175.1911                                         !
 ! D57   D(20,19,22,25)         67.3787                                         !
 ! D58   D(20,19,22,28)        -57.0784                                         !
 ! D59   D(21,19,22,23)        -50.5112                                         !
 ! D60   D(21,19,22,25)       -167.9415                                         !
 ! D61   D(21,19,22,28)         67.6015                                         !
 ! D62   D(19,21,36,37)          6.6319                                         !
 ! D63   D(19,21,36,38)        171.2705                                         !
 ! D64   D(24,21,36,37)       -173.8611                                         !
 ! D65   D(24,21,36,38)         -9.2225                                         !
 ! D66   D(19,22,25,26)         52.9887                                         !
 ! D67   D(19,22,25,27)        -62.6766                                         !
 ! D68   D(19,22,25,32)        173.9846                                         !
 ! D69   D(23,22,25,26)        -63.5737                                         !
 ! D70   D(23,22,25,27)       -179.2391                                         !
 ! D71   D(23,22,25,32)         57.4221                                         !
 ! D72   D(28,22,25,26)        177.1657                                         !
 ! D73   D(28,22,25,27)         61.5003                                         !
 ! D74   D(28,22,25,32)        -61.8385                                         !
 ! D75   D(19,22,28,29)         62.4982                                         !
 ! D76   D(19,22,28,30)        -59.0291                                         !
 ! D77   D(19,22,28,31)       -178.5453                                         !
 ! D78   D(23,22,28,29)        179.4154                                         !
 ! D79   D(23,22,28,30)         57.8881                                         !
 ! D80   D(23,22,28,31)        -61.6281                                         !
 ! D81   D(25,22,28,29)        -61.6486                                         !
 ! D82   D(25,22,28,30)        176.8241                                         !
 ! D83   D(25,22,28,31)         57.3079                                         !
 ! D84   D(22,25,32,33)       -173.9294                                         !
 ! D85   D(22,25,32,34)         66.4864                                         !
 ! D86   D(22,25,32,35)        -54.5261                                         !
 ! D87   D(26,25,32,33)        -52.4808                                         !
 ! D88   D(26,25,32,34)       -172.065                                          !
 ! D89   D(26,25,32,35)         66.9226                                         !
 ! D90   D(27,25,32,33)         63.0919                                         !
 ! D91   D(27,25,32,34)        -56.4924                                         !
 ! D92   D(27,25,32,35)       -177.5048                                         !
 ! D93   D(21,36,38,39)        -34.8189                                         !
 ! D94   D(21,36,38,40)       -152.0658                                         !
 ! D95   D(21,36,38,41)         85.6908                                         !
 ! D96   D(37,36,38,39)        131.0957                                         !
 ! D97   D(37,36,38,40)         13.8487                                         !
 ! D98   D(37,36,38,41)       -108.3947                                         !
 ! D99   D(36,38,40,45)        -12.1139                                         !
 ! D100  D(36,38,40,46)        168.5501                                         !
 ! D101  D(39,38,40,45)       -128.3975                                         !
 ! D102  D(39,38,40,46)         52.2665                                         !
 ! D103  D(41,38,40,45)        109.9831                                         !
 ! D104  D(41,38,40,46)        -69.3529                                         !
 ! D105  D(36,38,41,42)       -179.4557                                         !
 ! D106  D(36,38,41,43)         60.2292                                         !
 ! D107  D(36,38,41,44)        -59.9818                                         !
 ! D108  D(39,38,41,42)        -59.4009                                         !
 ! D109  D(39,38,41,43)       -179.7161                                         !
 ! D110  D(39,38,41,44)         60.073                                          !
 ! D111  D(40,38,41,42)         62.5736                                         !
 ! D112  D(40,38,41,43)        -57.7416                                         !
 ! D113  D(40,38,41,44)       -177.9525                                         !
 ! D114  D(38,40,46,47)         -2.5259                                         !
 ! D115  D(38,40,46,48)       -178.2142                                         !
 ! D116  D(45,40,46,47)        178.1662                                         !
 ! D117  D(45,40,46,48)          2.4779                                         !
 ! D118  D(40,46,48,49)        -43.6868                                         !
 ! D119  D(40,46,48,50)       -163.1192                                         !
 ! D120  D(40,46,48,51)         76.9973                                         !
 ! D121  D(47,46,48,49)        140.29                                           !
 ! D122  D(47,46,48,50)         20.8576                                         !
 ! D123  D(47,46,48,51)        -99.026                                          !
 ! D124  D(46,48,50,54)        -25.3277                                         !
 ! D125  D(46,48,50,63)        155.6604                                         !
 ! D126  D(49,48,50,54)       -142.8054                                         !
 ! D127  D(49,48,50,63)         38.1826                                         !
 ! D128  D(51,48,50,54)         94.8009                                         !
 ! D129  D(51,48,50,63)        -84.211                                          !
 ! D130  D(46,48,51,52)         72.4812                                         !
 ! D131  D(46,48,51,53)        -43.2015                                         !
 ! D132  D(46,48,51,55)       -164.2252                                         !
 ! D133  D(49,48,51,52)       -167.5134                                         !
 ! D134  D(49,48,51,53)         76.8038                                         !
 ! D135  D(49,48,51,55)        -44.2199                                         !
 ! D136  D(50,48,51,52)        -44.0966                                         !
 ! D137  D(50,48,51,53)       -159.7794                                         !
 ! D138  D(50,48,51,55)         79.1969                                         !
 ! D139  D(48,50,63,64)          5.6875                                         !
 ! D140  D(48,50,63,65)        164.3125                                         !
 ! D141  D(54,50,63,64)       -173.2848                                         !
 ! D142  D(54,50,63,65)        -14.6598                                         !
 ! D143  D(48,51,55,56)        -46.9592                                         !
 ! D144  D(48,51,55,57)         73.0691                                         !
 ! D145  D(48,51,55,58)       -168.3452                                         !
 ! D146  D(52,51,55,56)         75.0363                                         !
 ! D147  D(52,51,55,57)       -164.9353                                         !
 ! D148  D(52,51,55,58)        -46.3497                                         !
 ! D149  D(53,51,55,56)       -167.7038                                         !
 ! D150  D(53,51,55,57)        -47.6755                                         !
 ! D151  D(53,51,55,58)         70.9102                                         !
 ! D152  D(51,55,58,59)        119.8833                                         !
 ! D153  D(51,55,58,62)        -59.4068                                         !
 ! D154  D(56,55,58,59)         -2.8563                                         !
 ! D155  D(56,55,58,62)        177.8536                                         !
 ! D156  D(57,55,58,59)       -120.6013                                         !
 ! D157  D(57,55,58,62)         60.1086                                         !
 ! D158  D(55,58,59,60)         -7.6136                                         !
 ! D159  D(55,58,59,61)       -175.9548                                         !
 ! D160  D(62,58,59,60)        171.6647                                         !
 ! D161  D(62,58,59,61)          3.3235                                         !
 ! D162  D(50,63,65,66)          7.9769                                         !
 ! D163  D(50,63,65,67)       -108.3473                                         !
 ! D164  D(50,63,65,68)        125.6391                                         !
 ! D165  D(64,63,65,66)        167.1056                                         !
 ! D166  D(64,63,65,67)         50.7814                                         !
 ! D167  D(64,63,65,68)        -75.2322                                         !
 ! D168  D(63,65,67,71)         -2.8311                                         !
 ! D169  D(63,65,67,84)        176.304                                          !
 ! D170  D(66,65,67,71)       -117.6119                                         !
 ! D171  D(66,65,67,84)         61.5232                                         !
 ! D172  D(68,65,67,71)        122.1427                                         !
 ! D173  D(68,65,67,84)        -58.7222                                         !
 ! D174  D(63,65,68,69)        -58.5557                                         !
 ! D175  D(63,65,68,70)       -172.7638                                         !
 ! D176  D(63,65,68,72)         63.8344                                         !
 ! D177  D(66,65,68,69)         57.6282                                         !
 ! D178  D(66,65,68,70)        -56.58                                           !
 ! D179  D(66,65,68,72)       -179.9817                                         !
 ! D180  D(67,65,68,69)        177.8514                                         !
 ! D181  D(67,65,68,70)         63.6433                                         !
 ! D182  D(67,65,68,72)        -59.7584                                         !
 ! D183  D(65,67,84,85)         12.0395                                         !
 ! D184  D(65,67,84,86)        172.4839                                         !
 ! D185  D(71,67,84,85)       -168.8386                                         !
 ! D186  D(71,67,84,86)         -8.3942                                         !
 ! D187  D(65,68,72,73)        -85.2103                                         !
 ! D188  D(65,68,72,75)         94.2711                                         !
 ! D189  D(69,68,72,73)         35.1103                                         !
 ! D190  D(69,68,72,75)       -145.4083                                         !
 ! D191  D(70,68,72,73)        151.9727                                         !
 ! D192  D(70,68,72,75)        -28.5459                                         !
 ! D193  D(68,72,73,74)         -2.2628                                         !
 ! D194  D(68,72,73,77)        178.5513                                         !
 ! D195  D(75,72,73,74)        178.2397                                         !
 ! D196  D(75,72,73,77)         -0.9462                                         !
 ! D197  D(68,72,75,76)          1.9502                                         !
 ! D198  D(68,72,75,79)       -178.6547                                         !
 ! D199  D(73,72,75,76)       -178.5524                                         !
 ! D200  D(73,72,75,79)          0.8427                                         !
 ! D201  D(72,73,77,78)        179.6653                                         !
 ! D202  D(72,73,77,83)          0.3038                                         !
 ! D203  D(74,73,77,78)          0.4766                                         !
 ! D204  D(74,73,77,83)       -178.8849                                         !
 ! D205  D(72,75,79,80)       -179.7605                                         !
 ! D206  D(72,75,79,83)         -0.1032                                         !
 ! D207  D(76,75,79,80)         -0.3627                                         !
 ! D208  D(76,75,79,83)        179.2946                                         !
 ! D209  D(73,77,83,79)          0.4635                                         !
 ! D210  D(73,77,83,81)        179.9258                                         !
 ! D211  D(78,77,83,79)       -178.9136                                         !
 ! D212  D(78,77,83,81)          0.5487                                         !
 ! D213  D(75,79,83,77)         -0.5629                                         !
 ! D214  D(75,79,83,81)       -179.9937                                         !
 ! D215  D(80,79,83,77)        179.0945                                         !
 ! D216  D(80,79,83,81)         -0.3363                                         !
 ! D217  D(82,81,83,77)        179.7149                                         !
 ! D218  D(82,81,83,79)         -0.8422                                         !
 ! D219  D(67,84,86,87)        -30.1319                                         !
 ! D220  D(67,84,86,88)       -147.1252                                         !
 ! D221  D(67,84,86,89)         89.9129                                         !
 ! D222  D(85,84,86,87)        131.7941                                         !
 ! D223  D(85,84,86,88)         14.8007                                         !
 ! D224  D(85,84,86,89)       -108.1611                                         !
 ! D225  D(84,86,88,93)         -5.7318                                         !
 ! D226  D(84,86,88,94)        173.9464                                         !
 ! D227  D(87,86,88,93)       -122.0104                                         !
 ! D228  D(87,86,88,94)         57.6679                                         !
 ! D229  D(89,86,88,93)        116.8608                                         !
 ! D230  D(89,86,88,94)        -63.461                                          !
 ! D231  D(84,86,89,90)       -178.2997                                         !
 ! D232  D(84,86,89,91)        -58.5895                                         !
 ! D233  D(84,86,89,92)         61.0105                                         !
 ! D234  D(87,86,89,90)        -58.7637                                         !
 ! D235  D(87,86,89,91)         60.9464                                         !
 ! D236  D(87,86,89,92)       -179.4535                                         !
 ! D237  D(88,86,89,90)         62.4762                                         !
 ! D238  D(88,86,89,91)       -177.8137                                         !
 ! D239  D(88,86,89,92)        -58.2136                                         !
 ! D240  D(86,88,94,95)          8.9875                                         !
 ! D241  D(86,88,94,96)        171.7969                                         !
 ! D242  D(93,88,94,95)       -171.3459                                         !
 ! D243  D(93,88,94,96)         -8.5365                                         !
 ! D244  D(88,94,96,97)        -47.8488                                         !
 ! D245  D(88,94,96,98)       -162.1681                                         !
 ! D246  D(88,94,96,99)         71.5696                                         !
 ! D247  D(95,94,96,97)        116.7519                                         !
 ! D248  D(95,94,96,98)          2.4325                                         !
 ! D249  D(95,94,96,99)       -123.8297                                         !
 ! D250  D(94,96,98,102)      -179.4652                                         !
 ! D251  D(94,96,98,118)         1.6549                                         !
 ! D252  D(97,96,98,102)        65.3931                                         !
 ! D253  D(97,96,98,118)      -113.4869                                         !
 ! D254  D(99,96,98,102)       -54.5626                                         !
 ! D255  D(99,96,98,118)       126.5574                                         !
 ! D256  D(94,96,99,100)       112.5019                                         !
 ! D257  D(94,96,99,101)        -2.6897                                         !
 ! D258  D(94,96,99,103)      -122.1173                                         !
 ! D259  D(97,96,99,100)      -128.1102                                         !
 ! D260  D(97,96,99,101)       116.6982                                         !
 ! D261  D(97,96,99,103)        -2.7294                                         !
 ! D262  D(98,96,99,100)        -8.8514                                         !
 ! D263  D(98,96,99,101)      -124.043                                          !
 ! D264  D(98,96,99,103)       116.5294                                         !
 ! D265  D(96,99,103,104)      151.3617                                         !
 ! D266  D(96,99,103,105)       35.6687                                         !
 ! D267  D(96,99,103,106)      -88.6769                                         !
 ! D268  D(100,99,103,104)     -83.4203                                         !
 ! D269  D(100,99,103,105)     160.8867                                         !
 ! D270  D(100,99,103,106)      36.5411                                         !
 ! D271  D(101,99,103,104)      32.2427                                         !
 ! D272  D(101,99,103,105)     -83.4503                                         !
 ! D273  D(101,99,103,106)     152.2042                                         !
 ! D274  D(99,103,106,107)     -73.6695                                         !
 ! D275  D(99,103,106,108)     168.9675                                         !
 ! D276  D(99,103,106,109)      46.3769                                         !
 ! D277  D(104,103,106,107)     47.9557                                         !
 ! D278  D(104,103,106,108)    -69.4073                                         !
 ! D279  D(104,103,106,109)    168.0021                                         !
 ! D280  D(105,103,106,107)    162.8168                                         !
 ! D281  D(105,103,106,108)     45.4538                                         !
 ! D282  D(105,103,106,109)    -77.1368                                         !
 ! D283  D(103,106,109,110)    -42.3967                                         !
 ! D284  D(103,106,109,117)    134.3366                                         !
 ! D285  D(107,106,109,110)     78.4638                                         !
 ! D286  D(107,106,109,117)   -104.8029                                         !
 ! D287  D(108,106,109,110)   -164.3019                                         !
 ! D288  D(108,106,109,117)     12.4314                                         !
 ! D289  D(106,109,117,111)     11.9327                                         !
 ! D290  D(106,109,117,114)   -168.1268                                         !
 ! D291  D(110,109,117,111)   -171.169                                          !
 ! D292  D(110,109,117,114)      8.7715                                         !
 ! D293  D(112,111,117,109)   -154.124                                          !
 ! D294  D(112,111,117,114)     25.9355                                         !
 ! D295  D(113,111,117,109)     -4.3802                                         !
 ! D296  D(113,111,117,114)    175.6792                                         !
 ! D297  D(115,114,117,109)   -148.8787                                         !
 ! D298  D(115,114,117,111)     31.0654                                         !
 ! D299  D(116,114,117,109)     -5.5517                                         !
 ! D300  D(116,114,117,111)    174.3924                                         !
 --------------------------------------------------------------------------------
 Symmetry turned off by external request.
 Stoichiometry    C36H60N11O11(1+)
 Framework group  C1[X(C36H60N11O11)]
 Deg. of freedom   348
 Full point group                 C1      NOp   1
                          Input orientation:                          
 ---------------------------------------------------------------------
 Center     Atomic      Atomic             Coordinates (Angstroms)
 Number     Number       Type             X           Y           Z
 ---------------------------------------------------------------------
      1          7           0       -6.954651   -2.277354   -9.901491
      2          1           0       -7.522165   -1.646011   -9.259306
      3          1           0       -7.544183   -2.934658  -10.414496
      4          1           0       -6.413075   -1.681455  -10.548774
      5          6           0       -5.981570   -2.907159   -8.939339
      6          1           0       -6.265344   -3.950473   -8.781252
      7          6           0       -6.222039   -2.095502   -7.626814
      8          6           0       -4.555098   -2.809050   -9.527644
      9          1           0       -3.841172   -2.885110   -8.697209
     10          8           0       -7.152205   -1.277026   -7.628433
     11          6           0       -4.251888   -3.890106  -10.564036
     12          1           0       -4.293095   -4.888395  -10.115304
     13          1           0       -4.953098   -3.854007  -11.405985
     14          1           0       -3.242027   -3.753959  -10.965806
     15          8           0       -4.515501   -1.495225  -10.087813
     16          1           0       -3.647619   -1.335492  -10.491124
     17          7           0       -5.430298   -2.393252   -6.605906
     18          1           0       -4.604133   -2.983091   -6.724566
     19          6           0       -5.345809   -1.652463   -5.340074
     20          1           0       -5.807658   -0.671253   -5.487390
     21          6           0       -3.814912   -1.530670   -5.124977
     22          6           0       -6.058888   -2.399877   -4.168782
     23          1           0       -5.502941   -3.335561   -4.007104
     24          8           0       -3.071375   -2.387701   -5.623149
     25          6           0       -7.510250   -2.765047   -4.550351
     26          1           0       -7.501835   -3.310652   -5.501568
     27          1           0       -8.078924   -1.842297   -4.729500
     28          6           0       -6.009185   -1.569929   -2.875372
     29          1           0       -6.545209   -0.619398   -2.996547
     30          1           0       -4.990358   -1.344542   -2.552211
     31          1           0       -6.487694   -2.112227   -2.056307
     32          6           0       -8.235158   -3.629173   -3.510841
     33          1           0       -9.214558   -3.939292   -3.890635
     34          1           0       -8.406361   -3.094915   -2.571645
     35          1           0       -7.665207   -4.537674   -3.280642
     36          7           0       -3.382663   -0.484831   -4.410569
     37          1           0       -4.025010    0.150553   -3.938016
     38          6           0       -2.002226   -0.325516   -3.964449
     39          1           0       -1.598444   -1.317082   -3.730649
     40          6           0       -2.093825    0.519142   -2.673482
     41          6           0       -1.121008    0.337937   -5.035351
     42          1           0       -0.089133    0.438874   -4.684119
     43          1           0       -1.500637    1.334296   -5.283936
     44          1           0       -1.117812   -0.278397   -5.938677
     45          8           0       -3.151314    1.080937   -2.372548
     46          7           0       -0.968151    0.598170   -1.945387
     47          1           0       -0.116524    0.104735   -2.198622
     48          6           0       -0.882907    1.319790   -0.680794
     49          1           0       -1.400262    2.279297   -0.791524
     50          6           0        0.623547    1.517857   -0.427907
     51          6           0       -1.530919    0.506043    0.471488
     52          1           0       -0.867345   -0.334499    0.709932
     53          1           0       -2.468505    0.081903    0.103436
     54          8           0        1.437827    0.739586   -0.925084
     55          6           0       -1.826896    1.332040    1.733856
     56          1           0       -0.972527    1.948121    2.016572
     57          1           0       -2.684145    1.990192    1.547037
     58          6           0       -2.187018    0.409457    2.898277
     59          7           0       -1.350517    0.513559    3.969067
     60          1           0       -0.502075    1.066905    3.929911
     61          1           0       -1.496954   -0.114316    4.747388
     62          8           0       -3.138900   -0.359960    2.851945
     63          7           0        0.970922    2.559987    0.369658
     64          1           0        0.235200    3.088394    0.819852
     65          6           0        2.292493    2.677525    0.964030
     66          1           0        2.895071    1.882253    0.514415
     67          6           0        2.188138    2.407092    2.486096
     68          6           0        2.953407    4.043665    0.623874
     69          1           0        3.005542    4.101403   -0.469199
     70          1           0        3.989695    4.032156    0.981352
     71          8           0        1.103462    2.191428    3.034283
     72          6           0        2.231632    5.252718    1.180483
     73          6           0        1.160601    5.839317    0.487215
     74          1           0        0.869639    5.440290   -0.481867
     75          6           0        2.603888    5.815430    2.408638
     76          1           0        3.444596    5.398653    2.958477
     77          6           0        0.470231    6.932299    1.002407
     78          1           0       -0.353759    7.386556    0.461263
     79          6           0        1.922729    6.911793    2.936338
     80          1           0        2.230755    7.336125    3.890367
     81          8           0        0.139896    8.543919    2.697199
     82          1           0        0.495871    8.816842    3.557188
     83          6           0        0.848298    7.471251    2.237090
     84          7           0        3.360917    2.407923    3.150118
     85          1           0        4.214792    2.749834    2.716632
     86          6           0        3.452601    2.331387    4.601218
     87          1           0        2.558873    2.803808    5.024788
     88          6           0        4.697588    3.156744    4.993910
     89          6           0        3.531726    0.876531    5.095047
     90          1           0        3.570202    0.826840    6.188042
     91          1           0        2.646688    0.329796    4.757401
     92          1           0        4.422076    0.380297    4.695039
     93          8           0        5.442588    3.627353    4.120834
     94          7           0        4.894723    3.321867    6.308811
     95          1           0        4.353396    2.827397    7.020826
     96          6           0        6.094504    3.916219    6.878495
     97          1           0        6.967182    3.443057    6.406802
     98          6           0        6.108617    3.495762    8.388854
     99          6           0        6.179420    5.455884    6.625960
    100          1           0        6.077367    6.000272    7.573597
    101          1           0        5.312715    5.730137    6.019571
    102          8           0        7.103748    3.943177    9.068123
    103          6           0        7.445909    5.920111    5.870246
    104          1           0        7.218870    6.831331    5.303488
    105          1           0        7.711786    5.155481    5.131677
    106          6           0        8.663780    6.251380    6.754103
    107          1           0        8.498659    7.205724    7.271743
    108          1           0        9.551453    6.375479    6.120680
    109          7           0        8.889138    5.217881    7.756013
    110          1           0        8.024766    4.805339    8.279902
    111          7           0       11.243931    5.066754    7.745044
    112          1           0       11.995944    4.393158    7.706598
    113          1           0       11.319611    5.846553    7.109335
    114          7           0        9.930749    3.526998    8.896996
    115          1           0       10.684325    3.351716    9.547687
    116          1           0        8.983746    3.296737    9.217986
    117          6           0       10.009301    4.632369    8.112699
    118          8           0        5.197509    2.768288    8.792803
 ---------------------------------------------------------------------
 Rotational constants (GHZ):           0.0919740           0.0097911           0.0096928
 Standard basis: 6-31G(d) (6D, 7F)
   990 basis functions,  1864 primitive gaussians,   990 cartesian basis functions
   220 alpha electrons      220 beta electrons
       nuclear repulsion energy      7954.3279916864 Hartrees.
 NAtoms=  118 NActive=  118 NUniq=  118 SFac= 1.00D+00 NAtFMM=   60 NAOKFM=T Big=T
 Integral buffers will be    131072 words long.
 Raffenetti 2 integral format.
 Two-electron integral symmetry is turned off.
 One-electron integrals computed using PRISM.
 NBasis=   990 RedAO= T EigKep=  4.27D-04  NBF=   990
 NBsUse=   990 1.00D-06 EigRej= -1.00D+00 NBFU=   990
 Initial guess from the checkpoint file:  "conf-549.chk"
 B after Tr=     0.000000    0.000000    0.000000
         Rot=    1.000000    0.000000    0.000000    0.000000 Ang=   0.00 deg.
 Requested convergence on RMS density matrix=1.00D-08 within 128 cycles.
 Requested convergence on MAX density matrix=1.00D-06.
 Requested convergence on             energy=1.00D-06.
 No special actions if energy rises.
 SCF Done:  E(RB3LYP) =  -2837.64679927     A.U. after    1 cycles
            NFock=  1  Conv=0.71D-08     -V/T= 2.0094
 Hyperfine terms turned off by default for NAtoms > 100.

 **********************************************************************

            Population analysis using the SCF Density.

 **********************************************************************

 Alpha  occ. eigenvalues --  -19.30114 -19.25966 -19.22082 -19.20891 -19.18701
 Alpha  occ. eigenvalues --  -19.17882 -19.17344 -19.16299 -19.13417 -19.13053
 Alpha  occ. eigenvalues --  -19.12334 -14.58455 -14.48390 -14.45209 -14.44327
 Alpha  occ. eigenvalues --  -14.42766 -14.42464 -14.42108 -14.41981 -14.40688
 Alpha  occ. eigenvalues --  -14.39139 -14.37519 -10.42814 -10.40275 -10.39980
 Alpha  occ. eigenvalues --  -10.39671 -10.37919 -10.35770 -10.34990 -10.34262
 Alpha  occ. eigenvalues --  -10.33255 -10.33021 -10.31473 -10.31158 -10.31051
 Alpha  occ. eigenvalues --  -10.30774 -10.29459 -10.29421 -10.29318 -10.28963
 Alpha  occ. eigenvalues --  -10.28081 -10.28051 -10.26000 -10.25861 -10.25626
 Alpha  occ. eigenvalues --  -10.24824 -10.24638 -10.24218 -10.24168 -10.23821
 Alpha  occ. eigenvalues --  -10.23720 -10.23607 -10.23506 -10.23370 -10.23218
 Alpha  occ. eigenvalues --  -10.22920 -10.22697 -10.22426  -1.18941  -1.17168
 Alpha  occ. eigenvalues --   -1.12918  -1.12226  -1.10704  -1.10148  -1.09802
 Alpha  occ. eigenvalues --   -1.08911  -1.08692  -1.07704  -1.06054  -1.05138
 Alpha  occ. eigenvalues --   -1.04868  -1.00918  -0.99067  -0.98769  -0.98460
 Alpha  occ. eigenvalues --   -0.97479  -0.97302  -0.96646  -0.95615  -0.92971
 Alpha  occ. eigenvalues --   -0.92248  -0.89814  -0.89646  -0.86092  -0.85676
 Alpha  occ. eigenvalues --   -0.84774  -0.84369  -0.83154  -0.81619  -0.81504
 Alpha  occ. eigenvalues --   -0.79165  -0.78564  -0.78512  -0.77947  -0.76608
 Alpha  occ. eigenvalues --   -0.76404  -0.73681  -0.73611  -0.72882  -0.72367
 Alpha  occ. eigenvalues --   -0.71499  -0.71389  -0.70399  -0.69869  -0.69382
 Alpha  occ. eigenvalues --   -0.68231  -0.66616  -0.66542  -0.66271  -0.65781
 Alpha  occ. eigenvalues --   -0.65417  -0.65282  -0.65150  -0.63963  -0.63835
 Alpha  occ. eigenvalues --   -0.63566  -0.62725  -0.61839  -0.61618  -0.61473
 Alpha  occ. eigenvalues --   -0.61177  -0.60378  -0.59659  -0.58781  -0.58706
 Alpha  occ. eigenvalues --   -0.58034  -0.57991  -0.57368  -0.56695  -0.56179
 Alpha  occ. eigenvalues --   -0.56128  -0.55929  -0.55219  -0.54819  -0.54767
 Alpha  occ. eigenvalues --   -0.54209  -0.53952  -0.53311  -0.52849  -0.52604
 Alpha  occ. eigenvalues --   -0.52438  -0.52115  -0.51991  -0.51875  -0.51636
 Alpha  occ. eigenvalues --   -0.51369  -0.50893  -0.50736  -0.50389  -0.50035
 Alpha  occ. eigenvalues --   -0.49933  -0.49635  -0.49293  -0.48963  -0.48552
 Alpha  occ. eigenvalues --   -0.48536  -0.48339  -0.48231  -0.47769  -0.47738
 Alpha  occ. eigenvalues --   -0.47536  -0.47068  -0.46836  -0.46570  -0.46457
 Alpha  occ. eigenvalues --   -0.46107  -0.46087  -0.45565  -0.45278  -0.44821
 Alpha  occ. eigenvalues --   -0.44802  -0.44395  -0.44303  -0.44178  -0.44133
 Alpha  occ. eigenvalues --   -0.43725  -0.43347  -0.43320  -0.43106  -0.42812
 Alpha  occ. eigenvalues --   -0.42637  -0.42516  -0.42183  -0.41909  -0.41693
 Alpha  occ. eigenvalues --   -0.41453  -0.40743  -0.40667  -0.40202  -0.40120
 Alpha  occ. eigenvalues --   -0.40087  -0.39956  -0.39500  -0.39277  -0.39159
 Alpha  occ. eigenvalues --   -0.38898  -0.38306  -0.38105  -0.37805  -0.37792
 Alpha  occ. eigenvalues --   -0.37127  -0.35933  -0.34958  -0.34316  -0.33115
 Alpha  occ. eigenvalues --   -0.32610  -0.32341  -0.32003  -0.31287  -0.31123
 Alpha  occ. eigenvalues --   -0.30899  -0.30186  -0.29636  -0.29552  -0.28712
 Alpha  occ. eigenvalues --   -0.28621  -0.27839  -0.26904  -0.26540  -0.26156
 Alpha virt. eigenvalues --   -0.11930  -0.09479  -0.06809  -0.05140  -0.05033
 Alpha virt. eigenvalues --   -0.04955  -0.04599  -0.04213  -0.03683  -0.03174
 Alpha virt. eigenvalues --   -0.03035  -0.02038  -0.01854  -0.01606  -0.01542
 Alpha virt. eigenvalues --   -0.00047   0.00743   0.00894   0.01752   0.01789
 Alpha virt. eigenvalues --    0.02067   0.02483   0.02503   0.02634   0.02789
 Alpha virt. eigenvalues --    0.03438   0.03538   0.04147   0.04907   0.05002
 Alpha virt. eigenvalues --    0.05185   0.05234   0.05580   0.05791   0.06207
 Alpha virt. eigenvalues --    0.06341   0.06792   0.07051   0.07401   0.07739
 Alpha virt. eigenvalues --    0.07823   0.08145   0.08294   0.08611   0.08930
 Alpha virt. eigenvalues --    0.09018   0.09147   0.09432   0.09719   0.09876
 Alpha virt. eigenvalues --    0.10038   0.10226   0.10403   0.10442   0.10521
 Alpha virt. eigenvalues --    0.10613   0.10618   0.10814   0.11031   0.11162
 Alpha virt. eigenvalues --    0.11444   0.11545   0.11841   0.11915   0.12504
 Alpha virt. eigenvalues --    0.12527   0.12795   0.13166   0.13196   0.13215
 Alpha virt. eigenvalues --    0.13744   0.14338   0.14569   0.14607   0.14946
 Alpha virt. eigenvalues --    0.15223   0.15395   0.15526   0.15867   0.15957
 Alpha virt. eigenvalues --    0.16130   0.16623   0.16795   0.17039   0.17285
 Alpha virt. eigenvalues --    0.17963   0.18164   0.18531   0.18656   0.19068
 Alpha virt. eigenvalues --    0.19451   0.19702   0.19760   0.19941   0.20405
 Alpha virt. eigenvalues --    0.20763   0.20963   0.21292   0.22115   0.22221
 Alpha virt. eigenvalues --    0.22831   0.23423   0.24103   0.24445   0.25488
 Alpha virt. eigenvalues --    0.26274   0.26999   0.27301   0.28104   0.28548
 Alpha virt. eigenvalues --    0.29408   0.29593   0.29795   0.29965   0.30615
 Alpha virt. eigenvalues --    0.30877   0.31974   0.32710   0.33478   0.33555
 Alpha virt. eigenvalues --    0.34335   0.34510   0.35485   0.36210   0.36811
 Alpha virt. eigenvalues --    0.37509   0.37974   0.38369   0.39891   0.40132
 Alpha virt. eigenvalues --    0.40501   0.41865   0.42268   0.42579   0.43202
 Alpha virt. eigenvalues --    0.43497   0.43660   0.43815   0.44549   0.44750
 Alpha virt. eigenvalues --    0.45207   0.45364   0.45659   0.46169   0.46615
 Alpha virt. eigenvalues --    0.47056   0.47209   0.47404   0.47575   0.47776
 Alpha virt. eigenvalues --    0.48238   0.48337   0.48460   0.49001   0.49042
 Alpha virt. eigenvalues --    0.49300   0.49401   0.49554   0.50008   0.50423
 Alpha virt. eigenvalues --    0.50567   0.50670   0.50934   0.51380   0.51914
 Alpha virt. eigenvalues --    0.52185   0.52778   0.52956   0.53530   0.53919
 Alpha virt. eigenvalues --    0.53954   0.54069   0.54279   0.54719   0.54952
 Alpha virt. eigenvalues --    0.54994   0.55214   0.55529   0.55759   0.56199
 Alpha virt. eigenvalues --    0.56359   0.56570   0.56883   0.57034   0.57314
 Alpha virt. eigenvalues --    0.57824   0.58125   0.58348   0.58747   0.59086
 Alpha virt. eigenvalues --    0.59215   0.59291   0.59510   0.60100   0.60444
 Alpha virt. eigenvalues --    0.60555   0.60699   0.60815   0.60995   0.61375
 Alpha virt. eigenvalues --    0.61957   0.62352   0.62876   0.63013   0.63235
 Alpha virt. eigenvalues --    0.63270   0.63960   0.64281   0.64340   0.64582
 Alpha virt. eigenvalues --    0.65016   0.65272   0.65476   0.65562   0.65875
 Alpha virt. eigenvalues --    0.66328   0.66677   0.67401   0.67511   0.67657
 Alpha virt. eigenvalues --    0.68742   0.68860   0.69479   0.69785   0.70047
 Alpha virt. eigenvalues --    0.70311   0.70865   0.71218   0.71376   0.71570
 Alpha virt. eigenvalues --    0.71882   0.72177   0.72292   0.72444   0.72915
 Alpha virt. eigenvalues --    0.73479   0.73655   0.74051   0.74452   0.74479
 Alpha virt. eigenvalues --    0.75121   0.75215   0.75477   0.75667   0.75870
 Alpha virt. eigenvalues --    0.76295   0.76571   0.76928   0.77357   0.77819
 Alpha virt. eigenvalues --    0.78260   0.78297   0.78640   0.78875   0.79118
 Alpha virt. eigenvalues --    0.79244   0.79588   0.79920   0.80178   0.80274
 Alpha virt. eigenvalues --    0.80341   0.80503   0.80728   0.80847   0.80903
 Alpha virt. eigenvalues --    0.81269   0.81430   0.81666   0.82000   0.82047
 Alpha virt. eigenvalues --    0.82229   0.82546   0.82795   0.82916   0.83226
 Alpha virt. eigenvalues --    0.83536   0.83753   0.83802   0.84061   0.84401
 Alpha virt. eigenvalues --    0.84552   0.84613   0.84896   0.85062   0.85325
 Alpha virt. eigenvalues --    0.85407   0.85903   0.86140   0.86401   0.86434
 Alpha virt. eigenvalues --    0.86631   0.86793   0.87232   0.87522   0.87779
 Alpha virt. eigenvalues --    0.87851   0.88010   0.88191   0.88731   0.88945
 Alpha virt. eigenvalues --    0.89253   0.89549   0.89617   0.89978   0.90061
 Alpha virt. eigenvalues --    0.90383   0.90560   0.91346   0.91489   0.91920
 Alpha virt. eigenvalues --    0.92092   0.92213   0.92460   0.92548   0.92851
 Alpha virt. eigenvalues --    0.93541   0.93784   0.94074   0.94510   0.94863
 Alpha virt. eigenvalues --    0.95149   0.95653   0.95826   0.96250   0.96320
 Alpha virt. eigenvalues --    0.96940   0.97171   0.97612   0.97954   0.98922
 Alpha virt. eigenvalues --    0.99106   0.99428   1.00052   1.01037   1.01199
 Alpha virt. eigenvalues --    1.01303   1.01898   1.02574   1.03005   1.03551
 Alpha virt. eigenvalues --    1.03705   1.03916   1.04429   1.05268   1.06075
 Alpha virt. eigenvalues --    1.06572   1.07428   1.07534   1.07850   1.08369
 Alpha virt. eigenvalues --    1.08689   1.09634   1.09797   1.10786   1.11973
 Alpha virt. eigenvalues --    1.12071   1.12434   1.13031   1.13320   1.14253
 Alpha virt. eigenvalues --    1.14772   1.14781   1.15099   1.16012   1.16589
 Alpha virt. eigenvalues --    1.16993   1.17826   1.18608   1.19107   1.19925
 Alpha virt. eigenvalues --    1.20821   1.21071   1.22147   1.22694   1.23609
 Alpha virt. eigenvalues --    1.24159   1.24440   1.24703   1.25094   1.26256
 Alpha virt. eigenvalues --    1.26829   1.27343   1.28260   1.28361   1.28502
 Alpha virt. eigenvalues --    1.28576   1.29961   1.30850   1.31155   1.31863
 Alpha virt. eigenvalues --    1.32475   1.33417   1.33464   1.33713   1.34292
 Alpha virt. eigenvalues --    1.34658   1.35106   1.35269   1.37344   1.37580
 Alpha virt. eigenvalues --    1.37965   1.38491   1.38627   1.39849   1.39875
 Alpha virt. eigenvalues --    1.40173   1.40559   1.40926   1.41655   1.41696
 Alpha virt. eigenvalues --    1.43163   1.43491   1.43973   1.44432   1.45148
 Alpha virt. eigenvalues --    1.45521   1.46253   1.46603   1.47009   1.48028
 Alpha virt. eigenvalues --    1.48432   1.48873   1.49529   1.49729   1.49818
 Alpha virt. eigenvalues --    1.51304   1.51912   1.52429   1.52904   1.52921
 Alpha virt. eigenvalues --    1.53444   1.53779   1.54287   1.55121   1.55459
 Alpha virt. eigenvalues --    1.56394   1.57513   1.58652   1.58897   1.60386
 Alpha virt. eigenvalues --    1.60935   1.61233   1.61775   1.61914   1.62229
 Alpha virt. eigenvalues --    1.63365   1.63657   1.64828   1.65233   1.65494
 Alpha virt. eigenvalues --    1.65788   1.66092   1.66322   1.66730   1.67062
 Alpha virt. eigenvalues --    1.67666   1.68185   1.68761   1.68892   1.69140
 Alpha virt. eigenvalues --    1.69500   1.69706   1.69934   1.69993   1.70923
 Alpha virt. eigenvalues --    1.71299   1.71709   1.72263   1.72600   1.73147
 Alpha virt. eigenvalues --    1.73379   1.73790   1.74070   1.74371   1.74996
 Alpha virt. eigenvalues --    1.75280   1.75755   1.75821   1.76034   1.76466
 Alpha virt. eigenvalues --    1.76822   1.77325   1.77489   1.78639   1.78852
 Alpha virt. eigenvalues --    1.78941   1.79545   1.79877   1.80091   1.80124
 Alpha virt. eigenvalues --    1.80304   1.80742   1.81076   1.81663   1.81998
 Alpha virt. eigenvalues --    1.82017   1.82484   1.82856   1.83033   1.83198
 Alpha virt. eigenvalues --    1.83663   1.84236   1.84446   1.84937   1.85193
 Alpha virt. eigenvalues --    1.85640   1.85965   1.86165   1.86746   1.87049
 Alpha virt. eigenvalues --    1.87472   1.88206   1.88430   1.89189   1.89550
 Alpha virt. eigenvalues --    1.89706   1.89802   1.90441   1.90689   1.90838
 Alpha virt. eigenvalues --    1.91174   1.91277   1.91598   1.91834   1.92445
 Alpha virt. eigenvalues --    1.93101   1.93435   1.93884   1.93991   1.94302
 Alpha virt. eigenvalues --    1.94485   1.94977   1.95187   1.95762   1.96051
 Alpha virt. eigenvalues --    1.97087   1.97186   1.97937   1.98212   1.98719
 Alpha virt. eigenvalues --    1.98838   1.99524   1.99672   2.00077   2.01108
 Alpha virt. eigenvalues --    2.01860   2.01946   2.02158   2.02385   2.02719
 Alpha virt. eigenvalues --    2.03105   2.03722   2.03956   2.04193   2.04207
 Alpha virt. eigenvalues --    2.05076   2.05734   2.06572   2.07007   2.07318
 Alpha virt. eigenvalues --    2.08019   2.08393   2.09507   2.09664   2.09817
 Alpha virt. eigenvalues --    2.10022   2.10446   2.11752   2.11874   2.11953
 Alpha virt. eigenvalues --    2.12584   2.12958   2.13597   2.14788   2.15535
 Alpha virt. eigenvalues --    2.16406   2.16925   2.18343   2.19417   2.19510
 Alpha virt. eigenvalues --    2.19759   2.20111   2.21058   2.21265   2.21823
 Alpha virt. eigenvalues --    2.22095   2.22426   2.22598   2.22956   2.23430
 Alpha virt. eigenvalues --    2.23621   2.24050   2.24449   2.25713   2.25952
 Alpha virt. eigenvalues --    2.26811   2.27013   2.27300   2.27741   2.28134
 Alpha virt. eigenvalues --    2.28356   2.28983   2.29290   2.29521   2.30739
 Alpha virt. eigenvalues --    2.31106   2.31667   2.32442   2.33759   2.34096
 Alpha virt. eigenvalues --    2.34715   2.35132   2.35328   2.35638   2.36162
 Alpha virt. eigenvalues --    2.36851   2.37127   2.38017   2.38952   2.39392
 Alpha virt. eigenvalues --    2.39943   2.39971   2.40485   2.42197   2.42474
 Alpha virt. eigenvalues --    2.43115   2.43358   2.43443   2.44419   2.44782
 Alpha virt. eigenvalues --    2.45043   2.45643   2.46232   2.47279   2.47642
 Alpha virt. eigenvalues --    2.49982   2.50605   2.51352   2.52038   2.52512
 Alpha virt. eigenvalues --    2.53025   2.53143   2.53943   2.54191   2.55446
 Alpha virt. eigenvalues --    2.56171   2.56552   2.57061   2.57340   2.57520
 Alpha virt. eigenvalues --    2.57924   2.58757   2.59041   2.59167   2.59695
 Alpha virt. eigenvalues --    2.60367   2.61189   2.61545   2.62066   2.62412
 Alpha virt. eigenvalues --    2.62807   2.63649   2.64767   2.65292   2.65889
 Alpha virt. eigenvalues --    2.66970   2.67695   2.68611   2.70375   2.70697
 Alpha virt. eigenvalues --    2.70832   2.71660   2.72081   2.74030   2.74510
 Alpha virt. eigenvalues --    2.74820   2.75567   2.77127   2.78768   2.80125
 Alpha virt. eigenvalues --    2.81157   2.81649   2.82782   2.83003   2.83661
 Alpha virt. eigenvalues --    2.85600   2.85823   2.88180   2.88687   2.89163
 Alpha virt. eigenvalues --    2.91159   2.91904   2.92249   2.92991   2.93337
 Alpha virt. eigenvalues --    2.95681   2.95728   2.95749   2.95904   2.99809
 Alpha virt. eigenvalues --    3.01984   3.03147   3.05238   3.05921   3.07551
 Alpha virt. eigenvalues --    3.07686   3.09404   3.12038   3.14927   3.15515
 Alpha virt. eigenvalues --    3.19213   3.37084   3.64735   3.67621   3.72266
 Alpha virt. eigenvalues --    3.81583   3.82017   3.89692   3.92541   3.93622
 Alpha virt. eigenvalues --    3.94203   3.95905   3.98504   3.99634   4.01336
 Alpha virt. eigenvalues --    4.02457   4.03548   4.04345   4.05918   4.06059
 Alpha virt. eigenvalues --    4.06127   4.07484   4.08250   4.09038   4.10194
 Alpha virt. eigenvalues --    4.10957   4.11873   4.12293   4.16725   4.18575
 Alpha virt. eigenvalues --    4.19665   4.19994   4.21927   4.24025   4.24946
 Alpha virt. eigenvalues --    4.26070   4.26963   4.29663   4.31155   4.32861
 Alpha virt. eigenvalues --    4.34226   4.34956   4.35865   4.36115   4.37930
 Alpha virt. eigenvalues --    4.42413   4.43303   4.44201   4.45696   4.47825
 Alpha virt. eigenvalues --    4.51268   4.52236   4.54450   4.55271   4.57229
 Alpha virt. eigenvalues --    4.60744   4.62156   4.62900   4.64662   4.72434
          Condensed to atoms (all electrons):
 Mulliken charges:
               1
     1  N   -0.761421
     2  H    0.435312
     3  H    0.409351
     4  H    0.427641
     5  C   -0.120565
     6  H    0.224817
     7  C    0.659499
     8  C    0.101128
     9  H    0.193636
    10  O   -0.537177
    11  C   -0.474211
    12  H    0.183622
    13  H    0.156389
    14  H    0.188579
    15  O   -0.639135
    16  H    0.435081
    17  N   -0.598890
    18  H    0.370030
    19  C   -0.077132
    20  H    0.186700
    21  C    0.628026
    22  C   -0.074041
    23  H    0.141533
    24  O   -0.562506
    25  C   -0.250728
    26  H    0.116950
    27  H    0.150159
    28  C   -0.481186
    29  H    0.154868
    30  H    0.169592
    31  H    0.178375
    32  C   -0.453985
    33  H    0.154051
    34  H    0.165739
    35  H    0.150220
    36  N   -0.607251
    37  H    0.370697
    38  C   -0.052036
    39  H    0.187308
    40  C    0.631304
    41  C   -0.446281
    42  H    0.167101
    43  H    0.164738
    44  H    0.171227
    45  O   -0.546487
    46  N   -0.625386
    47  H    0.358103
    48  C   -0.043582
    49  H    0.172703
    50  C    0.611325
    51  C   -0.263885
    52  H    0.158482
    53  H    0.187555
    54  O   -0.536453
    55  C   -0.394573
    56  H    0.168525
    57  H    0.168913
    58  C    0.588624
    59  N   -0.771014
    60  H    0.379500
    61  H    0.333550
    62  O   -0.518807
    63  N   -0.585623
    64  H    0.350171
    65  C   -0.086304
    66  H    0.204531
    67  C    0.627673
    68  C   -0.369737
    69  H    0.166190
    70  H    0.162239
    71  O   -0.541499
    72  C    0.155800
    73  C   -0.201309
    74  H    0.127733
    75  C   -0.200093
    76  H    0.150353
    77  C   -0.155617
    78  H    0.144820
    79  C   -0.192661
    80  H    0.125074
    81  O   -0.637635
    82  H    0.411180
    83  C    0.353584
    84  N   -0.605415
    85  H    0.359505
    86  C   -0.049702
    87  H    0.184924
    88  C    0.620495
    89  C   -0.449514
    90  H    0.169946
    91  H    0.170358
    92  H    0.159927
    93  O   -0.568719
    94  N   -0.626519
    95  H    0.363404
    96  C   -0.046481
    97  H    0.156506
    98  C    0.606758
    99  C   -0.292871
   100  H    0.159880
   101  H    0.164901
   102  O   -0.645092
   103  C   -0.274601
   104  H    0.148330
   105  H    0.172498
   106  C   -0.154296
   107  H    0.174673
   108  H    0.136965
   109  N   -0.617076
   110  H    0.447350
   111  N   -0.756507
   112  H    0.362485
   113  H    0.364095
   114  N   -0.774922
   115  H    0.349950
   116  H    0.402401
   117  C    0.746619
   118  O   -0.533345
 Sum of Mulliken charges =   1.00000
 Mulliken charges with hydrogens summed into heavy atoms:
               1
     1  N    0.510882
     5  C    0.104252
     7  C    0.659499
     8  C    0.294764
    10  O   -0.537177
    11  C    0.054379
    15  O   -0.204054
    17  N   -0.228860
    19  C    0.109568
    21  C    0.628026
    22  C    0.067491
    24  O   -0.562506
    25  C    0.016381
    28  C    0.021649
    32  C    0.016025
    36  N   -0.236554
    38  C    0.135271
    40  C    0.631304
    41  C    0.056785
    45  O   -0.546487
    46  N   -0.267283
    48  C    0.129122
    50  C    0.611325
    51  C    0.082152
    54  O   -0.536453
    55  C   -0.057134
    58  C    0.588624
    59  N   -0.057965
    62  O   -0.518807
    63  N   -0.235452
    65  C    0.118227
    67  C    0.627673
    68  C   -0.041309
    71  O   -0.541499
    72  C    0.155800
    73  C   -0.073575
    75  C   -0.049740
    77  C   -0.010797
    79  C   -0.067587
    81  O   -0.226455
    83  C    0.353584
    84  N   -0.245910
    86  C    0.135222
    88  C    0.620495
    89  C    0.050717
    93  O   -0.568719
    94  N   -0.263114
    96  C    0.110025
    98  C    0.606758
    99  C    0.031909
   102  O   -0.645092
   103  C    0.046227
   106  C    0.157342
   109  N   -0.169726
   111  N   -0.029927
   114  N   -0.022572
   117  C    0.746619
   118  O   -0.533345
 Electronic spatial extent (au):  <R**2>=         110793.3987
 Charge=              1.0000 electrons
 Dipole moment (field-independent basis, Debye):
    X=             -2.7608    Y=             -1.1127    Z=            -31.2303  Tot=             31.3719
 Quadrupole moment (field-independent basis, Debye-Ang):
   XX=              5.8914   YY=           -245.5933   ZZ=             60.7140
   XY=            165.8952   XZ=            343.3423   YZ=            163.9106
 Traceless Quadrupole moment (field-independent basis, Debye-Ang):
   XX=             65.5540   YY=           -185.9307   ZZ=            120.3767
   XY=            165.8952   XZ=            343.3423   YZ=            163.9106
 Octapole moment (field-independent basis, Debye-Ang**2):
  XXX=           1324.1827  YYY=          -1394.9684  ZZZ=          -4174.1219  XYY=            217.7500
  XXY=             58.0122  XXZ=             94.6335  XZZ=          -1491.6120  YZZ=          -1297.5337
  YYZ=              2.7380  XYZ=            -13.2284
 Hexadecapole moment (field-independent basis, Debye-Ang**3):
 XXXX=         -14356.7071 YYYY=         -23681.5940 ZZZZ=         -25142.1701 XXXY=           2225.6969
 XXXZ=           4845.8577 YYYX=          -9435.2948 YYYZ=          -9983.5610 ZZZX=           2537.3065
 ZZZY=          -2575.2048 XXYY=          -6080.3644 XXZZ=           6892.7168 YYZZ=          -9192.2630
 XXYZ=           7306.6705 YYXZ=          -2584.1298 ZZXY=           6062.5689
 N-N= 7.954327991686D+03 E-N=-2.249461690758D+04  KE= 2.811354043323D+03
 Unable to Open any file for archive entry.
 1\1\GINC-LAC-313\SP\RB3LYP\6-31G(d)\C36H60N11O11(1+)\KENGMITH\02-Jul-2
 022\0\\# B3LYP/6-31G* guess=read geom=check nosymm integral(ultrafineg
 rid)\\Candidate Structure: Conf:549 Charge calc in gas phase\\1,1\N,0,
 -6.954650901,-2.2773540592,-9.9014905707\H,0,-7.5221647285,-1.64601071
 95,-9.2593063089\H,0,-7.5441830371,-2.934658313,-10.4144963218\H,0,-6.
 4130750576,-1.6814552585,-10.5487744904\C,0,-5.9815700935,-2.907158822
 8,-8.9393385529\H,0,-6.2653441866,-3.9504728721,-8.7812516215\C,0,-6.2
 220393207,-2.0955015942,-7.6268137106\C,0,-4.5550982894,-2.8090501168,
 -9.5276444724\H,0,-3.8411722727,-2.8851103985,-8.6972085977\O,0,-7.152
 2052452,-1.2770255873,-7.6284334961\C,0,-4.2518884436,-3.8901055246,-1
 0.5640356621\H,0,-4.2930950642,-4.8883948272,-10.1153041353\H,0,-4.953
 0977872,-3.8540071528,-11.4059849321\H,0,-3.2420272576,-3.7539590452,-
 10.9658056799\O,0,-4.5155013533,-1.4952248436,-10.087812587\H,0,-3.647
 6191774,-1.3354922174,-10.4911240691\N,0,-5.4302975471,-2.3932515468,-
 6.6059059556\H,0,-4.6041326522,-2.9830905528,-6.7245657154\C,0,-5.3458
 091701,-1.6524628733,-5.3400738769\H,0,-5.8076577022,-0.6712530264,-5.
 4873895538\C,0,-3.8149117623,-1.5306702524,-5.124976929\C,0,-6.0588882
 862,-2.3998765475,-4.1687822574\H,0,-5.50294075,-3.3355612023,-4.00710
 3598\O,0,-3.0713754764,-2.3877008997,-5.6231487984\C,0,-7.5102498555,-
 2.765046827,-4.5503511188\H,0,-7.5018349035,-3.3106520532,-5.501567851
 2\H,0,-8.0789238046,-1.8422967239,-4.7294995808\C,0,-6.0091846722,-1.5
 699285184,-2.8753723399\H,0,-6.5452094239,-0.6193981852,-2.9965465357\
 H,0,-4.9903580128,-1.3445419673,-2.5522106354\H,0,-6.487694417,-2.1122
 271759,-2.0563072345\C,0,-8.2351579174,-3.6291728854,-3.5108407341\H,0
 ,-9.2145582271,-3.9392924413,-3.8906352931\H,0,-8.4063610156,-3.094915
 3758,-2.5716445224\H,0,-7.6652073697,-4.5376735836,-3.2806423097\N,0,-
 3.3826629524,-0.4848306641,-4.4105694817\H,0,-4.0250101769,0.150552792
 6,-3.9380155272\C,0,-2.002226296,-0.3255155017,-3.9644491508\H,0,-1.59
 8444161,-1.3170819246,-3.7306491803\C,0,-2.0938246105,0.5191423051,-2.
 673481528\C,0,-1.121007641,0.3379374028,-5.0353508667\H,0,-0.089133393
 3,0.4388742068,-4.6841187215\H,0,-1.5006365705,1.3342956813,-5.2839355
 06\H,0,-1.1178121441,-0.2783968876,-5.9386767515\O,0,-3.1513142465,1.0
 809370567,-2.3725477681\N,0,-0.9681505216,0.5981704305,-1.9453874327\H
 ,0,-0.1165236423,0.1047351299,-2.1986223537\C,0,-0.8829069302,1.319789
 6291,-0.6807943129\H,0,-1.4002624638,2.2792967736,-0.7915241843\C,0,0.
 6235473839,1.5178571111,-0.4279071177\C,0,-1.5309185117,0.5060431184,0
 .4714884676\H,0,-0.8673449274,-0.3344992246,0.7099321649\H,0,-2.468504
 9075,0.0819031291,0.1034358904\O,0,1.4378266818,0.7395863249,-0.925083
 6044\C,0,-1.82689641,1.3320397803,1.7338560997\H,0,-0.9725269824,1.948
 1212449,2.0165716444\H,0,-2.6841449273,1.9901922372,1.5470368073\C,0,-
 2.1870176413,0.4094571646,2.8982766385\N,0,-1.3505174525,0.5135589643,
 3.9690669723\H,0,-0.5020749681,1.0669052217,3.9299108171\H,0,-1.496954
 3825,-0.11431561,4.7473878362\O,0,-3.138900406,-0.3599602474,2.8519453
 436\N,0,0.9709223887,2.55998653,0.3696583101\H,0,0.2352003889,3.088393
 5008,0.8198519542\C,0,2.2924930773,2.6775254594,0.9640304102\H,0,2.895
 0712495,1.8822526898,0.5144152219\C,0,2.1881384661,2.4070917915,2.4860
 960857\C,0,2.9534074901,4.0436650839,0.6238744018\H,0,3.0055420257,4.1
 014027418,-0.4691990283\H,0,3.9896946142,4.0321560864,0.9813522252\O,0
 ,1.1034624515,2.1914279207,3.0342825686\C,0,2.2316315321,5.2527179182,
 1.1804831481\C,0,1.1606011147,5.8393165566,0.4872152081\H,0,0.86963874
 52,5.4402903532,-0.4818668189\C,0,2.6038878499,5.8154301284,2.40863814
 71\H,0,3.4445961013,5.3986534266,2.9584770619\C,0,0.4702308232,6.93229
 88855,1.0024068234\H,0,-0.3537591632,7.3865564786,0.4612633429\C,0,1.9
 227288598,6.9117928338,2.9363375652\H,0,2.2307550463,7.336125293,3.890
 3673915\O,0,0.1398959796,8.543919402,2.697198524\H,0,0.4958714379,8.81
 6841778,3.5571876946\C,0,0.8482982453,7.4712507979,2.2370895294\N,0,3.
 3609174555,2.4079225836,3.1501178552\H,0,4.2147924156,2.7498343899,2.7
 166315984\C,0,3.4526009445,2.3313867882,4.6012184053\H,0,2.5588726545,
 2.8038084584,5.0247879322\C,0,4.6975880935,3.1567437982,4.9939095901\C
 ,0,3.531725871,0.8765310729,5.095046893\H,0,3.5702017515,0.8268404518,
 6.1880415566\H,0,2.6466880967,0.3297955738,4.7574011119\H,0,4.42207579
 36,0.380297364,4.6950390093\O,0,5.442587962,3.6273530552,4.1208344311\
 N,0,4.8947231707,3.3218670244,6.3088109277\H,0,4.3533963135,2.82739726
 4,7.0208260348\C,0,6.0945038575,3.9162190734,6.8784954544\H,0,6.967182
 2148,3.4430565359,6.4068017791\C,0,6.1086167768,3.4957615532,8.3888542
 919\C,0,6.179419887,5.455883847,6.6259602273\H,0,6.0773669905,6.000271
 6137,7.5735972543\H,0,5.3127145806,5.7301366287,6.0195706247\O,0,7.103
 7483394,3.9431772752,9.0681234485\C,0,7.4459085123,5.9201114752,5.8702
 463179\H,0,7.2188697148,6.8313310024,5.3034883581\H,0,7.7117860592,5.1
 554805285,5.1316768173\C,0,8.6637802228,6.2513797797,6.7541029158\H,0,
 8.4986586347,7.2057239495,7.2717431588\H,0,9.5514527971,6.375478881,6.
 1206796235\N,0,8.8891378814,5.217881202,7.7560125133\H,0,8.0247663286,
 4.805338698,8.2799017389\N,0,11.2439307495,5.0667536641,7.7450441174\H
 ,0,11.9959441767,4.3931583618,7.7065978421\H,0,11.3196109199,5.8465530
 786,7.1093352176\N,0,9.9307486388,3.5269975654,8.8969964534\H,0,10.684
 3253517,3.3517164458,9.5476874832\H,0,8.9837464657,3.2967370383,9.2179
 855588\C,0,10.0093005053,4.6323686653,8.1126985964\O,0,5.1975089409,2.
 7682878828,8.7928025393\\Version=ES64L-G16RevC.01\HF=-2837.6467993\RMS
 D=7.145e-09\Dipole=-1.7985735,-3.5247676,-12.8420014\Quadrupole=48.737
 8075,-138.2349013,89.4970938,123.3389937,255.2666165,121.8635384\PG=C0
 1 [X(C36H60N11O11)]\\@
 The archive entry for this job was punched.


 A FOOL CAN ASK MORE QUESTIONS THAN
 A WISE MAN CAN ANSWER.
 Job cpu time:       0 days  0 hours  3 minutes 15.5 seconds.
 Elapsed time:       0 days  0 hours  0 minutes 49.7 seconds.
 File lengths (MBytes):  RWF=    624 Int=      0 D2E=      0 Chk=     96 Scr=     16
 Normal termination of Gaussian 16 at Sat Jul  2 15:32:32 2022.
