 Entering Gaussian System, Link 0=/opt/software/Gaussian/g16-AVX-C.01/g16/g16
 Input=charge-conf-234.com
 Output=charge-conf-234.log
 Initial command:
 /opt/software/Gaussian/g16-AVX-C.01/g16/l1.exe "/mnt/gs18/scratch/users/kengmith/Gau-39591.inp" -scrdir="/mnt/gs18/scratch/users/kengmith/"
 Entering Link 1 = /opt/software/Gaussian/g16-AVX-C.01/g16/l1.exe PID=     39617.
  
 Copyright (c) 1988-2019, Gaussian, Inc.  All Rights Reserved.
  
 This is part of the Gaussian(R) 16 program.  It is based on
 the Gaussian(R) 09 system (copyright 2009, Gaussian, Inc.),
 the Gaussian(R) 03 system (copyright 2003, Gaussian, Inc.),
 the Gaussian(R) 98 system (copyright 1998, Gaussian, Inc.),
 the Gaussian(R) 94 system (copyright 1995, Gaussian, Inc.),
 the Gaussian 92(TM) system (copyright 1992, Gaussian, Inc.),
 the Gaussian 90(TM) system (copyright 1990, Gaussian, Inc.),
 the Gaussian 88(TM) system (copyright 1988, Gaussian, Inc.),
 the Gaussian 86(TM) system (copyright 1986, Carnegie Mellon
 University), and the Gaussian 82(TM) system (copyright 1983,
 Carnegie Mellon University). Gaussian is a federally registered
 trademark of Gaussian, Inc.
  
 This software contains proprietary and confidential information,
 including trade secrets, belonging to Gaussian, Inc.
  
 This software is provided under written license and may be
 used, copied, transmitted, or stored only in accord with that
 written license.
  
 The following legend is applicable only to US Government
 contracts under FAR:
  
                    RESTRICTED RIGHTS LEGEND
  
 Use, reproduction and disclosure by the US Government is
 subject to restrictions as set forth in subparagraphs (a)
 and (c) of the Commercial Computer Software - Restricted
 Rights clause in FAR 52.227-19.
  
 Gaussian, Inc.
 340 Quinnipiac St., Bldg. 40, Wallingford CT 06492
  
  
 ---------------------------------------------------------------
 Warning -- This program may not be used in any manner that
 competes with the business of Gaussian, Inc. or will provide
 assistance to any competitor of Gaussian, Inc.  The licensee
 of this program is prohibited from giving any competitor of
 Gaussian, Inc. access to this program.  By using this program,
 the user acknowledges that Gaussian, Inc. is engaged in the
 business of creating and licensing software in the field of
 computational chemistry and represents and warrants to the
 licensee that it is not a competitor of Gaussian, Inc. and that
 it will not use this program in any manner prohibited above.
 ---------------------------------------------------------------
  

 Cite this work as:
 Gaussian 16, Revision C.01,
 M. J. Frisch, G. W. Trucks, H. B. Schlegel, G. E. Scuseria, 
 M. A. Robb, J. R. Cheeseman, G. Scalmani, V. Barone, 
 G. A. Petersson, H. Nakatsuji, X. Li, M. Caricato, A. V. Marenich, 
 J. Bloino, B. G. Janesko, R. Gomperts, B. Mennucci, H. P. Hratchian, 
 J. V. Ortiz, A. F. Izmaylov, J. L. Sonnenberg, D. Williams-Young, 
 F. Ding, F. Lipparini, F. Egidi, J. Goings, B. Peng, A. Petrone, 
 T. Henderson, D. Ranasinghe, V. G. Zakrzewski, J. Gao, N. Rega, 
 G. Zheng, W. Liang, M. Hada, M. Ehara, K. Toyota, R. Fukuda, 
 J. Hasegawa, M. Ishida, T. Nakajima, Y. Honda, O. Kitao, H. Nakai, 
 T. Vreven, K. Throssell, J. A. Montgomery, Jr., J. E. Peralta, 
 F. Ogliaro, M. J. Bearpark, J. J. Heyd, E. N. Brothers, K. N. Kudin, 
 V. N. Staroverov, T. A. Keith, R. Kobayashi, J. Normand, 
 K. Raghavachari, A. P. Rendell, J. C. Burant, S. S. Iyengar, 
 J. Tomasi, M. Cossi, J. M. Millam, M. Klene, C. Adamo, R. Cammi, 
 J. W. Ochterski, R. L. Martin, K. Morokuma, O. Farkas, 
 J. B. Foresman, and D. J. Fox, Gaussian, Inc., Wallingford CT, 2019.
 
 ******************************************
 Gaussian 16:  ES64L-G16RevC.01  3-Jul-2019
                 2-Jul-2022 
 ******************************************
 %mem=8gb
 %nproc=4
 Will use up to    4 processors via shared memory.
 %chk=conf-234.chk
 -------------------------------------------------------------------
 # B3LYP/6-31G* guess=read geom=check nosymm integral(ultrafinegrid)
 -------------------------------------------------------------------
 1/29=2,38=1,172=1/1;
 2/12=2,15=1,40=1/2;
 3/5=1,6=6,7=1,11=2,14=-4,25=1,30=1,74=-5,75=-5,116=-2/1,2,3;
 4/5=1/1;
 5/5=2,38=6/2;
 6/7=2,8=2,9=2,10=2,28=1/1;
 99/5=1,9=1/99;
 ------------------------------------------------------
 Candidate Structure: Conf:234 Charge calc in gas phase
 ------------------------------------------------------
 Structure from the checkpoint file:  "conf-234.chk"
 Charge =  1 Multiplicity = 1
 Redundant internal coordinates found in file.  (old form).
 N,0,-8.0793232835,-2.3582442816,-9.078910384
 H,0,-8.3103340711,-3.3312599401,-9.296194008
 H,0,-8.2437934308,-1.7610168007,-9.9084090122
 H,0,-8.632979703,-2.0651855403,-8.2349339021
 C,0,-6.6510848004,-2.1625315268,-8.6483173453
 H,0,-6.0408069754,-2.9610780125,-9.0778271068
 C,0,-6.7204204307,-2.2070704835,-7.1008823482
 C,0,-6.2051894218,-0.7632891357,-9.1870737283
 H,0,-6.665601618,-0.0019311993,-8.5468195807
 O,0,-7.8253269991,-1.9975522347,-6.5813284502
 C,0,-4.6925309424,-0.5890317681,-9.2083276295
 H,0,-4.2530319283,-0.6793010293,-8.2103127179
 H,0,-4.2191622184,-1.3382547896,-9.8566678219
 H,0,-4.4483628659,0.4058552163,-9.591620732
 O,0,-6.800477507,-0.5766772633,-10.4737791006
 H,0,-6.1585836922,-0.8082103874,-11.1657550142
 N,0,-5.5756336822,-2.4286027904,-6.4671770948
 H,0,-4.6837911439,-2.5022705517,-6.9625126332
 C,0,-5.3717914321,-2.2995998269,-5.0211304803
 H,0,-6.0344911148,-1.5092841232,-4.6571254838
 C,0,-3.8936606744,-1.8497416872,-4.909035394
 C,0,-5.7119947432,-3.6320201147,-4.2833503349
 H,0,-6.7136757853,-3.8936251236,-4.65287227
 O,0,-3.1513250465,-1.9417275837,-5.8978758911
 C,0,-5.8282333438,-3.4887293223,-2.7501811774
 H,0,-4.8459778351,-3.2788341702,-2.3083555893
 H,0,-6.1122568082,-4.4773256265,-2.3678448458
 C,0,-4.743765949,-4.7621658722,-4.6616347129
 H,0,-3.7320912463,-4.5689846547,-4.2868977471
 H,0,-4.6776325647,-4.9022486149,-5.7462344551
 H,0,-5.0808089267,-5.7083751672,-4.2262048714
 C,0,-6.8560147021,-2.4612972494,-2.2583496519
 H,0,-6.9729334871,-2.5304111052,-1.1724337409
 H,0,-7.8394843449,-2.6303858015,-2.7129538989
 H,0,-6.564213405,-1.4266390579,-2.4774226449
 N,0,-3.5007805408,-1.3758017176,-3.7215367651
 H,0,-4.1140817832,-1.362904722,-2.9086594118
 C,0,-2.1206426699,-1.0275136209,-3.4018886468
 H,0,-1.4596709584,-1.7667258934,-3.8678147085
 C,0,-2.0201699779,-1.13164651,-1.864183242
 C,0,-1.745429261,0.3765432383,-3.9070889756
 H,0,-0.7077542528,0.6191750149,-3.6567202226
 H,0,-2.3948256997,1.1337114516,-3.4556777745
 H,0,-1.8551334069,0.4145540084,-4.9942004884
 O,0,-3.0424077397,-1.2258591054,-1.1771770142
 N,0,-0.7690054898,-1.1088754402,-1.3718789397
 H,0,0.0207879338,-0.8921910771,-1.9774812984
 C,0,-0.4384485644,-0.9487332979,0.0398108216
 H,0,-1.2940290678,-0.482106822,0.540711334
 C,0,0.7815219765,0.0003406705,0.0700761007
 C,0,-0.0916574115,-2.2901507669,0.7224093067
 H,0,0.3290501172,-2.0818008967,1.7139600047
 H,0,0.6922647654,-2.7938045481,0.1476234735
 O,0,1.4500801484,0.1931035161,-0.9501367999
 C,0,-1.2848582705,-3.2415701985,0.8646893132
 H,0,-2.0198820551,-2.8429321027,1.574624663
 H,0,-1.8058042566,-3.3359841528,-0.0952329928
 C,0,-0.8197044588,-4.6441257578,1.2615596594
 N,0,-1.6293736083,-5.3038957425,2.1433581596
 H,0,-2.3637137772,-4.8357389638,2.6522894462
 H,0,-1.3261251717,-6.2109037059,2.4717327188
 O,0,0.1818384869,-5.1563733878,0.7820313915
 N,0,1.0566798798,0.5542332098,1.2637354293
 H,0,0.5072321334,0.3600787569,2.0978210705
 C,0,2.2321425924,1.372800676,1.5205619512
 H,0,3.0892750046,0.9255951887,1.0062519097
 C,0,2.437957019,1.3169539928,3.0482506595
 C,0,2.0329997,2.8223274644,0.9872612667
 H,0,1.2293194231,3.2949670112,1.5635427973
 H,0,1.6769380617,2.7157355309,-0.0434180046
 O,0,1.5009344555,0.996486043,3.7873681901
 C,0,3.2811346358,3.6768691162,1.0174640725
 C,0,3.3977782843,4.7739706438,1.8824757757
 H,0,2.5696141098,5.0245167044,2.5413475628
 C,0,4.3638172125,3.3899420775,0.1741674041
 H,0,4.2961863157,2.5590828558,-0.525092349
 C,0,4.54898228,5.5557544763,1.9166995409
 H,0,4.6305293876,6.4081111392,2.5836259653
 C,0,5.5284704085,4.1554932555,0.2050462834
 H,0,6.3589078854,3.9119269587,-0.4552019297
 O,0,6.7430963489,6.0272633265,1.1635826884
 H,0,7.4103141828,5.6898616831,0.5455977734
 C,0,5.6251398627,5.2391925312,1.0830438444
 N,0,3.6679073771,1.6273711736,3.4938938986
 H,0,4.399726429,1.9606757819,2.8711086727
 C,0,4.0062140088,1.6826575937,4.9090942159
 H,0,3.1945180129,2.1890709892,5.4446230259
 C,0,5.2965722776,2.5155839705,5.0114610726
 C,0,4.1996485349,0.2776150269,5.5105149118
 H,0,4.4433800653,0.3348480437,6.5766158064
 H,0,3.2751614232,-0.293745275,5.3961837895
 H,0,5.011397584,-0.2482792994,4.9975338343
 O,0,5.9872556542,2.7391068412,4.0148476319
 N,0,5.5979442297,2.9599455308,6.2522119316
 H,0,5.0890549288,2.6071195573,7.058367715
 C,0,6.8929710508,3.5316866741,6.5933391861
 H,0,7.6222340866,3.1830496261,5.8571684792
 C,0,7.2993079745,2.9792607185,7.9666784697
 C,0,6.8808610022,5.0805840802,6.6195855627
 H,0,7.7226290869,5.4354488851,7.2234557171
 H,0,5.9678256709,5.400804424,7.1357091076
 O,0,8.5631218456,3.2010689089,8.3084576128
 C,0,6.9534030454,5.7216633542,5.2287220837
 H,0,6.7803742088,6.8027510086,5.326125085
 H,0,6.1561884546,5.329707463,4.58776724
 C,0,8.2859520872,5.4956154538,4.4980956695
 H,0,8.1954825201,5.8900267111,3.4794079427
 H,0,8.507396559,4.4303873091,4.4078514882
 N,0,9.4440532753,6.1304139789,5.1233260977
 H,0,9.4994254245,7.1384980886,5.0783100133
 N,0,10.1950975642,4.3263036823,6.4116232118
 H,0,11.0697709006,3.9676899301,6.7947259047
 H,0,9.0739786474,3.6423689874,7.5578697081
 N,0,11.4970392404,6.3067587573,6.133745342
 H,0,12.2248369243,5.8866645386,6.6962033759
 H,0,11.8545320777,6.8178817914,5.3355886361
 C,0,10.3744203244,5.514122898,5.9108807809
 O,0,6.5069797573,2.4075969146,8.6904095139
 Recover connectivity data from disk.
                           ----------------------------
                           !    Current Parameters    !
                           ! (Angstroms and Degrees)  !
 --------------------------                            --------------------------
 ! Name  Definition              Value                                          !
 --------------------------------------------------------------------------------
 ! R1    R(1,2)                  1.0234                                         !
 ! R2    R(1,3)                  1.0353                                         !
 ! R3    R(1,4)                  1.0511                                         !
 ! R4    R(1,5)                  1.5045                                         !
 ! R5    R(5,6)                  1.093                                          !
 ! R6    R(5,7)                  1.5496                                         !
 ! R7    R(5,8)                  1.5643                                         !
 ! R8    R(7,10)                 1.2388                                         !
 ! R9    R(7,17)                 1.3271                                         !
 ! R10   R(8,9)                  1.0962                                         !
 ! R11   R(8,11)                 1.5228                                         !
 ! R12   R(8,15)                 1.43                                           !
 ! R13   R(11,12)                1.0942                                         !
 ! R14   R(11,13)                1.0981                                         !
 ! R15   R(11,14)                1.0938                                         !
 ! R16   R(15,16)                0.9718                                         !
 ! R17   R(17,18)                1.0228                                         !
 ! R18   R(17,19)                1.466                                          !
 ! R19   R(19,20)                1.0937                                         !
 ! R20   R(19,21)                1.5491                                         !
 ! R21   R(19,22)                1.5606                                         !
 ! R22   R(21,24)                1.2399                                         !
 ! R23   R(21,36)                1.3376                                         !
 ! R24   R(22,23)                1.0992                                         !
 ! R25   R(22,25)                1.5442                                         !
 ! R26   R(22,28)                1.5355                                         !
 ! R27   R(25,26)                1.0973                                         !
 ! R28   R(25,27)                1.0973                                         !
 ! R29   R(25,32)                1.5342                                         !
 ! R30   R(28,29)                1.096                                          !
 ! R31   R(28,30)                1.0956                                         !
 ! R32   R(28,31)                1.0948                                         !
 ! R33   R(32,33)                1.0944                                         !
 ! R34   R(32,34)                1.0966                                         !
 ! R35   R(32,35)                1.0971                                         !
 ! R36   R(36,37)                1.0184                                         !
 ! R37   R(36,38)                1.4589                                         !
 ! R38   R(38,39)                1.0956                                         !
 ! R39   R(38,40)                1.5445                                         !
 ! R40   R(38,41)                1.5386                                         !
 ! R41   R(40,45)                1.2352                                         !
 ! R42   R(40,46)                1.3447                                         !
 ! R43   R(41,42)                1.0947                                         !
 ! R44   R(41,43)                1.0949                                         !
 ! R45   R(41,44)                1.0933                                         !
 ! R46   R(46,47)                1.0186                                         !
 ! R47   R(46,48)                1.4587                                         !
 ! R48   R(48,49)                1.0957                                         !
 ! R49   R(48,50)                1.546                                          !
 ! R50   R(48,51)                1.5445                                         !
 ! R51   R(50,54)                1.2349                                         !
 ! R52   R(50,63)                1.3444                                         !
 ! R53   R(51,52)                1.0971                                         !
 ! R54   R(51,53)                1.0948                                         !
 ! R55   R(51,55)                1.5327                                         !
 ! R56   R(55,56)                1.0969                                         !
 ! R57   R(55,57)                1.0962                                         !
 ! R58   R(55,58)                1.53                                           !
 ! R59   R(58,59)                1.3669                                         !
 ! R60   R(58,62)                1.2229                                         !
 ! R61   R(59,60)                1.0087                                         !
 ! R62   R(59,61)                1.0112                                         !
 ! R63   R(63,64)                1.0175                                         !
 ! R64   R(63,65)                1.4552                                         !
 ! R65   R(65,66)                1.0951                                         !
 ! R66   R(65,67)                1.5425                                         !
 ! R67   R(65,68)                1.5573                                         !
 ! R68   R(67,71)                1.2357                                         !
 ! R69   R(67,84)                1.3445                                         !
 ! R70   R(68,69)                1.0961                                         !
 ! R71   R(68,70)                1.0956                                         !
 ! R72   R(68,72)                1.5129                                         !
 ! R73   R(72,73)                1.402                                          !
 ! R74   R(72,75)                1.402                                          !
 ! R75   R(73,74)                1.0875                                         !
 ! R76   R(73,77)                1.392                                          !
 ! R77   R(75,76)                1.0881                                         !
 ! R78   R(75,79)                1.3941                                         !
 ! R79   R(77,78)                1.0853                                         !
 ! R80   R(77,83)                1.3976                                         !
 ! R81   R(79,80)                1.0885                                         !
 ! R82   R(79,83)                1.3981                                         !
 ! R83   R(81,82)                0.97                                           !
 ! R84   R(81,83)                1.3702                                         !
 ! R85   R(84,85)                1.0171                                         !
 ! R86   R(84,86)                1.4561                                         !
 ! R87   R(86,87)                1.0964                                         !
 ! R88   R(86,88)                1.5392                                         !
 ! R89   R(86,89)                1.5405                                         !
 ! R90   R(88,93)                1.233                                          !
 ! R91   R(88,94)                1.3519                                         !
 ! R92   R(89,90)                1.0951                                         !
 ! R93   R(89,91)                1.0928                                         !
 ! R94   R(89,92)                1.0948                                         !
 ! R95   R(94,95)                1.0165                                         !
 ! R96   R(94,96)                1.4561                                         !
 ! R97   R(96,97)                1.0933                                         !
 ! R98   R(96,98)                1.535                                          !
 ! R99   R(96,99)                1.5492                                         !
 ! R100  R(98,102)               1.3279                                         !
 ! R101  R(98,118)               1.2159                                         !
 ! R102  R(99,100)               1.0951                                         !
 ! R103  R(99,101)               1.0966                                         !
 ! R104  R(99,103)               1.5332                                         !
 ! R105  R(103,104)              1.0992                                         !
 ! R106  R(103,105)              1.0954                                         !
 ! R107  R(103,106)              1.5364                                         !
 ! R108  R(106,107)              1.0961                                         !
 ! R109  R(106,108)              1.0917                                         !
 ! R110  R(106,109)              1.4612                                         !
 ! R111  R(109,110)              1.0106                                         !
 ! R112  R(109,117)              1.3659                                         !
 ! R113  R(111,112)              1.02                                           !
 ! R114  R(111,113)              1.7431                                         !
 ! R115  R(111,117)              1.3015                                         !
 ! R116  R(114,115)              1.0112                                         !
 ! R117  R(114,116)              1.013                                          !
 ! R118  R(114,117)              1.3922                                         !
 ! A1    A(2,1,3)              110.0294                                         !
 ! A2    A(2,1,4)              108.4621                                         !
 ! A3    A(2,1,5)              113.4988                                         !
 ! A4    A(3,1,4)              113.5059                                         !
 ! A5    A(3,1,5)              107.7631                                         !
 ! A6    A(4,1,5)              103.531                                          !
 ! A7    A(1,5,6)              108.8169                                         !
 ! A8    A(1,5,7)              103.8618                                         !
 ! A9    A(1,5,8)              106.7613                                         !
 ! A10   A(6,5,7)              113.3534                                         !
 ! A11   A(6,5,8)              111.0406                                         !
 ! A12   A(7,5,8)              112.4817                                         !
 ! A13   A(5,7,10)             116.991                                          !
 ! A14   A(5,7,17)             116.2978                                         !
 ! A15   A(10,7,17)            126.6801                                         !
 ! A16   A(5,8,9)              107.4813                                         !
 ! A17   A(5,8,11)             112.9741                                         !
 ! A18   A(5,8,15)             107.9373                                         !
 ! A19   A(9,8,11)             110.2364                                         !
 ! A20   A(9,8,15)             105.0746                                         !
 ! A21   A(11,8,15)            112.7076                                         !
 ! A22   A(8,11,12)            112.1358                                         !
 ! A23   A(8,11,13)            111.0008                                         !
 ! A24   A(8,11,14)            109.3127                                         !
 ! A25   A(12,11,13)           108.004                                          !
 ! A26   A(12,11,14)           107.7578                                         !
 ! A27   A(13,11,14)           108.5107                                         !
 ! A28   A(8,15,16)            109.5508                                         !
 ! A29   A(7,17,18)            122.2036                                         !
 ! A30   A(7,17,19)            125.1876                                         !
 ! A31   A(18,17,19)           111.2711                                         !
 ! A32   A(17,19,20)           107.9151                                         !
 ! A33   A(17,19,21)           103.2734                                         !
 ! A34   A(17,19,22)           111.154                                          !
 ! A35   A(20,19,21)           110.134                                          !
 ! A36   A(20,19,22)           109.118                                          !
 ! A37   A(21,19,22)           114.9442                                         !
 ! A38   A(19,21,24)           119.4733                                         !
 ! A39   A(19,21,36)           116.5768                                         !
 ! A40   A(24,21,36)           123.9499                                         !
 ! A41   A(19,22,23)           104.0588                                         !
 ! A42   A(19,22,25)           113.9888                                         !
 ! A43   A(19,22,28)           111.9917                                         !
 ! A44   A(23,22,25)           106.6929                                         !
 ! A45   A(23,22,28)           108.4584                                         !
 ! A46   A(25,22,28)           111.1218                                         !
 ! A47   A(22,25,26)           110.4952                                         !
 ! A48   A(22,25,27)           106.3683                                         !
 ! A49   A(22,25,32)           115.521                                          !
 ! A50   A(26,25,27)           105.2912                                         !
 ! A51   A(26,25,32)           110.0286                                         !
 ! A52   A(27,25,32)           108.5556                                         !
 ! A53   A(22,28,29)           111.5972                                         !
 ! A54   A(22,28,30)           112.0892                                         !
 ! A55   A(22,28,31)           110.1219                                         !
 ! A56   A(29,28,30)           107.7759                                         !
 ! A57   A(29,28,31)           107.4894                                         !
 ! A58   A(30,28,31)           107.5668                                         !
 ! A59   A(25,32,33)           110.3267                                         !
 ! A60   A(25,32,34)           111.3858                                         !
 ! A61   A(25,32,35)           112.915                                          !
 ! A62   A(33,32,34)           107.8068                                         !
 ! A63   A(33,32,35)           106.6253                                         !
 ! A64   A(34,32,35)           107.5283                                         !
 ! A65   A(21,36,37)           122.4285                                         !
 ! A66   A(21,36,38)           123.8479                                         !
 ! A67   A(37,36,38)           113.068                                          !
 ! A68   A(36,38,39)           108.4498                                         !
 ! A69   A(36,38,40)           105.2832                                         !
 ! A70   A(36,38,41)           112.1245                                         !
 ! A71   A(39,38,40)           109.7949                                         !
 ! A72   A(39,38,41)           109.204                                          !
 ! A73   A(40,38,41)           111.8736                                         !
 ! A74   A(38,40,45)           120.3335                                         !
 ! A75   A(38,40,46)           115.0794                                         !
 ! A76   A(45,40,46)           124.5871                                         !
 ! A77   A(38,41,42)           110.9974                                         !
 ! A78   A(38,41,43)           110.5515                                         !
 ! A79   A(38,41,44)           109.4962                                         !
 ! A80   A(42,41,43)           108.3399                                         !
 ! A81   A(42,41,44)           108.3507                                         !
 ! A82   A(43,41,44)           109.0503                                         !
 ! A83   A(40,46,47)           120.4894                                         !
 ! A84   A(40,46,48)           124.5418                                         !
 ! A85   A(47,46,48)           112.1069                                         !
 ! A86   A(46,48,49)           108.1925                                         !
 ! A87   A(46,48,50)           105.3771                                         !
 ! A88   A(46,48,51)           112.5343                                         !
 ! A89   A(49,48,50)           110.23                                           !
 ! A90   A(49,48,51)           110.0682                                         !
 ! A91   A(50,48,51)           110.3245                                         !
 ! A92   A(48,50,54)           120.4566                                         !
 ! A93   A(48,50,63)           115.584                                          !
 ! A94   A(54,50,63)           123.9464                                         !
 ! A95   A(48,51,52)           108.699                                          !
 ! A96   A(48,51,53)           109.1648                                         !
 ! A97   A(48,51,55)           113.9127                                         !
 ! A98   A(52,51,53)           106.6961                                         !
 ! A99   A(52,51,55)           109.4222                                         !
 ! A100  A(53,51,55)           108.6994                                         !
 ! A101  A(51,55,56)           110.8641                                         !
 ! A102  A(51,55,57)           110.0064                                         !
 ! A103  A(51,55,58)           110.8811                                         !
 ! A104  A(56,55,57)           106.2365                                         !
 ! A105  A(56,55,58)           111.6527                                         !
 ! A106  A(57,55,58)           107.0167                                         !
 ! A107  A(55,58,59)           115.4491                                         !
 ! A108  A(55,58,62)           122.0905                                         !
 ! A109  A(59,58,62)           122.4054                                         !
 ! A110  A(58,59,60)           122.1881                                         !
 ! A111  A(58,59,61)           117.698                                          !
 ! A112  A(60,59,61)           118.0863                                         !
 ! A113  A(50,63,64)           122.5956                                         !
 ! A114  A(50,63,65)           123.6265                                         !
 ! A115  A(64,63,65)           113.506                                          !
 ! A116  A(63,65,66)           108.6409                                         !
 ! A117  A(63,65,67)           105.2007                                         !
 ! A118  A(63,65,68)           111.0903                                         !
 ! A119  A(66,65,67)           110.2383                                         !
 ! A120  A(66,65,68)           108.625                                          !
 ! A121  A(67,65,68)           112.9498                                         !
 ! A122  A(65,67,71)           120.0394                                         !
 ! A123  A(65,67,84)           116.2296                                         !
 ! A124  A(71,67,84)           123.7307                                         !
 ! A125  A(65,68,69)           108.3657                                         !
 ! A126  A(65,68,70)           105.8517                                         !
 ! A127  A(65,68,72)           114.4186                                         !
 ! A128  A(69,68,70)           107.3529                                         !
 ! A129  A(69,68,72)           110.5389                                         !
 ! A130  A(70,68,72)           109.9882                                         !
 ! A131  A(68,72,73)           121.5308                                         !
 ! A132  A(68,72,75)           120.6283                                         !
 ! A133  A(73,72,75)           117.8409                                         !
 ! A134  A(72,73,74)           119.3885                                         !
 ! A135  A(72,73,77)           121.5662                                         !
 ! A136  A(74,73,77)           119.045                                          !
 ! A137  A(72,75,76)           119.6586                                         !
 ! A138  A(72,75,79)           121.2945                                         !
 ! A139  A(76,75,79)           119.0454                                         !
 ! A140  A(73,77,78)           121.2195                                         !
 ! A141  A(73,77,83)           119.6651                                         !
 ! A142  A(78,77,83)           119.1149                                         !
 ! A143  A(75,79,80)           120.069                                          !
 ! A144  A(75,79,83)           119.8241                                         !
 ! A145  A(80,79,83)           120.1066                                         !
 ! A146  A(82,81,83)           108.8881                                         !
 ! A147  A(77,83,79)           119.7967                                         !
 ! A148  A(77,83,81)           117.576                                          !
 ! A149  A(79,83,81)           122.6264                                         !
 ! A150  A(67,84,85)           122.0666                                         !
 ! A151  A(67,84,86)           122.918                                          !
 ! A152  A(85,84,86)           114.5503                                         !
 ! A153  A(84,86,87)           108.678                                          !
 ! A154  A(84,86,88)           106.2571                                         !
 ! A155  A(84,86,89)           111.9605                                         !
 ! A156  A(87,86,88)           109.7671                                         !
 ! A157  A(87,86,89)           108.8767                                         !
 ! A158  A(88,86,89)           111.2421                                         !
 ! A159  A(86,88,93)           120.9267                                         !
 ! A160  A(86,88,94)           115.1993                                         !
 ! A161  A(93,88,94)           123.8733                                         !
 ! A162  A(86,89,90)           111.1209                                         !
 ! A163  A(86,89,91)           109.2559                                         !
 ! A164  A(86,89,92)           110.3817                                         !
 ! A165  A(90,89,91)           108.5096                                         !
 ! A166  A(90,89,92)           108.4348                                         !
 ! A167  A(91,89,92)           109.0917                                         !
 ! A168  A(88,94,95)           120.1418                                         !
 ! A169  A(88,94,96)           122.8409                                         !
 ! A170  A(95,94,96)           113.3107                                         !
 ! A171  A(94,96,97)           108.0757                                         !
 ! A172  A(94,96,98)           107.6804                                         !
 ! A173  A(94,96,99)           112.929                                          !
 ! A174  A(97,96,98)           108.1248                                         !
 ! A175  A(97,96,99)           109.5999                                         !
 ! A176  A(98,96,99)           110.2872                                         !
 ! A177  A(96,98,102)          114.9673                                         !
 ! A178  A(96,98,118)          121.9538                                         !
 ! A179  A(102,98,118)         123.0618                                         !
 ! A180  A(96,99,100)          109.1072                                         !
 ! A181  A(96,99,101)          107.8448                                         !
 ! A182  A(96,99,103)          113.723                                          !
 ! A183  A(100,99,101)         106.6093                                         !
 ! A184  A(100,99,103)         109.1706                                         !
 ! A185  A(101,99,103)         110.1361                                         !
 ! A186  A(99,103,104)         108.8695                                         !
 ! A187  A(99,103,105)         110.2882                                         !
 ! A188  A(99,103,106)         114.2616                                         !
 ! A189  A(104,103,105)        106.8104                                         !
 ! A190  A(104,103,106)        108.8671                                         !
 ! A191  A(105,103,106)        107.4757                                         !
 ! A192  A(103,106,107)        108.5071                                         !
 ! A193  A(103,106,108)        111.0255                                         !
 ! A194  A(103,106,109)        114.8351                                         !
 ! A195  A(107,106,108)        106.9183                                         !
 ! A196  A(107,106,109)        107.864                                          !
 ! A197  A(108,106,109)        107.3673                                         !
 ! A198  A(106,109,110)        117.2401                                         !
 ! A199  A(106,109,117)        126.1964                                         !
 ! A200  A(110,109,117)        116.0044                                         !
 ! A201  A(112,111,113)         99.59                                           !
 ! A202  A(112,111,117)        110.3181                                         !
 ! A203  A(113,111,117)        134.4042                                         !
 ! A204  A(115,114,116)        113.1968                                         !
 ! A205  A(115,114,117)        115.6507                                         !
 ! A206  A(116,114,117)        116.4697                                         !
 ! A207  A(109,117,111)        122.6697                                         !
 ! A208  A(109,117,114)        112.6229                                         !
 ! A209  A(111,117,114)        124.6902                                         !
 ! D1    D(2,1,5,6)             25.932                                          !
 ! D2    D(2,1,5,7)            -95.0944                                         !
 ! D3    D(2,1,5,8)            145.8501                                         !
 ! D4    D(3,1,5,6)            -96.172                                          !
 ! D5    D(3,1,5,7)            142.8016                                         !
 ! D6    D(3,1,5,8)             23.7461                                         !
 ! D7    D(4,1,5,6)            143.3066                                         !
 ! D8    D(4,1,5,7)             22.2802                                         !
 ! D9    D(4,1,5,8)            -96.7753                                         !
 ! D10   D(1,5,7,10)           -19.9153                                         !
 ! D11   D(1,5,7,17)           161.9783                                         !
 ! D12   D(6,5,7,10)          -137.8466                                         !
 ! D13   D(6,5,7,17)            44.047                                          !
 ! D14   D(8,5,7,10)            95.1461                                         !
 ! D15   D(8,5,7,17)           -82.9603                                         !
 ! D16   D(1,5,8,9)             75.5538                                         !
 ! D17   D(1,5,8,11)          -162.6161                                         !
 ! D18   D(1,5,8,15)           -37.3104                                         !
 ! D19   D(6,5,8,9)           -165.971                                          !
 ! D20   D(6,5,8,11)           -44.141                                          !
 ! D21   D(6,5,8,15)            81.1647                                         !
 ! D22   D(7,5,8,9)            -37.7391                                         !
 ! D23   D(7,5,8,11)            84.091                                          !
 ! D24   D(7,5,8,15)          -150.6033                                         !
 ! D25   D(5,7,17,18)            4.0954                                         !
 ! D26   D(5,7,17,19)          169.7187                                         !
 ! D27   D(10,7,17,18)        -173.8005                                         !
 ! D28   D(10,7,17,19)          -8.1772                                         !
 ! D29   D(5,8,11,12)          -60.4573                                         !
 ! D30   D(5,8,11,13)           60.445                                          !
 ! D31   D(5,8,11,14)         -179.8934                                         !
 ! D32   D(9,8,11,12)           59.8093                                         !
 ! D33   D(9,8,11,13)         -179.2884                                         !
 ! D34   D(9,8,11,14)          -59.6268                                         !
 ! D35   D(15,8,11,12)         176.8577                                         !
 ! D36   D(15,8,11,13)         -62.24                                           !
 ! D37   D(15,8,11,14)          57.4216                                         !
 ! D38   D(5,8,15,16)          -97.5202                                         !
 ! D39   D(9,8,15,16)          148.0118                                         !
 ! D40   D(11,8,15,16)          27.9436                                         !
 ! D41   D(7,17,19,20)         -31.7002                                         !
 ! D42   D(7,17,19,21)        -148.3124                                         !
 ! D43   D(7,17,19,22)          87.9147                                         !
 ! D44   D(18,17,19,20)        135.27                                           !
 ! D45   D(18,17,19,21)         18.6579                                         !
 ! D46   D(18,17,19,22)       -105.115                                          !
 ! D47   D(17,19,21,24)        -13.7917                                         !
 ! D48   D(17,19,21,36)        166.1101                                         !
 ! D49   D(20,19,21,24)       -128.8226                                         !
 ! D50   D(20,19,21,36)         51.0792                                         !
 ! D51   D(22,19,21,24)        107.4499                                         !
 ! D52   D(22,19,21,36)        -72.6483                                         !
 ! D53   D(17,19,22,23)        -51.1994                                         !
 ! D54   D(17,19,22,25)       -167.0191                                         !
 ! D55   D(17,19,22,28)         65.7459                                         !
 ! D56   D(20,19,22,23)         67.6964                                         !
 ! D57   D(20,19,22,25)        -48.1234                                         !
 ! D58   D(20,19,22,28)       -175.3583                                         !
 ! D59   D(21,19,22,23)       -168.039                                          !
 ! D60   D(21,19,22,25)         76.1413                                         !
 ! D61   D(21,19,22,28)        -51.0937                                         !
 ! D62   D(19,21,36,37)          3.9119                                         !
 ! D63   D(19,21,36,38)        173.9823                                         !
 ! D64   D(24,21,36,37)       -176.1911                                         !
 ! D65   D(24,21,36,38)         -6.1207                                         !
 ! D66   D(19,22,25,26)        -68.73                                           !
 ! D67   D(19,22,25,27)        177.49                                           !
 ! D68   D(19,22,25,32)         56.9756                                         !
 ! D69   D(23,22,25,26)        177.0006                                         !
 ! D70   D(23,22,25,27)         63.2206                                         !
 ! D71   D(23,22,25,32)        -57.2937                                         !
 ! D72   D(28,22,25,26)         58.9535                                         !
 ! D73   D(28,22,25,27)        -54.8265                                         !
 ! D74   D(28,22,25,32)       -175.3408                                         !
 ! D75   D(19,22,28,29)         67.6452                                         !
 ! D76   D(19,22,28,30)        -53.3533                                         !
 ! D77   D(19,22,28,31)       -173.0621                                         !
 ! D78   D(23,22,28,29)       -178.0876                                         !
 ! D79   D(23,22,28,30)         60.9139                                         !
 ! D80   D(23,22,28,31)        -58.7949                                         !
 ! D81   D(25,22,28,29)        -61.1144                                         !
 ! D82   D(25,22,28,30)        177.8871                                         !
 ! D83   D(25,22,28,31)         58.1784                                         !
 ! D84   D(22,25,32,33)        171.8479                                         !
 ! D85   D(22,25,32,34)         52.1584                                         !
 ! D86   D(22,25,32,35)        -68.9529                                         !
 ! D87   D(26,25,32,33)        -62.2078                                         !
 ! D88   D(26,25,32,34)        178.1027                                         !
 ! D89   D(26,25,32,35)         56.9913                                         !
 ! D90   D(27,25,32,33)         52.5295                                         !
 ! D91   D(27,25,32,34)        -67.1601                                         !
 ! D92   D(27,25,32,35)        171.7286                                         !
 ! D93   D(21,36,38,39)        -38.6033                                         !
 ! D94   D(21,36,38,40)       -156.0715                                         !
 ! D95   D(21,36,38,41)         82.0573                                         !
 ! D96   D(37,36,38,39)        132.2944                                         !
 ! D97   D(37,36,38,40)         14.8262                                         !
 ! D98   D(37,36,38,41)       -107.045                                          !
 ! D99   D(36,38,40,45)        -12.6472                                         !
 ! D100  D(36,38,40,46)        167.4294                                         !
 ! D101  D(39,38,40,45)       -129.2005                                         !
 ! D102  D(39,38,40,46)         50.8761                                         !
 ! D103  D(41,38,40,45)        109.3864                                         !
 ! D104  D(41,38,40,46)        -70.537                                          !
 ! D105  D(36,38,41,42)        179.9347                                         !
 ! D106  D(36,38,41,43)         59.6806                                         !
 ! D107  D(36,38,41,44)        -60.4863                                         !
 ! D108  D(39,38,41,42)        -59.8422                                         !
 ! D109  D(39,38,41,43)        179.9037                                         !
 ! D110  D(39,38,41,44)         59.7368                                         !
 ! D111  D(40,38,41,42)         61.9113                                         !
 ! D112  D(40,38,41,43)        -58.3429                                         !
 ! D113  D(40,38,41,44)       -178.5097                                         !
 ! D114  D(38,40,46,47)          8.9805                                         !
 ! D115  D(38,40,46,48)        168.288                                          !
 ! D116  D(45,40,46,47)       -170.9392                                         !
 ! D117  D(45,40,46,48)        -11.6317                                         !
 ! D118  D(40,46,48,49)        -21.3268                                         !
 ! D119  D(40,46,48,50)       -139.2235                                         !
 ! D120  D(40,46,48,51)        100.5036                                         !
 ! D121  D(47,46,48,49)        139.4861                                         !
 ! D122  D(47,46,48,50)         21.5894                                         !
 ! D123  D(47,46,48,51)        -98.6835                                         !
 ! D124  D(46,48,50,54)        -17.1675                                         !
 ! D125  D(46,48,50,63)        164.0992                                         !
 ! D126  D(49,48,50,54)       -133.6831                                         !
 ! D127  D(49,48,50,63)         47.5836                                         !
 ! D128  D(51,48,50,54)        104.5492                                         !
 ! D129  D(51,48,50,63)        -74.1841                                         !
 ! D130  D(46,48,51,52)        169.2618                                         !
 ! D131  D(46,48,51,53)         53.2387                                         !
 ! D132  D(46,48,51,55)        -68.4557                                         !
 ! D133  D(49,48,51,52)        -69.9782                                         !
 ! D134  D(49,48,51,53)        173.9988                                         !
 ! D135  D(49,48,51,55)         52.3044                                         !
 ! D136  D(50,48,51,52)         51.8853                                         !
 ! D137  D(50,48,51,53)        -64.1378                                         !
 ! D138  D(50,48,51,55)        174.1678                                         !
 ! D139  D(48,50,63,64)          0.4876                                         !
 ! D140  D(48,50,63,65)        174.107                                          !
 ! D141  D(54,50,63,64)       -178.1961                                         !
 ! D142  D(54,50,63,65)         -4.5767                                         !
 ! D143  D(48,51,55,56)        -67.6801                                         !
 ! D144  D(48,51,55,57)         49.5273                                         !
 ! D145  D(48,51,55,58)        167.7068                                         !
 ! D146  D(52,51,55,56)         54.2038                                         !
 ! D147  D(52,51,55,57)        171.4113                                         !
 ! D148  D(52,51,55,58)        -70.4092                                         !
 ! D149  D(53,51,55,56)        170.3682                                         !
 ! D150  D(53,51,55,57)        -72.4243                                         !
 ! D151  D(53,51,55,58)         45.7552                                         !
 ! D152  D(51,55,58,59)        142.2944                                         !
 ! D153  D(51,55,58,62)        -40.3421                                         !
 ! D154  D(56,55,58,59)         18.1296                                         !
 ! D155  D(56,55,58,62)       -164.5069                                         !
 ! D156  D(57,55,58,59)        -97.7259                                         !
 ! D157  D(57,55,58,62)         79.6376                                         !
 ! D158  D(55,58,59,60)        -12.9277                                         !
 ! D159  D(55,58,59,61)       -176.4108                                         !
 ! D160  D(62,58,59,60)        169.7179                                         !
 ! D161  D(62,58,59,61)          6.2348                                         !
 ! D162  D(50,63,65,66)        -40.2623                                         !
 ! D163  D(50,63,65,67)       -158.2945                                         !
 ! D164  D(50,63,65,68)         79.1673                                         !
 ! D165  D(64,63,65,66)        133.8776                                         !
 ! D166  D(64,63,65,67)         15.8453                                         !
 ! D167  D(64,63,65,68)       -106.6928                                         !
 ! D168  D(63,65,67,71)        -20.1885                                         !
 ! D169  D(63,65,67,84)        159.6072                                         !
 ! D170  D(66,65,67,71)       -137.1373                                         !
 ! D171  D(66,65,67,84)         42.6584                                         !
 ! D172  D(68,65,67,71)        101.1429                                         !
 ! D173  D(68,65,67,84)        -79.0613                                         !
 ! D174  D(63,65,68,69)         65.28                                           !
 ! D175  D(63,65,68,70)        -49.6149                                         !
 ! D176  D(63,65,68,72)       -170.891                                          !
 ! D177  D(66,65,68,69)       -175.2809                                         !
 ! D178  D(66,65,68,70)         69.8242                                         !
 ! D179  D(66,65,68,72)        -51.4519                                         !
 ! D180  D(67,65,68,69)        -52.6564                                         !
 ! D181  D(67,65,68,70)       -167.5513                                         !
 ! D182  D(67,65,68,72)         71.1726                                         !
 ! D183  D(65,67,84,85)          5.2914                                         !
 ! D184  D(65,67,84,86)        177.0361                                         !
 ! D185  D(71,67,84,85)       -174.9212                                         !
 ! D186  D(71,67,84,86)         -3.1765                                         !
 ! D187  D(65,68,72,73)       -111.9626                                         !
 ! D188  D(65,68,72,75)         67.9715                                         !
 ! D189  D(69,68,72,73)         10.6953                                         !
 ! D190  D(69,68,72,75)       -169.3706                                         !
 ! D191  D(70,68,72,73)        129.0673                                         !
 ! D192  D(70,68,72,75)        -50.9985                                         !
 ! D193  D(68,72,73,74)         -0.5956                                         !
 ! D194  D(68,72,73,77)        179.6002                                         !
 ! D195  D(75,72,73,74)        179.4685                                         !
 ! D196  D(75,72,73,77)         -0.3358                                         !
 ! D197  D(68,72,75,76)          1.4555                                         !
 ! D198  D(68,72,75,79)       -178.9984                                         !
 ! D199  D(73,72,75,76)       -178.6079                                         !
 ! D200  D(73,72,75,79)          0.9381                                         !
 ! D201  D(72,73,77,78)        179.5622                                         !
 ! D202  D(72,73,77,83)         -0.6935                                         !
 ! D203  D(74,73,77,78)         -0.2426                                         !
 ! D204  D(74,73,77,83)        179.5016                                         !
 ! D205  D(72,75,79,80)        179.6999                                         !
 ! D206  D(72,75,79,83)         -0.5064                                         !
 ! D207  D(76,75,79,80)         -0.7513                                         !
 ! D208  D(76,75,79,83)        179.0424                                         !
 ! D209  D(73,77,83,79)          1.1358                                         !
 ! D210  D(73,77,83,81)       -179.211                                          !
 ! D211  D(78,77,83,79)       -179.1146                                         !
 ! D212  D(78,77,83,81)          0.5386                                         !
 ! D213  D(75,79,83,77)         -0.5476                                         !
 ! D214  D(75,79,83,81)        179.8174                                         !
 ! D215  D(80,79,83,77)        179.2461                                         !
 ! D216  D(80,79,83,81)         -0.3889                                         !
 ! D217  D(82,81,83,77)        179.1826                                         !
 ! D218  D(82,81,83,79)         -1.1747                                         !
 ! D219  D(67,84,86,87)        -42.8791                                         !
 ! D220  D(67,84,86,88)       -160.9425                                         !
 ! D221  D(67,84,86,89)         77.4224                                         !
 ! D222  D(85,84,86,87)        129.4333                                         !
 ! D223  D(85,84,86,88)         11.3699                                         !
 ! D224  D(85,84,86,89)       -110.2652                                         !
 ! D225  D(84,86,88,93)        -15.7966                                         !
 ! D226  D(84,86,88,94)        164.4949                                         !
 ! D227  D(87,86,88,93)       -133.1367                                         !
 ! D228  D(87,86,88,94)         47.1548                                         !
 ! D229  D(89,86,88,93)        106.2962                                         !
 ! D230  D(89,86,88,94)        -73.4123                                         !
 ! D231  D(84,86,89,90)       -179.4233                                         !
 ! D232  D(84,86,89,91)        -59.7249                                         !
 ! D233  D(84,86,89,92)         60.2348                                         !
 ! D234  D(87,86,89,90)        -59.2378                                         !
 ! D235  D(87,86,89,91)         60.4607                                         !
 ! D236  D(87,86,89,92)       -179.5796                                         !
 ! D237  D(88,86,89,90)         61.8525                                         !
 ! D238  D(88,86,89,91)       -178.4491                                         !
 ! D239  D(88,86,89,92)        -58.4894                                         !
 ! D240  D(86,88,94,95)         10.8332                                         !
 ! D241  D(86,88,94,96)        167.6759                                         !
 ! D242  D(93,88,94,95)       -168.8656                                         !
 ! D243  D(93,88,94,96)        -12.0229                                         !
 ! D244  D(88,94,96,97)        -21.6542                                         !
 ! D245  D(88,94,96,98)       -138.2376                                         !
 ! D246  D(88,94,96,99)         99.7585                                         !
 ! D247  D(95,94,96,97)        136.6111                                         !
 ! D248  D(95,94,96,98)         20.0277                                         !
 ! D249  D(95,94,96,99)       -101.9762                                         !
 ! D250  D(94,96,98,102)       167.7751                                         !
 ! D251  D(94,96,98,118)       -13.6873                                         !
 ! D252  D(97,96,98,102)        51.2239                                         !
 ! D253  D(97,96,98,118)      -130.2385                                         !
 ! D254  D(99,96,98,102)       -68.5981                                         !
 ! D255  D(99,96,98,118)       109.9395                                         !
 ! D256  D(94,96,99,100)       159.017                                          !
 ! D257  D(94,96,99,101)        43.5925                                         !
 ! D258  D(94,96,99,103)       -78.8533                                         !
 ! D259  D(97,96,99,100)       -80.4364                                         !
 ! D260  D(97,96,99,101)       164.1391                                         !
 ! D261  D(97,96,99,103)        41.6933                                         !
 ! D262  D(98,96,99,100)        38.4902                                         !
 ! D263  D(98,96,99,101)       -76.9343                                         !
 ! D264  D(98,96,99,103)       160.62                                           !
 ! D265  D(96,99,103,104)      171.1536                                         !
 ! D266  D(96,99,103,105)       54.2689                                         !
 ! D267  D(96,99,103,106)      -66.9158                                         !
 ! D268  D(100,99,103,104)     -66.7517                                         !
 ! D269  D(100,99,103,105)     176.3636                                         !
 ! D270  D(100,99,103,106)      55.1789                                         !
 ! D271  D(101,99,103,104)      49.9792                                         !
 ! D272  D(101,99,103,105)     -66.9055                                         !
 ! D273  D(101,99,103,106)     171.9098                                         !
 ! D274  D(99,103,106,107)     173.6302                                         !
 ! D275  D(99,103,106,108)      56.4088                                         !
 ! D276  D(99,103,106,109)     -65.6147                                         !
 ! D277  D(104,103,106,107)    -64.4379                                         !
 ! D278  D(104,103,106,108)    178.3407                                         !
 ! D279  D(104,103,106,109)     56.3172                                         !
 ! D280  D(105,103,106,107)     50.9032                                         !
 ! D281  D(105,103,106,108)    -66.3183                                         !
 ! D282  D(105,103,106,109)    171.6583                                         !
 ! D283  D(103,106,109,110)    -70.4275                                         !
 ! D284  D(103,106,109,117)    100.6158                                         !
 ! D285  D(107,106,109,110)     50.6802                                         !
 ! D286  D(107,106,109,117)   -138.2766                                         !
 ! D287  D(108,106,109,110)    165.5876                                         !
 ! D288  D(108,106,109,117)    -23.3691                                         !
 ! D289  D(106,109,117,111)    -13.7515                                         !
 ! D290  D(106,109,117,114)    167.6905                                         !
 ! D291  D(110,109,117,111)    157.3888                                         !
 ! D292  D(110,109,117,114)    -21.1691                                         !
 ! D293  D(112,111,117,109)    167.8891                                         !
 ! D294  D(112,111,117,114)    -13.7297                                         !
 ! D295  D(113,111,117,109)    -64.4263                                         !
 ! D296  D(113,111,117,114)    113.9548                                         !
 ! D297  D(115,114,117,109)   -178.7582                                         !
 ! D298  D(115,114,117,111)      2.7181                                         !
 ! D299  D(116,114,117,109)    -42.1038                                         !
 ! D300  D(116,114,117,111)    139.3725                                         !
 --------------------------------------------------------------------------------
 Symmetry turned off by external request.
 Stoichiometry    C36H60N11O11(1+)
 Framework group  C1[X(C36H60N11O11)]
 Deg. of freedom   348
 Full point group                 C1      NOp   1
                          Input orientation:                          
 ---------------------------------------------------------------------
 Center     Atomic      Atomic             Coordinates (Angstroms)
 Number     Number       Type             X           Y           Z
 ---------------------------------------------------------------------
      1          7           0       -8.079323   -2.358244   -9.078910
      2          1           0       -8.310334   -3.331260   -9.296194
      3          1           0       -8.243793   -1.761017   -9.908409
      4          1           0       -8.632980   -2.065186   -8.234934
      5          6           0       -6.651085   -2.162532   -8.648317
      6          1           0       -6.040807   -2.961078   -9.077827
      7          6           0       -6.720420   -2.207070   -7.100882
      8          6           0       -6.205189   -0.763289   -9.187074
      9          1           0       -6.665602   -0.001931   -8.546820
     10          8           0       -7.825327   -1.997552   -6.581328
     11          6           0       -4.692531   -0.589032   -9.208328
     12          1           0       -4.253032   -0.679301   -8.210313
     13          1           0       -4.219162   -1.338255   -9.856668
     14          1           0       -4.448363    0.405855   -9.591621
     15          8           0       -6.800478   -0.576677  -10.473779
     16          1           0       -6.158584   -0.808210  -11.165755
     17          7           0       -5.575634   -2.428603   -6.467177
     18          1           0       -4.683791   -2.502271   -6.962513
     19          6           0       -5.371791   -2.299600   -5.021130
     20          1           0       -6.034491   -1.509284   -4.657125
     21          6           0       -3.893661   -1.849742   -4.909035
     22          6           0       -5.711995   -3.632020   -4.283350
     23          1           0       -6.713676   -3.893625   -4.652872
     24          8           0       -3.151325   -1.941728   -5.897876
     25          6           0       -5.828233   -3.488729   -2.750181
     26          1           0       -4.845978   -3.278834   -2.308356
     27          1           0       -6.112257   -4.477326   -2.367845
     28          6           0       -4.743766   -4.762166   -4.661635
     29          1           0       -3.732091   -4.568985   -4.286898
     30          1           0       -4.677633   -4.902249   -5.746234
     31          1           0       -5.080809   -5.708375   -4.226205
     32          6           0       -6.856015   -2.461297   -2.258350
     33          1           0       -6.972933   -2.530411   -1.172434
     34          1           0       -7.839484   -2.630386   -2.712954
     35          1           0       -6.564213   -1.426639   -2.477423
     36          7           0       -3.500781   -1.375802   -3.721537
     37          1           0       -4.114082   -1.362905   -2.908659
     38          6           0       -2.120643   -1.027514   -3.401889
     39          1           0       -1.459671   -1.766726   -3.867815
     40          6           0       -2.020170   -1.131647   -1.864183
     41          6           0       -1.745429    0.376543   -3.907089
     42          1           0       -0.707754    0.619175   -3.656720
     43          1           0       -2.394826    1.133711   -3.455678
     44          1           0       -1.855133    0.414554   -4.994200
     45          8           0       -3.042408   -1.225859   -1.177177
     46          7           0       -0.769005   -1.108875   -1.371879
     47          1           0        0.020788   -0.892191   -1.977481
     48          6           0       -0.438449   -0.948733    0.039811
     49          1           0       -1.294029   -0.482107    0.540711
     50          6           0        0.781522    0.000341    0.070076
     51          6           0       -0.091657   -2.290151    0.722409
     52          1           0        0.329050   -2.081801    1.713960
     53          1           0        0.692265   -2.793805    0.147623
     54          8           0        1.450080    0.193104   -0.950137
     55          6           0       -1.284858   -3.241570    0.864689
     56          1           0       -2.019882   -2.842932    1.574625
     57          1           0       -1.805804   -3.335984   -0.095233
     58          6           0       -0.819704   -4.644126    1.261560
     59          7           0       -1.629374   -5.303896    2.143358
     60          1           0       -2.363714   -4.835739    2.652289
     61          1           0       -1.326125   -6.210904    2.471733
     62          8           0        0.181838   -5.156373    0.782031
     63          7           0        1.056680    0.554233    1.263735
     64          1           0        0.507232    0.360079    2.097821
     65          6           0        2.232143    1.372801    1.520562
     66          1           0        3.089275    0.925595    1.006252
     67          6           0        2.437957    1.316954    3.048251
     68          6           0        2.033000    2.822327    0.987261
     69          1           0        1.229319    3.294967    1.563543
     70          1           0        1.676938    2.715736   -0.043418
     71          8           0        1.500934    0.996486    3.787368
     72          6           0        3.281135    3.676869    1.017464
     73          6           0        3.397778    4.773971    1.882476
     74          1           0        2.569614    5.024517    2.541348
     75          6           0        4.363817    3.389942    0.174167
     76          1           0        4.296186    2.559083   -0.525092
     77          6           0        4.548982    5.555754    1.916700
     78          1           0        4.630529    6.408111    2.583626
     79          6           0        5.528470    4.155493    0.205046
     80          1           0        6.358908    3.911927   -0.455202
     81          8           0        6.743096    6.027263    1.163583
     82          1           0        7.410314    5.689862    0.545598
     83          6           0        5.625140    5.239193    1.083044
     84          7           0        3.667907    1.627371    3.493894
     85          1           0        4.399726    1.960676    2.871109
     86          6           0        4.006214    1.682658    4.909094
     87          1           0        3.194518    2.189071    5.444623
     88          6           0        5.296572    2.515584    5.011461
     89          6           0        4.199649    0.277615    5.510515
     90          1           0        4.443380    0.334848    6.576616
     91          1           0        3.275161   -0.293745    5.396184
     92          1           0        5.011398   -0.248279    4.997534
     93          8           0        5.987256    2.739107    4.014848
     94          7           0        5.597944    2.959946    6.252212
     95          1           0        5.089055    2.607120    7.058368
     96          6           0        6.892971    3.531687    6.593339
     97          1           0        7.622234    3.183050    5.857168
     98          6           0        7.299308    2.979261    7.966678
     99          6           0        6.880861    5.080584    6.619586
    100          1           0        7.722629    5.435449    7.223456
    101          1           0        5.967826    5.400804    7.135709
    102          8           0        8.563122    3.201069    8.308458
    103          6           0        6.953403    5.721663    5.228722
    104          1           0        6.780374    6.802751    5.326125
    105          1           0        6.156188    5.329707    4.587767
    106          6           0        8.285952    5.495615    4.498096
    107          1           0        8.195483    5.890027    3.479408
    108          1           0        8.507397    4.430387    4.407851
    109          7           0        9.444053    6.130414    5.123326
    110          1           0        9.499425    7.138498    5.078310
    111          7           0       10.195098    4.326304    6.411623
    112          1           0       11.069771    3.967690    6.794726
    113          1           0        9.073979    3.642369    7.557870
    114          7           0       11.497039    6.306759    6.133745
    115          1           0       12.224837    5.886665    6.696203
    116          1           0       11.854532    6.817882    5.335589
    117          6           0       10.374420    5.514123    5.910881
    118          8           0        6.506980    2.407597    8.690410
 ---------------------------------------------------------------------
 Rotational constants (GHZ):           0.0888375           0.0102868           0.0094851
 Standard basis: 6-31G(d) (6D, 7F)
   990 basis functions,  1864 primitive gaussians,   990 cartesian basis functions
   220 alpha electrons      220 beta electrons
       nuclear repulsion energy      7986.2029691970 Hartrees.
 NAtoms=  118 NActive=  118 NUniq=  118 SFac= 1.00D+00 NAtFMM=   60 NAOKFM=T Big=T
 Integral buffers will be    131072 words long.
 Raffenetti 2 integral format.
 Two-electron integral symmetry is turned off.
 One-electron integrals computed using PRISM.
 NBasis=   990 RedAO= T EigKep=  4.27D-04  NBF=   990
 NBsUse=   990 1.00D-06 EigRej= -1.00D+00 NBFU=   990
 Initial guess from the checkpoint file:  "conf-234.chk"
 B after Tr=     0.000000    0.000000    0.000000
         Rot=    1.000000    0.000000    0.000000    0.000000 Ang=   0.00 deg.
 Requested convergence on RMS density matrix=1.00D-08 within 128 cycles.
 Requested convergence on MAX density matrix=1.00D-06.
 Requested convergence on             energy=1.00D-06.
 No special actions if energy rises.
 SCF Done:  E(RB3LYP) =  -2837.64981855     A.U. after    2 cycles
            NFock=  2  Conv=0.67D-08     -V/T= 2.0093
 Hyperfine terms turned off by default for NAtoms > 100.

 **********************************************************************

            Population analysis using the SCF Density.

 **********************************************************************

 Alpha  occ. eigenvalues --  -19.30634 -19.26211 -19.22722 -19.21779 -19.19800
 Alpha  occ. eigenvalues --  -19.19597 -19.17962 -19.16706 -19.16332 -19.15642
 Alpha  occ. eigenvalues --  -19.15593 -14.59400 -14.49009 -14.45110 -14.43007
 Alpha  occ. eigenvalues --  -14.41662 -14.40488 -14.40466 -14.40399 -14.40259
 Alpha  occ. eigenvalues --  -14.39985 -14.34657 -10.43289 -10.40456 -10.39893
 Alpha  occ. eigenvalues --  -10.38762 -10.36592 -10.34977 -10.34486 -10.33946
 Alpha  occ. eigenvalues --  -10.33926 -10.33797 -10.33549 -10.33292 -10.31783
 Alpha  occ. eigenvalues --  -10.31397 -10.29933 -10.29519 -10.28893 -10.28879
 Alpha  occ. eigenvalues --  -10.28021 -10.26831 -10.26423 -10.25995 -10.25975
 Alpha  occ. eigenvalues --  -10.25792 -10.25241 -10.24859 -10.24726 -10.24305
 Alpha  occ. eigenvalues --  -10.23824 -10.23772 -10.23652 -10.23615 -10.23036
 Alpha  occ. eigenvalues --  -10.22657 -10.22303 -10.22227  -1.19205  -1.17640
 Alpha  occ. eigenvalues --   -1.13736  -1.13079  -1.11378  -1.11363  -1.10555
 Alpha  occ. eigenvalues --   -1.09809  -1.08670  -1.07840  -1.07525  -1.05666
 Alpha  occ. eigenvalues --   -1.03477  -1.03182  -1.01694  -0.99727  -0.98314
 Alpha  occ. eigenvalues --   -0.97103  -0.96613  -0.94952  -0.93999  -0.93300
 Alpha  occ. eigenvalues --   -0.90320  -0.90000  -0.89721  -0.86783  -0.85727
 Alpha  occ. eigenvalues --   -0.84723  -0.84062  -0.83377  -0.82313  -0.81046
 Alpha  occ. eigenvalues --   -0.80152  -0.79334  -0.79217  -0.77617  -0.77448
 Alpha  occ. eigenvalues --   -0.76597  -0.74179  -0.74017  -0.72802  -0.72168
 Alpha  occ. eigenvalues --   -0.71924  -0.71450  -0.70551  -0.69809  -0.69496
 Alpha  occ. eigenvalues --   -0.67086  -0.66799  -0.66584  -0.65870  -0.65602
 Alpha  occ. eigenvalues --   -0.65407  -0.64617  -0.64504  -0.64303  -0.63153
 Alpha  occ. eigenvalues --   -0.62841  -0.62675  -0.62567  -0.62326  -0.61706
 Alpha  occ. eigenvalues --   -0.61277  -0.59638  -0.59112  -0.59027  -0.58938
 Alpha  occ. eigenvalues --   -0.58600  -0.58421  -0.57925  -0.57381  -0.57290
 Alpha  occ. eigenvalues --   -0.56875  -0.55909  -0.54945  -0.54810  -0.54354
 Alpha  occ. eigenvalues --   -0.54042  -0.53323  -0.53208  -0.52973  -0.52471
 Alpha  occ. eigenvalues --   -0.51964  -0.51812  -0.51477  -0.51323  -0.51289
 Alpha  occ. eigenvalues --   -0.51241  -0.51081  -0.50888  -0.50753  -0.50542
 Alpha  occ. eigenvalues --   -0.50364  -0.49911  -0.49523  -0.49241  -0.48815
 Alpha  occ. eigenvalues --   -0.48696  -0.48128  -0.47989  -0.47904  -0.47853
 Alpha  occ. eigenvalues --   -0.47655  -0.47498  -0.46949  -0.46690  -0.46652
 Alpha  occ. eigenvalues --   -0.46336  -0.46272  -0.45952  -0.45207  -0.45078
 Alpha  occ. eigenvalues --   -0.44981  -0.44830  -0.44671  -0.44499  -0.44381
 Alpha  occ. eigenvalues --   -0.44129  -0.43937  -0.43796  -0.43441  -0.43324
 Alpha  occ. eigenvalues --   -0.42682  -0.42434  -0.42327  -0.42154  -0.41799
 Alpha  occ. eigenvalues --   -0.41680  -0.41251  -0.41098  -0.40918  -0.40514
 Alpha  occ. eigenvalues --   -0.40282  -0.40206  -0.40030  -0.39608  -0.39411
 Alpha  occ. eigenvalues --   -0.39063  -0.38229  -0.38206  -0.38139  -0.37620
 Alpha  occ. eigenvalues --   -0.37237  -0.35903  -0.35054  -0.33717  -0.33162
 Alpha  occ. eigenvalues --   -0.33028  -0.32723  -0.32133  -0.31587  -0.31422
 Alpha  occ. eigenvalues --   -0.31076  -0.30927  -0.30434  -0.30330  -0.29689
 Alpha  occ. eigenvalues --   -0.29452  -0.29409  -0.28978  -0.27915  -0.26289
 Alpha virt. eigenvalues --   -0.12254  -0.10274  -0.07535  -0.05583  -0.05318
 Alpha virt. eigenvalues --   -0.05077  -0.04644  -0.04243  -0.03227  -0.02696
 Alpha virt. eigenvalues --   -0.02682  -0.01734  -0.01529  -0.01319  -0.00953
 Alpha virt. eigenvalues --   -0.00647  -0.00463   0.00413   0.00929   0.01269
 Alpha virt. eigenvalues --    0.01392   0.02006   0.02166   0.02396   0.02708
 Alpha virt. eigenvalues --    0.03203   0.03700   0.04004   0.04326   0.04864
 Alpha virt. eigenvalues --    0.04998   0.05336   0.05642   0.05852   0.06232
 Alpha virt. eigenvalues --    0.06481   0.06665   0.06740   0.07250   0.07437
 Alpha virt. eigenvalues --    0.07470   0.07565   0.07886   0.08239   0.08544
 Alpha virt. eigenvalues --    0.08597   0.08868   0.08958   0.09117   0.09578
 Alpha virt. eigenvalues --    0.09769   0.09825   0.10035   0.10148   0.10362
 Alpha virt. eigenvalues --    0.10791   0.10840   0.10947   0.11450   0.11516
 Alpha virt. eigenvalues --    0.11558   0.11747   0.11998   0.12205   0.12488
 Alpha virt. eigenvalues --    0.12974   0.13073   0.13199   0.13324   0.13522
 Alpha virt. eigenvalues --    0.13790   0.14016   0.14191   0.14354   0.14688
 Alpha virt. eigenvalues --    0.14754   0.15001   0.15292   0.15725   0.15777
 Alpha virt. eigenvalues --    0.15926   0.16101   0.16358   0.16929   0.17249
 Alpha virt. eigenvalues --    0.17415   0.17885   0.18180   0.18379   0.18479
 Alpha virt. eigenvalues --    0.18889   0.19253   0.19461   0.19643   0.19916
 Alpha virt. eigenvalues --    0.20261   0.20762   0.20853   0.21116   0.21805
 Alpha virt. eigenvalues --    0.22279   0.22354   0.23091   0.24343   0.25069
 Alpha virt. eigenvalues --    0.25907   0.27012   0.27169   0.28117   0.28366
 Alpha virt. eigenvalues --    0.29457   0.29561   0.29784   0.29871   0.30216
 Alpha virt. eigenvalues --    0.31228   0.31582   0.32147   0.32373   0.32674
 Alpha virt. eigenvalues --    0.34027   0.34267   0.35116   0.35516   0.35887
 Alpha virt. eigenvalues --    0.37009   0.37675   0.38017   0.38778   0.39509
 Alpha virt. eigenvalues --    0.40028   0.40071   0.41492   0.41590   0.41886
 Alpha virt. eigenvalues --    0.43224   0.43638   0.44170   0.45061   0.45285
 Alpha virt. eigenvalues --    0.45407   0.45575   0.45805   0.46213   0.46286
 Alpha virt. eigenvalues --    0.46669   0.46912   0.47065   0.47681   0.47854
 Alpha virt. eigenvalues --    0.48264   0.48443   0.48650   0.49021   0.49234
 Alpha virt. eigenvalues --    0.49525   0.49709   0.49941   0.50549   0.50831
 Alpha virt. eigenvalues --    0.51355   0.51444   0.51743   0.52476   0.52535
 Alpha virt. eigenvalues --    0.52650   0.52880   0.53195   0.53703   0.53865
 Alpha virt. eigenvalues --    0.54081   0.54407   0.54671   0.54706   0.55239
 Alpha virt. eigenvalues --    0.55331   0.55522   0.56075   0.56114   0.56547
 Alpha virt. eigenvalues --    0.56595   0.56766   0.57061   0.57210   0.57251
 Alpha virt. eigenvalues --    0.57727   0.58272   0.58412   0.58574   0.58915
 Alpha virt. eigenvalues --    0.59336   0.59711   0.59934   0.60052   0.60348
 Alpha virt. eigenvalues --    0.60522   0.61186   0.61337   0.61621   0.61916
 Alpha virt. eigenvalues --    0.62328   0.62530   0.62981   0.63198   0.63256
 Alpha virt. eigenvalues --    0.63594   0.63962   0.64162   0.64337   0.64469
 Alpha virt. eigenvalues --    0.65050   0.65414   0.65804   0.65883   0.65942
 Alpha virt. eigenvalues --    0.66508   0.66692   0.67380   0.67601   0.68070
 Alpha virt. eigenvalues --    0.68655   0.68708   0.69073   0.69790   0.70050
 Alpha virt. eigenvalues --    0.70187   0.70627   0.70875   0.71145   0.71482
 Alpha virt. eigenvalues --    0.71706   0.71993   0.72259   0.72827   0.73001
 Alpha virt. eigenvalues --    0.73352   0.74092   0.74314   0.74463   0.74928
 Alpha virt. eigenvalues --    0.75183   0.75306   0.75487   0.75568   0.76046
 Alpha virt. eigenvalues --    0.76644   0.76746   0.76925   0.77360   0.77409
 Alpha virt. eigenvalues --    0.77648   0.78067   0.78347   0.78780   0.78856
 Alpha virt. eigenvalues --    0.78997   0.79245   0.79688   0.79731   0.80000
 Alpha virt. eigenvalues --    0.80185   0.80603   0.80685   0.80877   0.81041
 Alpha virt. eigenvalues --    0.81111   0.81329   0.81894   0.82196   0.82248
 Alpha virt. eigenvalues --    0.82517   0.82950   0.83304   0.83501   0.83527
 Alpha virt. eigenvalues --    0.83823   0.83896   0.84258   0.84443   0.84488
 Alpha virt. eigenvalues --    0.84703   0.84790   0.85091   0.85337   0.85440
 Alpha virt. eigenvalues --    0.85708   0.86040   0.86149   0.86473   0.86658
 Alpha virt. eigenvalues --    0.86850   0.87029   0.87234   0.87486   0.87678
 Alpha virt. eigenvalues --    0.87778   0.88132   0.88346   0.88514   0.88698
 Alpha virt. eigenvalues --    0.89102   0.89187   0.89260   0.89446   0.89775
 Alpha virt. eigenvalues --    0.90303   0.90589   0.90669   0.90951   0.91358
 Alpha virt. eigenvalues --    0.91845   0.92045   0.92240   0.92612   0.92806
 Alpha virt. eigenvalues --    0.93357   0.93589   0.94096   0.94458   0.94520
 Alpha virt. eigenvalues --    0.95278   0.95681   0.95793   0.96070   0.96499
 Alpha virt. eigenvalues --    0.96609   0.96945   0.97097   0.98043   0.98243
 Alpha virt. eigenvalues --    0.98750   0.99143   0.99885   1.00195   1.00434
 Alpha virt. eigenvalues --    1.01045   1.01713   1.01726   1.02229   1.02800
 Alpha virt. eigenvalues --    1.03571   1.04148   1.04751   1.05123   1.05849
 Alpha virt. eigenvalues --    1.06721   1.06774   1.06935   1.07564   1.08284
 Alpha virt. eigenvalues --    1.08448   1.09524   1.09674   1.10417   1.10796
 Alpha virt. eigenvalues --    1.11214   1.12110   1.12593   1.13149   1.13447
 Alpha virt. eigenvalues --    1.13723   1.14307   1.15140   1.15377   1.16345
 Alpha virt. eigenvalues --    1.16454   1.16852   1.17383   1.17797   1.18958
 Alpha virt. eigenvalues --    1.19208   1.20046   1.20410   1.20978   1.21825
 Alpha virt. eigenvalues --    1.23415   1.23872   1.24107   1.24455   1.25262
 Alpha virt. eigenvalues --    1.25295   1.25672   1.26574   1.27933   1.28924
 Alpha virt. eigenvalues --    1.29056   1.29841   1.30364   1.30435   1.31159
 Alpha virt. eigenvalues --    1.31440   1.32103   1.32659   1.33167   1.33434
 Alpha virt. eigenvalues --    1.34151   1.34978   1.35734   1.36199   1.36635
 Alpha virt. eigenvalues --    1.36936   1.37280   1.38439   1.38879   1.39099
 Alpha virt. eigenvalues --    1.40030   1.40327   1.40370   1.41360   1.41584
 Alpha virt. eigenvalues --    1.41863   1.42192   1.42750   1.43390   1.44052
 Alpha virt. eigenvalues --    1.44402   1.45475   1.45706   1.45953   1.46559
 Alpha virt. eigenvalues --    1.46889   1.47222   1.47560   1.48318   1.49331
 Alpha virt. eigenvalues --    1.49987   1.50749   1.51328   1.53001   1.53776
 Alpha virt. eigenvalues --    1.54085   1.54846   1.55230   1.55880   1.56941
 Alpha virt. eigenvalues --    1.57752   1.58290   1.58521   1.58894   1.60320
 Alpha virt. eigenvalues --    1.60613   1.62245   1.62824   1.63034   1.63540
 Alpha virt. eigenvalues --    1.63845   1.64127   1.65139   1.65235   1.65334
 Alpha virt. eigenvalues --    1.66535   1.66832   1.67523   1.67963   1.68089
 Alpha virt. eigenvalues --    1.68415   1.68626   1.68835   1.69057   1.69200
 Alpha virt. eigenvalues --    1.69502   1.69688   1.69722   1.70280   1.70723
 Alpha virt. eigenvalues --    1.71076   1.71317   1.71986   1.72210   1.72345
 Alpha virt. eigenvalues --    1.72604   1.73403   1.73807   1.73848   1.74008
 Alpha virt. eigenvalues --    1.74346   1.74836   1.75228   1.75452   1.75784
 Alpha virt. eigenvalues --    1.76190   1.76876   1.77192   1.77651   1.77752
 Alpha virt. eigenvalues --    1.77949   1.78330   1.78568   1.79135   1.79412
 Alpha virt. eigenvalues --    1.79827   1.80139   1.80194   1.80505   1.80703
 Alpha virt. eigenvalues --    1.81099   1.81345   1.81983   1.82245   1.82619
 Alpha virt. eigenvalues --    1.82921   1.83118   1.83627   1.84166   1.84907
 Alpha virt. eigenvalues --    1.85120   1.85463   1.85723   1.86007   1.86470
 Alpha virt. eigenvalues --    1.87107   1.87311   1.87737   1.87780   1.87962
 Alpha virt. eigenvalues --    1.88696   1.89037   1.89699   1.90430   1.90550
 Alpha virt. eigenvalues --    1.90673   1.90810   1.91116   1.91807   1.92246
 Alpha virt. eigenvalues --    1.92574   1.92962   1.93247   1.93413   1.93819
 Alpha virt. eigenvalues --    1.94356   1.94746   1.95019   1.95131   1.95750
 Alpha virt. eigenvalues --    1.96175   1.96637   1.96726   1.97102   1.97540
 Alpha virt. eigenvalues --    1.97803   1.98735   1.99151   1.99323   2.01438
 Alpha virt. eigenvalues --    2.01765   2.02063   2.02293   2.02681   2.03392
 Alpha virt. eigenvalues --    2.03682   2.03750   2.04471   2.05502   2.05617
 Alpha virt. eigenvalues --    2.06115   2.06379   2.06605   2.07219   2.07968
 Alpha virt. eigenvalues --    2.08253   2.08561   2.08674   2.08982   2.09395
 Alpha virt. eigenvalues --    2.09760   2.10564   2.10638   2.10707   2.12374
 Alpha virt. eigenvalues --    2.12870   2.13356   2.13770   2.14426   2.14750
 Alpha virt. eigenvalues --    2.14859   2.15490   2.17041   2.17368   2.18068
 Alpha virt. eigenvalues --    2.19342   2.19514   2.20142   2.20796   2.21306
 Alpha virt. eigenvalues --    2.22253   2.22351   2.22736   2.23321   2.23769
 Alpha virt. eigenvalues --    2.24552   2.24872   2.25279   2.26182   2.26429
 Alpha virt. eigenvalues --    2.27023   2.27405   2.27923   2.28263   2.29224
 Alpha virt. eigenvalues --    2.29693   2.30281   2.30821   2.31596   2.32031
 Alpha virt. eigenvalues --    2.32701   2.32929   2.32969   2.33918   2.34265
 Alpha virt. eigenvalues --    2.34434   2.35283   2.35711   2.35885   2.36223
 Alpha virt. eigenvalues --    2.37181   2.38060   2.38227   2.38505   2.38921
 Alpha virt. eigenvalues --    2.39508   2.39992   2.40876   2.41598   2.41808
 Alpha virt. eigenvalues --    2.42874   2.42964   2.44470   2.44632   2.45432
 Alpha virt. eigenvalues --    2.45633   2.46062   2.47107   2.47379   2.47786
 Alpha virt. eigenvalues --    2.48193   2.48856   2.49830   2.50527   2.50852
 Alpha virt. eigenvalues --    2.52506   2.53517   2.54394   2.54888   2.55491
 Alpha virt. eigenvalues --    2.56223   2.56628   2.56850   2.56941   2.57318
 Alpha virt. eigenvalues --    2.57629   2.58888   2.59971   2.61073   2.61183
 Alpha virt. eigenvalues --    2.61930   2.61990   2.62807   2.63405   2.63558
 Alpha virt. eigenvalues --    2.63814   2.64486   2.65242   2.65641   2.66196
 Alpha virt. eigenvalues --    2.66808   2.67604   2.68369   2.69191   2.70203
 Alpha virt. eigenvalues --    2.70440   2.70545   2.71990   2.73004   2.74350
 Alpha virt. eigenvalues --    2.74801   2.74926   2.76629   2.77691   2.78347
 Alpha virt. eigenvalues --    2.80813   2.81104   2.82176   2.82792   2.83737
 Alpha virt. eigenvalues --    2.84404   2.85486   2.86386   2.86736   2.87755
 Alpha virt. eigenvalues --    2.89317   2.90296   2.91410   2.92325   2.93057
 Alpha virt. eigenvalues --    2.93640   2.94584   2.94774   2.95744   2.97879
 Alpha virt. eigenvalues --    3.00493   3.02807   3.03565   3.05007   3.05979
 Alpha virt. eigenvalues --    3.07251   3.09154   3.12799   3.14471   3.16678
 Alpha virt. eigenvalues --    3.17844   3.37370   3.64663   3.71375   3.75206
 Alpha virt. eigenvalues --    3.75212   3.88564   3.90684   3.90933   3.91741
 Alpha virt. eigenvalues --    3.94195   3.96799   3.97618   3.99804   4.00725
 Alpha virt. eigenvalues --    4.02122   4.02472   4.03467   4.03875   4.05076
 Alpha virt. eigenvalues --    4.06245   4.08025   4.08517   4.09120   4.09260
 Alpha virt. eigenvalues --    4.10501   4.11752   4.15037   4.15598   4.18113
 Alpha virt. eigenvalues --    4.18669   4.20059   4.20380   4.23590   4.24635
 Alpha virt. eigenvalues --    4.26729   4.26843   4.29645   4.30650   4.31700
 Alpha virt. eigenvalues --    4.34040   4.34804   4.37138   4.37192   4.37900
 Alpha virt. eigenvalues --    4.39014   4.42109   4.45410   4.45931   4.46531
 Alpha virt. eigenvalues --    4.48084   4.50190   4.52397   4.54599   4.56079
 Alpha virt. eigenvalues --    4.57622   4.59284   4.62492   4.63767   4.71437
          Condensed to atoms (all electrons):
 Mulliken charges:
               1
     1  N   -0.747324
     2  H    0.414260
     3  H    0.426372
     4  H    0.426768
     5  C   -0.140080
     6  H    0.202671
     7  C    0.646992
     8  C    0.130066
     9  H    0.193539
    10  O   -0.537245
    11  C   -0.512029
    12  H    0.205455
    13  H    0.165494
    14  H    0.206369
    15  O   -0.630348
    16  H    0.424637
    17  N   -0.604395
    18  H    0.374457
    19  C   -0.083064
    20  H    0.193841
    21  C    0.634592
    22  C   -0.074091
    23  H    0.149175
    24  O   -0.563066
    25  C   -0.283349
    26  H    0.158182
    27  H    0.155887
    28  C   -0.463581
    29  H    0.167211
    30  H    0.137144
    31  H    0.167403
    32  C   -0.461114
    33  H    0.171814
    34  H    0.156102
    35  H    0.142446
    36  N   -0.621521
    37  H    0.379327
    38  C   -0.050920
    39  H    0.189971
    40  C    0.620670
    41  C   -0.453781
    42  H    0.175622
    43  H    0.164869
    44  H    0.176380
    45  O   -0.551312
    46  N   -0.601870
    47  H    0.361291
    48  C   -0.073723
    49  H    0.178018
    50  C    0.626949
    51  C   -0.264169
    52  H    0.157231
    53  H    0.188382
    54  O   -0.552361
    55  C   -0.356835
    56  H    0.140152
    57  H    0.184472
    58  C    0.593634
    59  N   -0.746918
    60  H    0.336602
    61  H    0.345824
    62  O   -0.503656
    63  N   -0.619629
    64  H    0.358834
    65  C   -0.043632
    66  H    0.179469
    67  C    0.620932
    68  C   -0.351825
    69  H    0.153965
    70  H    0.179022
    71  O   -0.553624
    72  C    0.148756
    73  C   -0.189490
    74  H    0.133075
    75  C   -0.203144
    76  H    0.144622
    77  C   -0.152473
    78  H    0.144631
    79  C   -0.181133
    80  H    0.126528
    81  O   -0.646197
    82  H    0.411141
    83  C    0.361257
    84  N   -0.619827
    85  H    0.367846
    86  C   -0.036557
    87  H    0.177575
    88  C    0.613708
    89  C   -0.454564
    90  H    0.164984
    91  H    0.184145
    92  H    0.162168
    93  O   -0.544892
    94  N   -0.608650
    95  H    0.353551
    96  C   -0.089208
    97  H    0.196759
    98  C    0.602598
    99  C   -0.262862
   100  H    0.157420
   101  H    0.150067
   102  O   -0.613579
   103  C   -0.271918
   104  H    0.127737
   105  H    0.171778
   106  C   -0.151742
   107  H    0.161989
   108  H    0.192414
   109  N   -0.593665
   110  H    0.329218
   111  N   -0.731166
   112  H    0.292552
   113  H    0.472296
   114  N   -0.757835
   115  H    0.335895
   116  H    0.333038
   117  C    0.656951
   118  O   -0.482829
 Sum of Mulliken charges =   1.00000
 Mulliken charges with hydrogens summed into heavy atoms:
               1
     1  N    0.520076
     5  C    0.062591
     7  C    0.646992
     8  C    0.323605
    10  O   -0.537245
    11  C    0.065290
    15  O   -0.205711
    17  N   -0.229938
    19  C    0.110778
    21  C    0.634592
    22  C    0.075085
    24  O   -0.563066
    25  C    0.030720
    28  C    0.008177
    32  C    0.009248
    36  N   -0.242194
    38  C    0.139051
    40  C    0.620670
    41  C    0.063089
    45  O   -0.551312
    46  N   -0.240580
    48  C    0.104295
    50  C    0.626949
    51  C    0.081444
    54  O   -0.552361
    55  C   -0.032210
    58  C    0.593634
    59  N   -0.064492
    62  O   -0.503656
    63  N   -0.260796
    65  C    0.135837
    67  C    0.620932
    68  C   -0.018838
    71  O   -0.553624
    72  C    0.148756
    73  C   -0.056416
    75  C   -0.058522
    77  C   -0.007842
    79  C   -0.054605
    81  O   -0.235057
    83  C    0.361257
    84  N   -0.251980
    86  C    0.141017
    88  C    0.613708
    89  C    0.056734
    93  O   -0.544892
    94  N   -0.255099
    96  C    0.107551
    98  C    0.602598
    99  C    0.044624
   102  O   -0.141283
   103  C    0.027597
   106  C    0.202661
   109  N   -0.264447
   111  N   -0.438614
   114  N   -0.088901
   117  C    0.656951
   118  O   -0.482829
 Electronic spatial extent (au):  <R**2>=         107064.3613
 Charge=              1.0000 electrons
 Dipole moment (field-independent basis, Debye):
    X=            -18.7538    Y=             -1.8734    Z=            -33.1306  Tot=             38.1163
 Quadrupole moment (field-independent basis, Debye-Ang):
   XX=            -18.4849   YY=           -260.2351   ZZ=            -42.4675
   XY=            165.8277   XZ=            253.1229   YZ=             94.2249
 Traceless Quadrupole moment (field-independent basis, Debye-Ang):
   XX=             88.5776   YY=           -153.1726   ZZ=             64.5950
   XY=            165.8277   XZ=            253.1229   YZ=             94.2249
 Octapole moment (field-independent basis, Debye-Ang**2):
  XXX=           -630.3026  YYY=           -456.8116  ZZZ=          -3828.4831  XYY=            -42.1416
  XXY=            227.6571  XXZ=          -1308.2532  XZZ=          -2735.4374  YZZ=           -950.2868
  YYZ=             31.4928  XYZ=           -247.4488
 Hexadecapole moment (field-independent basis, Debye-Ang**3):
 XXXX=         -28678.1603 YYYY=         -20837.2086 ZZZZ=         -26237.3508 XXXY=             79.4960
 XXXZ=          -4101.7959 YYYX=         -11132.1787 YYYZ=          -8479.6279 ZZZX=          -5908.7710
 ZZZY=          -3993.1342 XXYY=          -5859.4595 XXZZ=          -1324.2721 YYZZ=          -9084.0884
 XXYZ=           5443.4742 YYXZ=          -4024.8790 ZZXY=           1723.6788
 N-N= 7.986202969197D+03 E-N=-2.255749796606D+04  KE= 2.811373759250D+03
 Unable to Open any file for archive entry.
 1\1\GINC-QML-002\SP\RB3LYP\6-31G(d)\C36H60N11O11(1+)\KENGMITH\02-Jul-2
 022\0\\# B3LYP/6-31G* guess=read geom=check nosymm integral(ultrafineg
 rid)\\Candidate Structure: Conf:234 Charge calc in gas phase\\1,1\N,0,
 -8.0793232835,-2.3582442816,-9.078910384\H,0,-8.3103340711,-3.33125994
 01,-9.296194008\H,0,-8.2437934308,-1.7610168007,-9.9084090122\H,0,-8.6
 32979703,-2.0651855403,-8.2349339021\C,0,-6.6510848004,-2.1625315268,-
 8.6483173453\H,0,-6.0408069754,-2.9610780125,-9.0778271068\C,0,-6.7204
 204307,-2.2070704835,-7.1008823482\C,0,-6.2051894218,-0.7632891357,-9.
 1870737283\H,0,-6.665601618,-0.0019311993,-8.5468195807\O,0,-7.8253269
 991,-1.9975522347,-6.5813284502\C,0,-4.6925309424,-0.5890317681,-9.208
 3276295\H,0,-4.2530319283,-0.6793010293,-8.2103127179\H,0,-4.219162218
 4,-1.3382547896,-9.8566678219\H,0,-4.4483628659,0.4058552163,-9.591620
 732\O,0,-6.800477507,-0.5766772633,-10.4737791006\H,0,-6.1585836922,-0
 .8082103874,-11.1657550142\N,0,-5.5756336822,-2.4286027904,-6.46717709
 48\H,0,-4.6837911439,-2.5022705517,-6.9625126332\C,0,-5.3717914321,-2.
 2995998269,-5.0211304803\H,0,-6.0344911148,-1.5092841232,-4.6571254838
 \C,0,-3.8936606744,-1.8497416872,-4.909035394\C,0,-5.7119947432,-3.632
 0201147,-4.2833503349\H,0,-6.7136757853,-3.8936251236,-4.65287227\O,0,
 -3.1513250465,-1.9417275837,-5.8978758911\C,0,-5.8282333438,-3.4887293
 223,-2.7501811774\H,0,-4.8459778351,-3.2788341702,-2.3083555893\H,0,-6
 .1122568082,-4.4773256265,-2.3678448458\C,0,-4.743765949,-4.7621658722
 ,-4.6616347129\H,0,-3.7320912463,-4.5689846547,-4.2868977471\H,0,-4.67
 76325647,-4.9022486149,-5.7462344551\H,0,-5.0808089267,-5.7083751672,-
 4.2262048714\C,0,-6.8560147021,-2.4612972494,-2.2583496519\H,0,-6.9729
 334871,-2.5304111052,-1.1724337409\H,0,-7.8394843449,-2.6303858015,-2.
 7129538989\H,0,-6.564213405,-1.4266390579,-2.4774226449\N,0,-3.5007805
 408,-1.3758017176,-3.7215367651\H,0,-4.1140817832,-1.362904722,-2.9086
 594118\C,0,-2.1206426699,-1.0275136209,-3.4018886468\H,0,-1.4596709584
 ,-1.7667258934,-3.8678147085\C,0,-2.0201699779,-1.13164651,-1.86418324
 2\C,0,-1.745429261,0.3765432383,-3.9070889756\H,0,-0.7077542528,0.6191
 750149,-3.6567202226\H,0,-2.3948256997,1.1337114516,-3.4556777745\H,0,
 -1.8551334069,0.4145540084,-4.9942004884\O,0,-3.0424077397,-1.22585910
 54,-1.1771770142\N,0,-0.7690054898,-1.1088754402,-1.3718789397\H,0,0.0
 207879338,-0.8921910771,-1.9774812984\C,0,-0.4384485644,-0.9487332979,
 0.0398108216\H,0,-1.2940290678,-0.482106822,0.540711334\C,0,0.78152197
 65,0.0003406705,0.0700761007\C,0,-0.0916574115,-2.2901507669,0.7224093
 067\H,0,0.3290501172,-2.0818008967,1.7139600047\H,0,0.6922647654,-2.79
 38045481,0.1476234735\O,0,1.4500801484,0.1931035161,-0.9501367999\C,0,
 -1.2848582705,-3.2415701985,0.8646893132\H,0,-2.0198820551,-2.84293210
 27,1.574624663\H,0,-1.8058042566,-3.3359841528,-0.0952329928\C,0,-0.81
 97044588,-4.6441257578,1.2615596594\N,0,-1.6293736083,-5.3038957425,2.
 1433581596\H,0,-2.3637137772,-4.8357389638,2.6522894462\H,0,-1.3261251
 717,-6.2109037059,2.4717327188\O,0,0.1818384869,-5.1563733878,0.782031
 3915\N,0,1.0566798798,0.5542332098,1.2637354293\H,0,0.5072321334,0.360
 0787569,2.0978210705\C,0,2.2321425924,1.372800676,1.5205619512\H,0,3.0
 892750046,0.9255951887,1.0062519097\C,0,2.437957019,1.3169539928,3.048
 2506595\C,0,2.0329997,2.8223274644,0.9872612667\H,0,1.2293194231,3.294
 9670112,1.5635427973\H,0,1.6769380617,2.7157355309,-0.0434180046\O,0,1
 .5009344555,0.996486043,3.7873681901\C,0,3.2811346358,3.6768691162,1.0
 174640725\C,0,3.3977782843,4.7739706438,1.8824757757\H,0,2.5696141098,
 5.0245167044,2.5413475628\C,0,4.3638172125,3.3899420775,0.1741674041\H
 ,0,4.2961863157,2.5590828558,-0.525092349\C,0,4.54898228,5.5557544763,
 1.9166995409\H,0,4.6305293876,6.4081111392,2.5836259653\C,0,5.52847040
 85,4.1554932555,0.2050462834\H,0,6.3589078854,3.9119269587,-0.45520192
 97\O,0,6.7430963489,6.0272633265,1.1635826884\H,0,7.4103141828,5.68986
 16831,0.5455977734\C,0,5.6251398627,5.2391925312,1.0830438444\N,0,3.66
 79073771,1.6273711736,3.4938938986\H,0,4.399726429,1.9606757819,2.8711
 086727\C,0,4.0062140088,1.6826575937,4.9090942159\H,0,3.1945180129,2.1
 890709892,5.4446230259\C,0,5.2965722776,2.5155839705,5.0114610726\C,0,
 4.1996485349,0.2776150269,5.5105149118\H,0,4.4433800653,0.3348480437,6
 .5766158064\H,0,3.2751614232,-0.293745275,5.3961837895\H,0,5.011397584
 ,-0.2482792994,4.9975338343\O,0,5.9872556542,2.7391068412,4.0148476319
 \N,0,5.5979442297,2.9599455308,6.2522119316\H,0,5.0890549288,2.6071195
 573,7.058367715\C,0,6.8929710508,3.5316866741,6.5933391861\H,0,7.62223
 40866,3.1830496261,5.8571684792\C,0,7.2993079745,2.9792607185,7.966678
 4697\C,0,6.8808610022,5.0805840802,6.6195855627\H,0,7.7226290869,5.435
 4488851,7.2234557171\H,0,5.9678256709,5.400804424,7.1357091076\O,0,8.5
 631218456,3.2010689089,8.3084576128\C,0,6.9534030454,5.7216633542,5.22
 87220837\H,0,6.7803742088,6.8027510086,5.326125085\H,0,6.1561884546,5.
 329707463,4.58776724\C,0,8.2859520872,5.4956154538,4.4980956695\H,0,8.
 1954825201,5.8900267111,3.4794079427\H,0,8.507396559,4.4303873091,4.40
 78514882\N,0,9.4440532753,6.1304139789,5.1233260977\H,0,9.4994254245,7
 .1384980886,5.0783100133\N,0,10.1950975642,4.3263036823,6.4116232118\H
 ,0,11.0697709006,3.9676899301,6.7947259047\H,0,9.0739786474,3.64236898
 74,7.5578697081\N,0,11.4970392404,6.3067587573,6.133745342\H,0,12.2248
 369243,5.8866645386,6.6962033759\H,0,11.8545320777,6.8178817914,5.3355
 886361\C,0,10.3744203244,5.514122898,5.9108807809\O,0,6.5069797573,2.4
 075969146,8.6904095139\\Version=ES64L-G16RevC.01\HF=-2837.6498186\RMSD
 =6.691e-09\Dipole=-9.2333892,-2.0117545,-13.2808611\Quadrupole=65.8552
 645,-113.8800494,48.0247849,123.2888404,188.190666,70.053916\PG=C01 [X
 (C36H60N11O11)]\\@
 The archive entry for this job was punched.


 IT'S WHAT YOU LEARN AFTER YOU KNOW IT ALL
 THAT COUNTS.
 Job cpu time:       0 days  0 hours  7 minutes 17.4 seconds.
 Elapsed time:       0 days  0 hours  1 minutes 50.2 seconds.
 File lengths (MBytes):  RWF=    624 Int=      0 D2E=      0 Chk=     96 Scr=     16
 Normal termination of Gaussian 16 at Sat Jul  2 15:33:34 2022.
