 Entering Gaussian System, Link 0=/opt/software/Gaussian/g16-AVX2-C.01/g16/g16
 Input=charge-conf-981.com
 Output=charge-conf-981.log
 Initial command:
 /opt/software/Gaussian/g16-AVX2-C.01/g16/l1.exe "/mnt/gs18/scratch/users/kengmith/Gau-75006.inp" -scrdir="/mnt/gs18/scratch/users/kengmith/"
 Entering Link 1 = /opt/software/Gaussian/g16-AVX2-C.01/g16/l1.exe PID=     75031.
  
 Copyright (c) 1988-2019, Gaussian, Inc.  All Rights Reserved.
  
 This is part of the Gaussian(R) 16 program.  It is based on
 the Gaussian(R) 09 system (copyright 2009, Gaussian, Inc.),
 the Gaussian(R) 03 system (copyright 2003, Gaussian, Inc.),
 the Gaussian(R) 98 system (copyright 1998, Gaussian, Inc.),
 the Gaussian(R) 94 system (copyright 1995, Gaussian, Inc.),
 the Gaussian 92(TM) system (copyright 1992, Gaussian, Inc.),
 the Gaussian 90(TM) system (copyright 1990, Gaussian, Inc.),
 the Gaussian 88(TM) system (copyright 1988, Gaussian, Inc.),
 the Gaussian 86(TM) system (copyright 1986, Carnegie Mellon
 University), and the Gaussian 82(TM) system (copyright 1983,
 Carnegie Mellon University). Gaussian is a federally registered
 trademark of Gaussian, Inc.
  
 This software contains proprietary and confidential information,
 including trade secrets, belonging to Gaussian, Inc.
  
 This software is provided under written license and may be
 used, copied, transmitted, or stored only in accord with that
 written license.
  
 The following legend is applicable only to US Government
 contracts under FAR:
  
                    RESTRICTED RIGHTS LEGEND
  
 Use, reproduction and disclosure by the US Government is
 subject to restrictions as set forth in subparagraphs (a)
 and (c) of the Commercial Computer Software - Restricted
 Rights clause in FAR 52.227-19.
  
 Gaussian, Inc.
 340 Quinnipiac St., Bldg. 40, Wallingford CT 06492
  
  
 ---------------------------------------------------------------
 Warning -- This program may not be used in any manner that
 competes with the business of Gaussian, Inc. or will provide
 assistance to any competitor of Gaussian, Inc.  The licensee
 of this program is prohibited from giving any competitor of
 Gaussian, Inc. access to this program.  By using this program,
 the user acknowledges that Gaussian, Inc. is engaged in the
 business of creating and licensing software in the field of
 computational chemistry and represents and warrants to the
 licensee that it is not a competitor of Gaussian, Inc. and that
 it will not use this program in any manner prohibited above.
 ---------------------------------------------------------------
  

 Cite this work as:
 Gaussian 16, Revision C.01,
 M. J. Frisch, G. W. Trucks, H. B. Schlegel, G. E. Scuseria, 
 M. A. Robb, J. R. Cheeseman, G. Scalmani, V. Barone, 
 G. A. Petersson, H. Nakatsuji, X. Li, M. Caricato, A. V. Marenich, 
 J. Bloino, B. G. Janesko, R. Gomperts, B. Mennucci, H. P. Hratchian, 
 J. V. Ortiz, A. F. Izmaylov, J. L. Sonnenberg, D. Williams-Young, 
 F. Ding, F. Lipparini, F. Egidi, J. Goings, B. Peng, A. Petrone, 
 T. Henderson, D. Ranasinghe, V. G. Zakrzewski, J. Gao, N. Rega, 
 G. Zheng, W. Liang, M. Hada, M. Ehara, K. Toyota, R. Fukuda, 
 J. Hasegawa, M. Ishida, T. Nakajima, Y. Honda, O. Kitao, H. Nakai, 
 T. Vreven, K. Throssell, J. A. Montgomery, Jr., J. E. Peralta, 
 F. Ogliaro, M. J. Bearpark, J. J. Heyd, E. N. Brothers, K. N. Kudin, 
 V. N. Staroverov, T. A. Keith, R. Kobayashi, J. Normand, 
 K. Raghavachari, A. P. Rendell, J. C. Burant, S. S. Iyengar, 
 J. Tomasi, M. Cossi, J. M. Millam, M. Klene, C. Adamo, R. Cammi, 
 J. W. Ochterski, R. L. Martin, K. Morokuma, O. Farkas, 
 J. B. Foresman, and D. J. Fox, Gaussian, Inc., Wallingford CT, 2019.
 
 ******************************************
 Gaussian 16:  ES64L-G16RevC.01  3-Jul-2019
                27-May-2022 
 ******************************************
 %mem=8gb
 %nproc=4
 Will use up to    4 processors via shared memory.
 %chk=conf-981.chk
 -------------------------------------------------------------------
 # B3LYP/6-31G* guess=read geom=check nosymm integral(ultrafinegrid)
 -------------------------------------------------------------------
 1/29=2,38=1,172=1/1;
 2/12=2,15=1,40=1/2;
 3/5=1,6=6,7=1,11=2,14=-4,25=1,30=1,74=-5,75=-5,116=-2/1,2,3;
 4/5=1/1;
 5/5=2,38=6/2;
 6/7=2,8=2,9=2,10=2,28=1/1;
 99/5=1,9=1/99;
 ------------------------------------------------------
 Candidate Structure: Conf:981 Charge calc in gas phase
 ------------------------------------------------------
 Structure from the checkpoint file:  "conf-981.chk"
 Charge =  1 Multiplicity = 1
 Redundant internal coordinates found in file.  (old form).
 N,0,-7.7597707361,-1.3067809391,2.3863819594
 H,0,-8.6165259469,-1.4360076266,1.8495646981
 H,0,-7.9929989974,-1.5326478919,3.3541204779
 C,0,-7.3884407961,0.1087342385,2.2809530719
 H,0,-7.4531631553,0.3600469312,1.2142326704
 C,0,-5.9156467473,0.3164961484,2.6628191595
 C,0,-8.2925254564,1.0954065119,3.0338859895
 H,0,-8.3597075439,0.8158093578,4.095100586
 H,0,-7.8460658009,2.0960372493,3.0076162027
 O,0,-5.4505537623,1.4383376779,2.9096127368
 C,0,-9.6974188817,1.1239751817,2.4281187458
 N,0,-10.5568906069,2.0086152382,3.0033967609
 H,0,-11.4863392397,2.0954780165,2.61555499
 H,0,-10.2642293409,2.6722844614,3.7049343952
 O,0,-10.0315001695,0.393806079,1.5001527624
 N,0,-5.1711146054,-0.812257149,2.6547104676
 H,0,-5.6735626739,-1.6582777693,2.393938914
 C,0,-3.7586092384,-0.8428769519,3.034108305
 H,0,-3.6288549851,-0.0744973005,3.8054437659
 C,0,-2.9312349035,-0.4052431347,1.7980347588
 C,0,-3.3448107894,-2.219531625,3.5951502062
 H,0,-3.3501628336,-2.9254939584,2.7540618599
 O,0,-2.2892261641,-1.208486295,1.0982359287
 C,0,-4.3388407205,-2.7515721577,4.6562740871
 H,0,-3.9815488415,-3.743190536,4.9623373922
 H,0,-5.3183987081,-2.9229963253,4.1935767161
 C,0,-1.912022202,-2.1737435557,4.1535791003
 H,0,-1.7980007016,-1.3986701971,4.9205510379
 H,0,-1.6582656534,-3.1341410755,4.6151117496
 H,0,-1.1739712386,-1.9871969236,3.3702479495
 C,0,-4.5229619956,-1.8772096299,5.9034667688
 H,0,-5.2221162826,-2.3529406066,6.5995943508
 H,0,-3.581586782,-1.7260981868,6.4424721022
 H,0,-4.9295621952,-0.8894215609,5.656695064
 N,0,-3.0183582827,0.9181001104,1.5302395949
 H,0,-3.6883055085,1.4384077434,2.1061107931
 C,0,-2.6397004742,1.5349788935,0.2454163669
 H,0,-2.9625624245,0.8601658522,-0.5584427406
 C,0,-1.1020336203,1.6807041613,0.1537603905
 C,0,-3.3252482413,2.8907076246,0.1083439865
 H,0,-3.1228944343,3.3176306979,-0.8775465082
 H,0,-4.4072712327,2.783639451,0.2292655345
 H,0,-2.9450235114,3.5891454469,0.8584587086
 O,0,-0.5014394659,2.7215395217,0.3686311385
 N,0,-0.4811297866,0.5058783342,-0.2012789583
 H,0,-1.0615106824,-0.3303998347,-0.12946642
 C,0,0.9365597671,0.341857887,-0.0170536352
 H,0,1.3709738657,1.3428270925,0.0877412499
 C,0,1.5580168713,-0.3428488794,-1.2100829625
 C,0,1.2633894034,-0.5048752056,1.2756207014
 H,0,2.3408276839,-0.7129949337,1.2732978371
 O,0,0.7920011584,-1.0963322563,-1.9285189919
 C,0,0.9171360585,0.2694910479,2.5462192947
 H,0,1.4825750558,1.2048813593,2.6087514728
 H,0,1.1637943935,-0.3486158684,3.4142741879
 H,0,-0.1474732142,0.5174633228,2.5900663907
 O,0,0.6401475783,-1.7685252375,1.1887017481
 H,0,-0.3238308242,-1.6714724693,1.3275994844
 N,0,2.8464343544,-0.1967920575,-1.4366178749
 H,0,3.3929387151,0.4681939208,-0.8707631613
 C,0,3.7413373767,-0.9664153015,-2.310777697
 H,0,3.701511426,-2.0244770488,-2.017845793
 C,0,5.1583694522,-0.4045241991,-1.9772227608
 C,0,3.3926854534,-0.8501522423,-3.8046317179
 H,0,4.2005499764,-1.2587491179,-4.4173780769
 H,0,3.2495994824,0.1980245246,-4.0792552897
 O,0,5.2646174962,0.5319140888,-1.186216824
 O,0,2.1599003455,-1.5306235439,-4.1002266117
 H,0,2.339225733,-2.4348991462,-4.4048625486
 N,0,6.179211956,-1.0051678347,-2.5956748557
 H,0,6.0844457057,-1.8262845982,-3.1949748352
 C,0,7.5686649761,-0.64277351,-2.3834271475
 H,0,7.7549119756,0.3897018133,-2.7013378495
 H,0,7.8313499343,-0.7118079852,-1.3208855505
 C,0,8.3963541846,-1.6344184418,-3.2215781324
 O,0,7.8269956587,-2.5105788806,-3.8777919882
 N,0,9.72715445,-1.4650812816,-3.1728289807
 H,0,10.1508579463,-0.754741851,-2.5832280021
 C,0,10.6700802345,-2.3385917133,-3.8693361363
 H,0,10.3171169488,-3.3719255682,-3.7902728121
 C,0,11.9893332577,-2.1972024909,-3.117891499
 C,0,10.7928994,-1.9602491387,-5.3694068683
 H,0,9.7653879257,-1.900125858,-5.7463366314
 H,0,11.2199051135,-0.9513419584,-5.4422025706
 O,0,12.2460033995,-1.2674760364,-2.3810174536
 C,0,11.5887390943,-2.9462819867,-6.233811856
 H,0,12.6315813035,-2.9917639688,-5.8979231199
 H,0,11.1760332658,-3.9556451316,-6.0964215616
 C,0,11.5499238086,-2.5744641102,-7.7223503032
 H,0,11.9491648254,-1.5579994894,-7.854268039
 H,0,10.5046011323,-2.5419895786,-8.0659192993
 C,0,12.3474972839,-3.537248837,-8.6253864329
 H,0,12.3403714524,-3.1441844886,-9.6493709312
 H,0,13.398783211,-3.5446592835,-8.3082376175
 N,0,11.8962401133,-4.9278723578,-8.6844396398
 H,0,10.9183393065,-4.9725651741,-8.9675532103
 H,0,11.956829182,-5.3694174099,-7.7692911863
 O,0,12.8382252674,-3.2039683704,-3.3736786164
 H,0,13.6634826749,-3.0181412273,-2.8841072026
 H,0,1.2314656632,-1.4116785264,-2.78151262
 Recover connectivity data from disk.
                           ----------------------------
                           !    Current Parameters    !
                           ! (Angstroms and Degrees)  !
 --------------------------                            --------------------------
 ! Name  Definition              Value                                          !
 --------------------------------------------------------------------------------
 ! R1    R(1,2)                  1.0193                                         !
 ! R2    R(1,3)                  1.0207                                         !
 ! R3    R(1,4)                  1.4672                                         !
 ! R4    R(4,5)                  1.0978                                         !
 ! R5    R(4,6)                  1.5356                                         !
 ! R6    R(4,7)                  1.5355                                         !
 ! R7    R(6,10)                 1.2393                                         !
 ! R8    R(6,16)                 1.3522                                         !
 ! R9    R(7,8)                  1.0995                                         !
 ! R10   R(7,9)                  1.096                                          !
 ! R11   R(7,11)                 1.5302                                         !
 ! R12   R(11,12)                1.361                                          !
 ! R13   R(11,15)                1.2271                                         !
 ! R14   R(12,13)                1.0109                                         !
 ! R15   R(12,14)                1.0091                                         !
 ! R16   R(16,17)                1.0179                                         !
 ! R17   R(16,18)                1.4629                                         !
 ! R18   R(18,19)                1.0964                                         !
 ! R19   R(18,20)                1.5505                                         !
 ! R20   R(18,21)                1.5431                                         !
 ! R21   R(20,23)                1.2438                                         !
 ! R22   R(20,35)                1.353                                          !
 ! R23   R(21,22)                1.0981                                         !
 ! R24   R(21,24)                1.5483                                         !
 ! R25   R(21,27)                1.5384                                         !
 ! R26   R(24,25)                1.0976                                         !
 ! R27   R(24,26)                1.0968                                         !
 ! R28   R(24,31)                1.5342                                         !
 ! R29   R(27,28)                1.0964                                         !
 ! R30   R(27,29)                1.0953                                         !
 ! R31   R(27,30)                1.0923                                         !
 ! R32   R(31,32)                1.0953                                         !
 ! R33   R(31,33)                1.0952                                         !
 ! R34   R(31,34)                1.0963                                         !
 ! R35   R(35,36)                1.0253                                         !
 ! R36   R(35,37)                1.4747                                         !
 ! R37   R(37,38)                1.0981                                         !
 ! R38   R(37,39)                1.5473                                         !
 ! R39   R(37,40)                1.5254                                         !
 ! R40   R(39,44)                1.2207                                         !
 ! R41   R(39,45)                1.3754                                         !
 ! R42   R(40,41)                1.0932                                         !
 ! R43   R(40,42)                1.094                                          !
 ! R44   R(40,43)                1.0932                                         !
 ! R45   R(45,46)                1.0205                                         !
 ! R46   R(45,47)                1.439                                          !
 ! R47   R(47,48)                1.0962                                         !
 ! R48   R(47,49)                1.5094                                         !
 ! R49   R(47,50)                1.5795                                         !
 ! R50   R(49,52)                1.2925                                         !
 ! R51   R(49,59)                1.3163                                         !
 ! R52   R(50,51)                1.0974                                         !
 ! R53   R(50,53)                1.5277                                         !
 ! R54   R(50,57)                1.4117                                         !
 ! R55   R(53,54)                1.0948                                         !
 ! R56   R(53,55)                1.0938                                         !
 ! R57   R(53,56)                1.094                                          !
 ! R58   R(57,58)                0.9788                                         !
 ! R59   R(59,60)                1.0301                                         !
 ! R60   R(59,61)                1.4688                                         !
 ! R61   R(61,62)                1.0986                                         !
 ! R62   R(61,63)                1.5604                                         !
 ! R63   R(61,64)                1.5384                                         !
 ! R64   R(63,67)                1.2304                                         !
 ! R65   R(63,70)                1.3362                                         !
 ! R66   R(64,65)                1.0932                                         !
 ! R67   R(64,66)                1.093                                          !
 ! R68   R(64,68)                1.4388                                         !
 ! R69   R(68,69)                0.9709                                         !
 ! R70   R(68,100)               1.6171                                         !
 ! R71   R(70,71)                1.021                                          !
 ! R72   R(70,72)                1.4515                                         !
 ! R73   R(72,73)                1.0962                                         !
 ! R74   R(72,74)                1.0967                                         !
 ! R75   R(72,75)                1.5398                                         !
 ! R76   R(75,76)                1.2339                                         !
 ! R77   R(75,77)                1.3424                                         !
 ! R78   R(77,78)                1.0157                                         !
 ! R79   R(77,79)                1.4619                                         !
 ! R80   R(79,80)                1.0948                                         !
 ! R81   R(79,81)                1.5248                                         !
 ! R82   R(79,82)                1.5519                                         !
 ! R83   R(81,85)                1.2138                                         !
 ! R84   R(81,98)                1.3415                                         !
 ! R85   R(82,83)                1.0961                                         !
 ! R86   R(82,84)                1.098                                          !
 ! R87   R(82,86)                1.5339                                         !
 ! R88   R(86,87)                1.0965                                         !
 ! R89   R(86,88)                1.0991                                         !
 ! R90   R(86,89)                1.5348                                         !
 ! R91   R(89,90)                1.1                                            !
 ! R92   R(89,91)                1.1008                                         !
 ! R93   R(89,92)                1.5423                                         !
 ! R94   R(92,93)                1.0969                                         !
 ! R95   R(92,94)                1.0981                                         !
 ! R96   R(92,95)                1.4632                                         !
 ! R97   R(95,96)                1.019                                          !
 ! R98   R(95,97)                1.0179                                         !
 ! R99   R(98,99)                0.9774                                         !
 ! A1    A(2,1,3)              106.2129                                         !
 ! A2    A(2,1,4)              107.29                                           !
 ! A3    A(3,1,4)              109.8423                                         !
 ! A4    A(1,4,5)              106.0069                                         !
 ! A5    A(1,4,6)              110.8176                                         !
 ! A6    A(1,4,7)              115.8288                                         !
 ! A7    A(5,4,6)              105.4975                                         !
 ! A8    A(5,4,7)              107.1361                                         !
 ! A9    A(6,4,7)              110.844                                          !
 ! A10   A(4,6,10)             122.1372                                         !
 ! A11   A(4,6,16)             114.4343                                         !
 ! A12   A(10,6,16)            123.3815                                         !
 ! A13   A(4,7,8)              110.2338                                         !
 ! A14   A(4,7,9)              109.5756                                         !
 ! A15   A(4,7,11)             111.0051                                         !
 ! A16   A(8,7,9)              106.2715                                         !
 ! A17   A(8,7,11)             109.314                                          !
 ! A18   A(9,7,11)             110.3317                                         !
 ! A19   A(7,11,12)            115.1256                                         !
 ! A20   A(7,11,15)            122.5614                                         !
 ! A21   A(12,11,15)           122.309                                          !
 ! A22   A(11,12,13)           118.3158                                         !
 ! A23   A(11,12,14)           122.5624                                         !
 ! A24   A(13,12,14)           118.4824                                         !
 ! A25   A(6,16,17)            115.0575                                         !
 ! A26   A(6,16,18)            123.1995                                         !
 ! A27   A(17,16,18)           121.7109                                         !
 ! A28   A(16,18,19)           106.3822                                         !
 ! A29   A(16,18,20)           107.6128                                         !
 ! A30   A(16,18,21)           111.8322                                         !
 ! A31   A(19,18,20)           107.4505                                         !
 ! A32   A(19,18,21)           109.7362                                         !
 ! A33   A(20,18,21)           113.4888                                         !
 ! A34   A(18,20,23)           122.799                                          !
 ! A35   A(18,20,35)           113.5476                                         !
 ! A36   A(23,20,35)           123.6089                                         !
 ! A37   A(18,21,22)           107.0829                                         !
 ! A38   A(18,21,24)           112.556                                          !
 ! A39   A(18,21,27)           110.8035                                         !
 ! A40   A(22,21,24)           107.5116                                         !
 ! A41   A(22,21,27)           107.5595                                         !
 ! A42   A(24,21,27)           111.0625                                         !
 ! A43   A(21,24,25)           107.0127                                         !
 ! A44   A(21,24,26)           109.7534                                         !
 ! A45   A(21,24,31)           115.9982                                         !
 ! A46   A(25,24,26)           105.4954                                         !
 ! A47   A(25,24,31)           109.1032                                         !
 ! A48   A(26,24,31)           108.9547                                         !
 ! A49   A(21,27,28)           111.8285                                         !
 ! A50   A(21,27,29)           110.0359                                         !
 ! A51   A(21,27,30)           111.9658                                         !
 ! A52   A(28,27,29)           107.5176                                         !
 ! A53   A(28,27,30)           108.1001                                         !
 ! A54   A(29,27,30)           107.1804                                         !
 ! A55   A(24,31,32)           110.2255                                         !
 ! A56   A(24,31,33)           112.0577                                         !
 ! A57   A(24,31,34)           112.0247                                         !
 ! A58   A(32,31,33)           107.2048                                         !
 ! A59   A(32,31,34)           107.3165                                         !
 ! A60   A(33,31,34)           107.7722                                         !
 ! A61   A(20,35,36)           115.2946                                         !
 ! A62   A(20,35,37)           124.4067                                         !
 ! A63   A(36,35,37)           116.4145                                         !
 ! A64   A(35,37,38)           107.7726                                         !
 ! A65   A(35,37,39)           110.2542                                         !
 ! A66   A(35,37,40)           109.5531                                         !
 ! A67   A(38,37,39)           107.861                                          !
 ! A68   A(38,37,40)           110.3811                                         !
 ! A69   A(39,37,40)           110.9534                                         !
 ! A70   A(37,39,44)           123.9735                                         !
 ! A71   A(37,39,45)           112.5487                                         !
 ! A72   A(44,39,45)           123.4775                                         !
 ! A73   A(37,40,41)           110.1774                                         !
 ! A74   A(37,40,42)           110.3399                                         !
 ! A75   A(37,40,43)           110.4792                                         !
 ! A76   A(41,40,42)           108.721                                          !
 ! A77   A(41,40,43)           107.7531                                         !
 ! A78   A(42,40,43)           109.3104                                         !
 ! A79   A(39,45,46)           115.1553                                         !
 ! A80   A(39,45,47)           120.6011                                         !
 ! A81   A(46,45,47)           117.2518                                         !
 ! A82   A(45,47,48)           107.3727                                         !
 ! A83   A(45,47,49)           110.8634                                         !
 ! A84   A(45,47,50)           111.6996                                         !
 ! A85   A(48,47,49)           109.0635                                         !
 ! A86   A(48,47,50)           109.2246                                         !
 ! A87   A(49,47,50)           108.5718                                         !
 ! A88   A(47,49,52)           117.3715                                         !
 ! A89   A(47,49,59)           119.2542                                         !
 ! A90   A(52,49,59)           123.306                                          !
 ! A91   A(47,50,51)           107.6441                                         !
 ! A92   A(47,50,53)           111.2258                                         !
 ! A93   A(47,50,57)           109.7628                                         !
 ! A94   A(51,50,53)           108.6886                                         !
 ! A95   A(51,50,57)           105.2826                                         !
 ! A96   A(53,50,57)           113.8832                                         !
 ! A97   A(50,53,54)           111.3163                                         !
 ! A98   A(50,53,55)           108.8139                                         !
 ! A99   A(50,53,56)           111.6408                                         !
 ! A100  A(54,53,55)           108.7245                                         !
 ! A101  A(54,53,56)           107.8577                                         !
 ! A102  A(55,53,56)           108.4049                                         !
 ! A103  A(50,57,58)           109.7142                                         !
 ! A104  A(49,59,60)           119.7619                                         !
 ! A105  A(49,59,61)           129.8407                                         !
 ! A106  A(60,59,61)           109.9961                                         !
 ! A107  A(59,61,62)           108.8974                                         !
 ! A108  A(59,61,63)           103.7325                                         !
 ! A109  A(59,61,64)           113.5933                                         !
 ! A110  A(62,61,63)           108.8279                                         !
 ! A111  A(62,61,64)           108.8744                                         !
 ! A112  A(63,61,64)           112.7158                                         !
 ! A113  A(61,63,67)           119.3335                                         !
 ! A114  A(61,63,70)           115.6571                                         !
 ! A115  A(67,63,70)           125.0093                                         !
 ! A116  A(61,64,65)           110.399                                          !
 ! A117  A(61,64,66)           110.2512                                         !
 ! A118  A(61,64,68)           110.9734                                         !
 ! A119  A(65,64,66)           108.3222                                         !
 ! A120  A(65,64,68)           109.9535                                         !
 ! A121  A(66,64,68)           106.8442                                         !
 ! A122  A(64,68,69)           110.285                                          !
 ! A123  A(64,68,100)          106.8337                                         !
 ! A124  A(69,68,100)          115.4932                                         !
 ! A125  A(63,70,71)           124.2154                                         !
 ! A126  A(63,70,72)           123.4642                                         !
 ! A127  A(71,70,72)           112.0536                                         !
 ! A128  A(70,72,73)           110.8157                                         !
 ! A129  A(70,72,74)           110.8075                                         !
 ! A130  A(70,72,75)           105.9123                                         !
 ! A131  A(73,72,74)           107.431                                          !
 ! A132  A(73,72,75)           110.9389                                         !
 ! A133  A(74,72,75)           110.9825                                         !
 ! A134  A(72,75,76)           119.9181                                         !
 ! A135  A(72,75,77)           115.5869                                         !
 ! A136  A(76,75,77)           124.495                                          !
 ! A137  A(75,77,78)           121.5217                                         !
 ! A138  A(75,77,79)           123.1431                                         !
 ! A139  A(78,77,79)           115.173                                          !
 ! A140  A(77,79,80)           108.76                                           !
 ! A141  A(77,79,81)           105.5358                                         !
 ! A142  A(77,79,82)           111.4624                                         !
 ! A143  A(80,79,81)           109.3211                                         !
 ! A144  A(80,79,82)           108.991                                          !
 ! A145  A(81,79,82)           112.6604                                         !
 ! A146  A(79,81,85)           123.5841                                         !
 ! A147  A(79,81,98)           112.5773                                         !
 ! A148  A(85,81,98)           123.8342                                         !
 ! A149  A(79,82,83)           105.758                                          !
 ! A150  A(79,82,84)           108.5952                                         !
 ! A151  A(79,82,86)           115.4077                                         !
 ! A152  A(83,82,84)           106.9396                                         !
 ! A153  A(83,82,86)           109.1375                                         !
 ! A154  A(84,82,86)           110.582                                          !
 ! A155  A(82,86,87)           110.3327                                         !
 ! A156  A(82,86,88)           108.9706                                         !
 ! A157  A(82,86,89)           112.1918                                         !
 ! A158  A(87,86,88)           106.3034                                         !
 ! A159  A(87,86,89)           109.341                                          !
 ! A160  A(88,86,89)           109.5255                                         !
 ! A161  A(86,89,90)           109.3295                                         !
 ! A162  A(86,89,91)           109.5036                                         !
 ! A163  A(86,89,92)           113.802                                          !
 ! A164  A(90,89,91)           106.2579                                         !
 ! A165  A(90,89,92)           108.5992                                         !
 ! A166  A(91,89,92)           109.0715                                         !
 ! A167  A(89,92,93)           108.6362                                         !
 ! A168  A(89,92,94)           109.281                                          !
 ! A169  A(89,92,95)           117.2225                                         !
 ! A170  A(93,92,94)           106.1566                                         !
 ! A171  A(93,92,95)           107.5116                                         !
 ! A172  A(94,92,95)           107.4875                                         !
 ! A173  A(92,95,96)           110.4169                                         !
 ! A174  A(92,95,97)           110.9541                                         !
 ! A175  A(96,95,97)           106.7307                                         !
 ! A176  A(81,98,99)           107.2241                                         !
 ! D1    D(2,1,4,5)            -47.9909                                         !
 ! D2    D(2,1,4,6)           -161.9738                                         !
 ! D3    D(2,1,4,7)             70.6558                                         !
 ! D4    D(3,1,4,5)           -163.0278                                         !
 ! D5    D(3,1,4,6)             82.9893                                         !
 ! D6    D(3,1,4,7)            -44.3812                                         !
 ! D7    D(1,4,6,10)          -165.1295                                         !
 ! D8    D(1,4,6,16)            17.2853                                         !
 ! D9    D(5,4,6,10)            80.5671                                         !
 ! D10   D(5,4,6,16)           -97.0181                                         !
 ! D11   D(7,4,6,10)           -35.0748                                         !
 ! D12   D(7,4,6,16)           147.3401                                         !
 ! D13   D(1,4,7,8)             55.2955                                         !
 ! D14   D(1,4,7,9)            171.9116                                         !
 ! D15   D(1,4,7,11)           -65.9776                                         !
 ! D16   D(5,4,7,8)            173.319                                          !
 ! D17   D(5,4,7,9)            -70.065                                          !
 ! D18   D(5,4,7,11)            52.0458                                         !
 ! D19   D(6,4,7,8)            -72.0618                                         !
 ! D20   D(6,4,7,9)             44.5543                                         !
 ! D21   D(6,4,7,11)           166.6651                                         !
 ! D22   D(4,6,16,17)            0.2461                                         !
 ! D23   D(4,6,16,18)         -177.7211                                         !
 ! D24   D(10,6,16,17)        -177.3051                                         !
 ! D25   D(10,6,16,18)           4.7277                                         !
 ! D26   D(4,7,11,12)         -177.7632                                         !
 ! D27   D(4,7,11,15)            2.9504                                         !
 ! D28   D(8,7,11,12)           60.4249                                         !
 ! D29   D(8,7,11,15)         -118.8615                                         !
 ! D30   D(9,7,11,12)          -56.0936                                         !
 ! D31   D(9,7,11,15)          124.62                                           !
 ! D32   D(7,11,12,13)         177.4528                                         !
 ! D33   D(7,11,12,14)           6.765                                          !
 ! D34   D(15,11,12,13)         -3.2588                                         !
 ! D35   D(15,11,12,14)       -173.9466                                         !
 ! D36   D(6,16,18,19)          32.3133                                         !
 ! D37   D(6,16,18,20)         -82.6017                                         !
 ! D38   D(6,16,18,21)         152.1117                                         !
 ! D39   D(17,16,18,19)       -145.522                                          !
 ! D40   D(17,16,18,20)         99.5631                                         !
 ! D41   D(17,16,18,21)        -25.7235                                         !
 ! D42   D(16,18,20,23)       -104.6092                                         !
 ! D43   D(16,18,20,35)         73.0408                                         !
 ! D44   D(19,18,20,23)        141.1868                                         !
 ! D45   D(19,18,20,35)        -41.1631                                         !
 ! D46   D(21,18,20,23)         19.6818                                         !
 ! D47   D(21,18,20,35)       -162.6682                                         !
 ! D48   D(16,18,21,22)         70.2981                                         !
 ! D49   D(16,18,21,24)        -47.6392                                         !
 ! D50   D(16,18,21,27)       -172.6761                                         !
 ! D51   D(19,18,21,22)       -171.8928                                         !
 ! D52   D(19,18,21,24)         70.1699                                         !
 ! D53   D(19,18,21,27)        -54.867                                          !
 ! D54   D(20,18,21,22)        -51.6746                                         !
 ! D55   D(20,18,21,24)       -169.6119                                         !
 ! D56   D(20,18,21,27)         65.3512                                         !
 ! D57   D(18,20,35,36)         -6.2335                                         !
 ! D58   D(18,20,35,37)       -163.1654                                         !
 ! D59   D(23,20,35,36)        171.3947                                         !
 ! D60   D(23,20,35,37)         14.4628                                         !
 ! D61   D(18,21,24,25)        177.8484                                         !
 ! D62   D(18,21,24,26)         63.8488                                         !
 ! D63   D(18,21,24,31)        -60.1461                                         !
 ! D64   D(22,21,24,25)         60.1642                                         !
 ! D65   D(22,21,24,26)        -53.8355                                         !
 ! D66   D(22,21,24,31)       -177.8303                                         !
 ! D67   D(27,21,24,25)        -57.2564                                         !
 ! D68   D(27,21,24,26)       -171.2561                                         !
 ! D69   D(27,21,24,31)         64.7491                                         !
 ! D70   D(18,21,27,28)         56.3762                                         !
 ! D71   D(18,21,27,29)        175.7961                                         !
 ! D72   D(18,21,27,30)        -65.1188                                         !
 ! D73   D(22,21,27,28)        173.1087                                         !
 ! D74   D(22,21,27,29)        -67.4713                                         !
 ! D75   D(22,21,27,30)         51.6137                                         !
 ! D76   D(24,21,27,28)        -69.4999                                         !
 ! D77   D(24,21,27,29)         49.9201                                         !
 ! D78   D(24,21,27,30)        169.0051                                         !
 ! D79   D(21,24,31,32)       -178.4996                                         !
 ! D80   D(21,24,31,33)        -59.1979                                         !
 ! D81   D(21,24,31,34)         62.0793                                         !
 ! D82   D(25,24,31,32)        -57.6087                                         !
 ! D83   D(25,24,31,33)         61.693                                          !
 ! D84   D(25,24,31,34)       -177.0298                                         !
 ! D85   D(26,24,31,32)         57.0928                                         !
 ! D86   D(26,24,31,33)        176.3945                                         !
 ! D87   D(26,24,31,34)        -62.3283                                         !
 ! D88   D(20,35,37,38)         39.0992                                         !
 ! D89   D(20,35,37,39)        -78.3904                                         !
 ! D90   D(20,35,37,40)        159.2276                                         !
 ! D91   D(36,35,37,38)       -117.6004                                         !
 ! D92   D(36,35,37,39)        124.9101                                         !
 ! D93   D(36,35,37,40)          2.5281                                         !
 ! D94   D(35,37,39,44)       -100.0811                                         !
 ! D95   D(35,37,39,45)         80.0814                                         !
 ! D96   D(38,37,39,44)        142.484                                          !
 ! D97   D(38,37,39,45)        -37.3535                                         !
 ! D98   D(40,37,39,44)         21.473                                          !
 ! D99   D(40,37,39,45)       -158.3645                                         !
 ! D100  D(35,37,40,41)       -175.0024                                         !
 ! D101  D(35,37,40,42)        -54.942                                          !
 ! D102  D(35,37,40,43)         66.0499                                         !
 ! D103  D(38,37,40,41)        -56.48                                           !
 ! D104  D(38,37,40,42)         63.5804                                         !
 ! D105  D(38,37,40,43)       -175.4277                                         !
 ! D106  D(39,37,40,41)         63.0335                                         !
 ! D107  D(39,37,40,42)       -176.9062                                         !
 ! D108  D(39,37,40,43)        -55.9143                                         !
 ! D109  D(37,39,45,46)        -14.4382                                         !
 ! D110  D(37,39,45,47)       -164.3749                                         !
 ! D111  D(44,39,45,46)        165.7234                                         !
 ! D112  D(44,39,45,47)         15.7867                                         !
 ! D113  D(39,45,47,48)        -18.78                                           !
 ! D114  D(39,45,47,49)       -137.824                                          !
 ! D115  D(39,45,47,50)        100.944                                          !
 ! D116  D(46,45,47,48)       -168.1121                                         !
 ! D117  D(46,45,47,49)         72.8439                                         !
 ! D118  D(46,45,47,50)        -48.3881                                         !
 ! D119  D(45,47,49,52)        -24.9584                                         !
 ! D120  D(45,47,49,59)        157.9459                                         !
 ! D121  D(48,47,49,52)       -142.9788                                         !
 ! D122  D(48,47,49,59)         39.9255                                         !
 ! D123  D(50,47,49,52)         98.0989                                         !
 ! D124  D(50,47,49,59)        -78.9968                                         !
 ! D125  D(45,47,50,51)        171.9001                                         !
 ! D126  D(45,47,50,53)        -69.1368                                         !
 ! D127  D(45,47,50,57)         57.8095                                         !
 ! D128  D(48,47,50,51)        -69.4729                                         !
 ! D129  D(48,47,50,53)         49.4902                                         !
 ! D130  D(48,47,50,57)        176.4366                                         !
 ! D131  D(49,47,50,51)         49.3481                                         !
 ! D132  D(49,47,50,53)        168.3111                                         !
 ! D133  D(49,47,50,57)        -64.7425                                         !
 ! D134  D(47,49,59,60)         -7.3387                                         !
 ! D135  D(47,49,59,61)        164.6082                                         !
 ! D136  D(52,49,59,60)        175.7476                                         !
 ! D137  D(52,49,59,61)        -12.3056                                         !
 ! D138  D(47,50,53,54)        -59.861                                          !
 ! D139  D(47,50,53,55)       -179.6619                                         !
 ! D140  D(47,50,53,56)         60.7331                                         !
 ! D141  D(51,50,53,54)         58.4748                                         !
 ! D142  D(51,50,53,55)        -61.3261                                         !
 ! D143  D(51,50,53,56)        179.0689                                         !
 ! D144  D(57,50,53,54)        175.4809                                         !
 ! D145  D(57,50,53,55)         55.68                                           !
 ! D146  D(57,50,53,56)        -63.925                                          !
 ! D147  D(47,50,57,58)        -73.2807                                         !
 ! D148  D(51,50,57,58)        171.1214                                         !
 ! D149  D(53,50,57,58)         52.157                                          !
 ! D150  D(49,59,61,62)        -56.9922                                         !
 ! D151  D(49,59,61,63)       -172.7652                                         !
 ! D152  D(49,59,61,64)         64.5162                                         !
 ! D153  D(60,59,61,62)        115.572                                          !
 ! D154  D(60,59,61,63)         -0.201                                          !
 ! D155  D(60,59,61,64)       -122.9196                                         !
 ! D156  D(59,61,63,67)         -3.7018                                         !
 ! D157  D(59,61,63,70)        176.2107                                         !
 ! D158  D(62,61,63,67)       -119.5239                                         !
 ! D159  D(62,61,63,70)         60.3886                                         !
 ! D160  D(64,61,63,67)        119.5946                                         !
 ! D161  D(64,61,63,70)        -60.4929                                         !
 ! D162  D(59,61,64,65)        168.0087                                         !
 ! D163  D(59,61,64,66)         48.3591                                         !
 ! D164  D(59,61,64,68)        -69.8184                                         !
 ! D165  D(62,61,64,65)        -70.47                                           !
 ! D166  D(62,61,64,66)        169.8804                                         !
 ! D167  D(62,61,64,68)         51.7029                                         !
 ! D168  D(63,61,64,65)         50.3849                                         !
 ! D169  D(63,61,64,66)        -69.2646                                         !
 ! D170  D(63,61,64,68)        172.5578                                         !
 ! D171  D(61,63,70,71)         -4.7504                                         !
 ! D172  D(61,63,70,72)       -178.3414                                         !
 ! D173  D(67,63,70,71)        175.1564                                         !
 ! D174  D(67,63,70,72)          1.5654                                         !
 ! D175  D(61,64,68,69)        -94.4752                                         !
 ! D176  D(61,64,68,100)        31.7695                                         !
 ! D177  D(65,64,68,69)         27.9566                                         !
 ! D178  D(65,64,68,100)       154.2013                                         !
 ! D179  D(66,64,68,69)        145.3016                                         !
 ! D180  D(66,64,68,100)       -88.4538                                         !
 ! D181  D(63,70,72,73)        -62.8938                                         !
 ! D182  D(63,70,72,74)         56.2699                                         !
 ! D183  D(63,70,72,75)        176.7121                                         !
 ! D184  D(71,70,72,73)        122.8219                                         !
 ! D185  D(71,70,72,74)       -118.0143                                         !
 ! D186  D(71,70,72,75)          2.4278                                         !
 ! D187  D(70,72,75,76)         -0.5029                                         !
 ! D188  D(70,72,75,77)        179.5367                                         !
 ! D189  D(73,72,75,76)       -120.8168                                         !
 ! D190  D(73,72,75,77)         59.2229                                         !
 ! D191  D(74,72,75,76)        119.8253                                         !
 ! D192  D(74,72,75,77)        -60.1351                                         !
 ! D193  D(72,75,77,78)          2.8192                                         !
 ! D194  D(72,75,77,79)        177.9653                                         !
 ! D195  D(76,75,77,78)       -177.1392                                         !
 ! D196  D(76,75,77,79)         -1.9931                                         !
 ! D197  D(75,77,79,80)        -39.4873                                         !
 ! D198  D(75,77,79,81)       -156.6872                                         !
 ! D199  D(75,77,79,82)         80.6994                                         !
 ! D200  D(78,77,79,80)        135.9415                                         !
 ! D201  D(78,77,79,81)         18.7416                                         !
 ! D202  D(78,77,79,82)       -103.8719                                         !
 ! D203  D(77,79,81,85)        -19.0507                                         !
 ! D204  D(77,79,81,98)        161.686                                          !
 ! D205  D(80,79,81,85)       -135.8707                                         !
 ! D206  D(80,79,81,98)         44.8659                                         !
 ! D207  D(82,79,81,85)        102.7926                                         !
 ! D208  D(82,79,81,98)        -76.4707                                         !
 ! D209  D(77,79,82,83)        -50.2342                                         !
 ! D210  D(77,79,82,84)         64.2445                                         !
 ! D211  D(77,79,82,86)       -170.9746                                         !
 ! D212  D(80,79,82,83)         69.8163                                         !
 ! D213  D(80,79,82,84)       -175.705                                          !
 ! D214  D(80,79,82,86)        -50.9241                                         !
 ! D215  D(81,79,82,83)       -168.6594                                         !
 ! D216  D(81,79,82,84)        -54.1807                                         !
 ! D217  D(81,79,82,86)         70.6002                                         !
 ! D218  D(79,81,98,99)        177.8311                                         !
 ! D219  D(85,81,98,99)         -1.4301                                         !
 ! D220  D(79,82,86,87)        -63.3421                                         !
 ! D221  D(79,82,86,88)         53.0143                                         !
 ! D222  D(79,82,86,89)        174.4756                                         !
 ! D223  D(83,82,86,87)        177.7715                                         !
 ! D224  D(83,82,86,88)        -65.8721                                         !
 ! D225  D(83,82,86,89)         55.5892                                         !
 ! D226  D(84,82,86,87)         60.4008                                         !
 ! D227  D(84,82,86,88)        176.7572                                         !
 ! D228  D(84,82,86,89)        -61.7815                                         !
 ! D229  D(82,86,89,90)         57.9894                                         !
 ! D230  D(82,86,89,91)        -58.0498                                         !
 ! D231  D(82,86,89,92)        179.6001                                         !
 ! D232  D(87,86,89,90)        -64.7552                                         !
 ! D233  D(87,86,89,91)        179.2056                                         !
 ! D234  D(87,86,89,92)         56.8554                                         !
 ! D235  D(88,86,89,90)        179.1321                                         !
 ! D236  D(88,86,89,91)         63.0929                                         !
 ! D237  D(88,86,89,92)        -59.2573                                         !
 ! D238  D(86,89,92,93)       -174.8403                                         !
 ! D239  D(86,89,92,94)        -59.4307                                         !
 ! D240  D(86,89,92,95)         63.1145                                         !
 ! D241  D(90,89,92,93)        -52.8251                                         !
 ! D242  D(90,89,92,94)         62.5845                                         !
 ! D243  D(90,89,92,95)       -174.8703                                         !
 ! D244  D(91,89,92,93)         62.5719                                         !
 ! D245  D(91,89,92,94)        177.9815                                         !
 ! D246  D(91,89,92,95)        -59.4733                                         !
 ! D247  D(89,92,95,96)         56.0182                                         !
 ! D248  D(89,92,95,97)        -62.1114                                         !
 ! D249  D(93,92,95,96)        -66.6068                                         !
 ! D250  D(93,92,95,97)        175.2635                                         !
 ! D251  D(94,92,95,96)        179.4812                                         !
 ! D252  D(94,92,95,97)         61.3515                                         !
 --------------------------------------------------------------------------------
 Symmetry turned off by external request.
 Stoichiometry    C28H52N9O11(1+)
 Framework group  C1[X(C28H52N9O11)]
 Deg. of freedom   294
 Full point group                 C1      NOp   1
                          Input orientation:                          
 ---------------------------------------------------------------------
 Center     Atomic      Atomic             Coordinates (Angstroms)
 Number     Number       Type             X           Y           Z
 ---------------------------------------------------------------------
      1          7           0       -7.759771   -1.306781    2.386382
      2          1           0       -8.616526   -1.436008    1.849565
      3          1           0       -7.992999   -1.532648    3.354120
      4          6           0       -7.388441    0.108734    2.280953
      5          1           0       -7.453163    0.360047    1.214233
      6          6           0       -5.915647    0.316496    2.662819
      7          6           0       -8.292525    1.095407    3.033886
      8          1           0       -8.359708    0.815809    4.095101
      9          1           0       -7.846066    2.096037    3.007616
     10          8           0       -5.450554    1.438338    2.909613
     11          6           0       -9.697419    1.123975    2.428119
     12          7           0      -10.556891    2.008615    3.003397
     13          1           0      -11.486339    2.095478    2.615555
     14          1           0      -10.264229    2.672284    3.704934
     15          8           0      -10.031500    0.393806    1.500153
     16          7           0       -5.171115   -0.812257    2.654710
     17          1           0       -5.673563   -1.658278    2.393939
     18          6           0       -3.758609   -0.842877    3.034108
     19          1           0       -3.628855   -0.074497    3.805444
     20          6           0       -2.931235   -0.405243    1.798035
     21          6           0       -3.344811   -2.219532    3.595150
     22          1           0       -3.350163   -2.925494    2.754062
     23          8           0       -2.289226   -1.208486    1.098236
     24          6           0       -4.338841   -2.751572    4.656274
     25          1           0       -3.981549   -3.743191    4.962337
     26          1           0       -5.318399   -2.922996    4.193577
     27          6           0       -1.912022   -2.173744    4.153579
     28          1           0       -1.798001   -1.398670    4.920551
     29          1           0       -1.658266   -3.134141    4.615112
     30          1           0       -1.173971   -1.987197    3.370248
     31          6           0       -4.522962   -1.877210    5.903467
     32          1           0       -5.222116   -2.352941    6.599594
     33          1           0       -3.581587   -1.726098    6.442472
     34          1           0       -4.929562   -0.889422    5.656695
     35          7           0       -3.018358    0.918100    1.530240
     36          1           0       -3.688306    1.438408    2.106111
     37          6           0       -2.639700    1.534979    0.245416
     38          1           0       -2.962562    0.860166   -0.558443
     39          6           0       -1.102034    1.680704    0.153760
     40          6           0       -3.325248    2.890708    0.108344
     41          1           0       -3.122894    3.317631   -0.877547
     42          1           0       -4.407271    2.783639    0.229266
     43          1           0       -2.945024    3.589145    0.858459
     44          8           0       -0.501439    2.721540    0.368631
     45          7           0       -0.481130    0.505878   -0.201279
     46          1           0       -1.061511   -0.330400   -0.129466
     47          6           0        0.936560    0.341858   -0.017054
     48          1           0        1.370974    1.342827    0.087741
     49          6           0        1.558017   -0.342849   -1.210083
     50          6           0        1.263389   -0.504875    1.275621
     51          1           0        2.340828   -0.712995    1.273298
     52          8           0        0.792001   -1.096332   -1.928519
     53          6           0        0.917136    0.269491    2.546219
     54          1           0        1.482575    1.204881    2.608751
     55          1           0        1.163794   -0.348616    3.414274
     56          1           0       -0.147473    0.517463    2.590066
     57          8           0        0.640148   -1.768525    1.188702
     58          1           0       -0.323831   -1.671472    1.327599
     59          7           0        2.846434   -0.196792   -1.436618
     60          1           0        3.392939    0.468194   -0.870763
     61          6           0        3.741337   -0.966415   -2.310778
     62          1           0        3.701511   -2.024477   -2.017846
     63          6           0        5.158369   -0.404524   -1.977223
     64          6           0        3.392685   -0.850152   -3.804632
     65          1           0        4.200550   -1.258749   -4.417378
     66          1           0        3.249599    0.198025   -4.079255
     67          8           0        5.264617    0.531914   -1.186217
     68          8           0        2.159900   -1.530624   -4.100227
     69          1           0        2.339226   -2.434899   -4.404863
     70          7           0        6.179212   -1.005168   -2.595675
     71          1           0        6.084446   -1.826285   -3.194975
     72          6           0        7.568665   -0.642774   -2.383427
     73          1           0        7.754912    0.389702   -2.701338
     74          1           0        7.831350   -0.711808   -1.320886
     75          6           0        8.396354   -1.634418   -3.221578
     76          8           0        7.826996   -2.510579   -3.877792
     77          7           0        9.727154   -1.465081   -3.172829
     78          1           0       10.150858   -0.754742   -2.583228
     79          6           0       10.670080   -2.338592   -3.869336
     80          1           0       10.317117   -3.371926   -3.790273
     81          6           0       11.989333   -2.197202   -3.117891
     82          6           0       10.792899   -1.960249   -5.369407
     83          1           0        9.765388   -1.900126   -5.746337
     84          1           0       11.219905   -0.951342   -5.442203
     85          8           0       12.246003   -1.267476   -2.381017
     86          6           0       11.588739   -2.946282   -6.233812
     87          1           0       12.631581   -2.991764   -5.897923
     88          1           0       11.176033   -3.955645   -6.096422
     89          6           0       11.549924   -2.574464   -7.722350
     90          1           0       11.949165   -1.557999   -7.854268
     91          1           0       10.504601   -2.541990   -8.065919
     92          6           0       12.347497   -3.537249   -8.625386
     93          1           0       12.340371   -3.144184   -9.649371
     94          1           0       13.398783   -3.544659   -8.308238
     95          7           0       11.896240   -4.927872   -8.684440
     96          1           0       10.918339   -4.972565   -8.967553
     97          1           0       11.956829   -5.369417   -7.769291
     98          8           0       12.838225   -3.203968   -3.373679
     99          1           0       13.663483   -3.018141   -2.884107
    100          1           0        1.231466   -1.411679   -2.781513
 ---------------------------------------------------------------------
 Rotational constants (GHZ):           0.1618404           0.0122655           0.0120423
 Standard basis: 6-31G(d) (6D, 7F)
   824 basis functions,  1552 primitive gaussians,   824 cartesian basis functions
   185 alpha electrons      185 beta electrons
       nuclear repulsion energy      6018.5141343503 Hartrees.
 NAtoms=  100 NActive=  100 NUniq=  100 SFac= 1.00D+00 NAtFMM=   60 NAOKFM=T Big=T
 Integral buffers will be    131072 words long.
 Raffenetti 2 integral format.
 Two-electron integral symmetry is turned off.
 One-electron integrals computed using PRISM.
 NBasis=   824 RedAO= T EigKep=  1.52D-03  NBF=   824
 NBsUse=   824 1.00D-06 EigRej= -1.00D+00 NBFU=   824
 Initial guess from the checkpoint file:  "conf-981.chk"
 B after Tr=     0.000000    0.000000    0.000000
         Rot=    1.000000    0.000000    0.000000    0.000000 Ang=   0.00 deg.
 Requested convergence on RMS density matrix=1.00D-08 within 128 cycles.
 Requested convergence on MAX density matrix=1.00D-06.
 Requested convergence on             energy=1.00D-06.
 No special actions if energy rises.
 SCF Done:  E(RB3LYP) =  -2418.43573194     A.U. after    3 cycles
            NFock=  3  Conv=0.61D-09     -V/T= 2.0093

 **********************************************************************

            Population analysis using the SCF Density.

 **********************************************************************

 Alpha  occ. eigenvalues --  -19.34085 -19.32492 -19.28830 -19.25295 -19.23427
 Alpha  occ. eigenvalues --  -19.23310 -19.22557 -19.21509 -19.20552 -19.19359
 Alpha  occ. eigenvalues --  -19.17631 -14.53170 -14.48787 -14.46211 -14.44601
 Alpha  occ. eigenvalues --  -14.44388 -14.43407 -14.41851 -14.38903 -14.36119
 Alpha  occ. eigenvalues --  -10.46787 -10.42635 -10.41323 -10.39821 -10.39450
 Alpha  occ. eigenvalues --  -10.39253 -10.37813 -10.37407 -10.36020 -10.35385
 Alpha  occ. eigenvalues --  -10.35212 -10.34791 -10.34366 -10.33057 -10.31930
 Alpha  occ. eigenvalues --  -10.31138 -10.29556 -10.27040 -10.26585 -10.26539
 Alpha  occ. eigenvalues --  -10.26175 -10.25701 -10.25407 -10.25152 -10.24895
 Alpha  occ. eigenvalues --  -10.24357 -10.24019 -10.23669  -1.24959  -1.19900
 Alpha  occ. eigenvalues --   -1.18923  -1.17480  -1.14424  -1.13086  -1.12182
 Alpha  occ. eigenvalues --   -1.11287  -1.10986  -1.10822  -1.10046  -1.09376
 Alpha  occ. eigenvalues --   -1.05248  -1.02835  -1.02156  -1.01079  -1.00079
 Alpha  occ. eigenvalues --   -0.96549  -0.95829  -0.93405  -0.92899  -0.88882
 Alpha  occ. eigenvalues --   -0.88320  -0.87836  -0.85148  -0.84885  -0.83664
 Alpha  occ. eigenvalues --   -0.82573  -0.82248  -0.80564  -0.79994  -0.77763
 Alpha  occ. eigenvalues --   -0.76688  -0.76267  -0.73759  -0.73582  -0.72822
 Alpha  occ. eigenvalues --   -0.72545  -0.71276  -0.71203  -0.70374  -0.69731
 Alpha  occ. eigenvalues --   -0.69002  -0.67678  -0.67087  -0.66221  -0.65607
 Alpha  occ. eigenvalues --   -0.65293  -0.64605  -0.64344  -0.64134  -0.62780
 Alpha  occ. eigenvalues --   -0.62542  -0.61586  -0.60474  -0.60374  -0.60187
 Alpha  occ. eigenvalues --   -0.59617  -0.58981  -0.58658  -0.58564  -0.58282
 Alpha  occ. eigenvalues --   -0.57966  -0.57515  -0.56753  -0.56302  -0.56009
 Alpha  occ. eigenvalues --   -0.55662  -0.55237  -0.54793  -0.54622  -0.54601
 Alpha  occ. eigenvalues --   -0.54203  -0.54065  -0.52989  -0.52836  -0.52709
 Alpha  occ. eigenvalues --   -0.52604  -0.52555  -0.51772  -0.51536  -0.51368
 Alpha  occ. eigenvalues --   -0.51206  -0.50170  -0.49998  -0.49821  -0.49327
 Alpha  occ. eigenvalues --   -0.49085  -0.48951  -0.48448  -0.48102  -0.47886
 Alpha  occ. eigenvalues --   -0.47483  -0.47456  -0.47263  -0.46797  -0.46713
 Alpha  occ. eigenvalues --   -0.46579  -0.46550  -0.46229  -0.45915  -0.45588
 Alpha  occ. eigenvalues --   -0.45491  -0.45117  -0.44973  -0.44618  -0.44287
 Alpha  occ. eigenvalues --   -0.43645  -0.43396  -0.43248  -0.42893  -0.42383
 Alpha  occ. eigenvalues --   -0.41750  -0.41649  -0.41499  -0.40670  -0.39795
 Alpha  occ. eigenvalues --   -0.39607  -0.39495  -0.39173  -0.39072  -0.38777
 Alpha  occ. eigenvalues --   -0.38479  -0.37396  -0.37324  -0.36739  -0.36517
 Alpha  occ. eigenvalues --   -0.36335  -0.35317  -0.34522  -0.34181  -0.33062
 Alpha  occ. eigenvalues --   -0.32666  -0.32373  -0.31839  -0.30772  -0.28061
 Alpha virt. eigenvalues --   -0.15755  -0.11079  -0.08552  -0.08014  -0.07992
 Alpha virt. eigenvalues --   -0.07451  -0.06880  -0.05135  -0.03346  -0.03218
 Alpha virt. eigenvalues --   -0.02647  -0.01574  -0.00749  -0.00707   0.00420
 Alpha virt. eigenvalues --    0.00492   0.01197   0.01928   0.02069   0.02255
 Alpha virt. eigenvalues --    0.02520   0.03182   0.03581   0.03790   0.03951
 Alpha virt. eigenvalues --    0.04141   0.04473   0.04878   0.05205   0.05504
 Alpha virt. eigenvalues --    0.05838   0.05992   0.06148   0.06345   0.06386
 Alpha virt. eigenvalues --    0.06780   0.07087   0.07340   0.07361   0.07646
 Alpha virt. eigenvalues --    0.08011   0.08392   0.08558   0.08688   0.08930
 Alpha virt. eigenvalues --    0.09282   0.09529   0.09729   0.09940   0.10134
 Alpha virt. eigenvalues --    0.10390   0.10669   0.10872   0.11254   0.11483
 Alpha virt. eigenvalues --    0.11582   0.11713   0.12040   0.12089   0.12128
 Alpha virt. eigenvalues --    0.12521   0.12523   0.12740   0.12942   0.13088
 Alpha virt. eigenvalues --    0.13527   0.13685   0.14668   0.14702   0.14882
 Alpha virt. eigenvalues --    0.15285   0.15589   0.15802   0.16314   0.16546
 Alpha virt. eigenvalues --    0.16741   0.17568   0.18033   0.18215   0.18681
 Alpha virt. eigenvalues --    0.18932   0.19707   0.19959   0.20247   0.20506
 Alpha virt. eigenvalues --    0.20643   0.21349   0.21643   0.22118   0.22333
 Alpha virt. eigenvalues --    0.22377   0.23009   0.23768   0.24309   0.25015
 Alpha virt. eigenvalues --    0.26752   0.26832   0.27609   0.28838   0.29752
 Alpha virt. eigenvalues --    0.30245   0.30698   0.31825   0.32384   0.32707
 Alpha virt. eigenvalues --    0.33413   0.35917   0.37448   0.37695   0.38572
 Alpha virt. eigenvalues --    0.40381   0.41163   0.41489   0.41855   0.42159
 Alpha virt. eigenvalues --    0.42743   0.42991   0.43105   0.43465   0.44083
 Alpha virt. eigenvalues --    0.44254   0.44932   0.45310   0.45330   0.45712
 Alpha virt. eigenvalues --    0.45846   0.46283   0.46658   0.47220   0.47657
 Alpha virt. eigenvalues --    0.48019   0.48101   0.48370   0.48751   0.49201
 Alpha virt. eigenvalues --    0.49449   0.50111   0.50370   0.50916   0.51038
 Alpha virt. eigenvalues --    0.51851   0.52216   0.52721   0.53025   0.53587
 Alpha virt. eigenvalues --    0.53932   0.54573   0.54834   0.55013   0.55518
 Alpha virt. eigenvalues --    0.55675   0.56265   0.56799   0.56941   0.57209
 Alpha virt. eigenvalues --    0.57366   0.57787   0.58146   0.58281   0.58477
 Alpha virt. eigenvalues --    0.58809   0.59411   0.59610   0.60085   0.60447
 Alpha virt. eigenvalues --    0.60911   0.61052   0.61234   0.61927   0.62474
 Alpha virt. eigenvalues --    0.63089   0.63522   0.63611   0.64213   0.64487
 Alpha virt. eigenvalues --    0.64631   0.64937   0.65826   0.66258   0.66727
 Alpha virt. eigenvalues --    0.67196   0.67762   0.68197   0.68421   0.68620
 Alpha virt. eigenvalues --    0.69031   0.69111   0.69715   0.69790   0.70074
 Alpha virt. eigenvalues --    0.70623   0.71086   0.71259   0.71344   0.71986
 Alpha virt. eigenvalues --    0.72254   0.72448   0.72829   0.73202   0.73698
 Alpha virt. eigenvalues --    0.73968   0.74454   0.74699   0.75117   0.75279
 Alpha virt. eigenvalues --    0.75391   0.75958   0.76123   0.76210   0.76619
 Alpha virt. eigenvalues --    0.77185   0.77805   0.77910   0.78180   0.78615
 Alpha virt. eigenvalues --    0.78978   0.79527   0.79754   0.80059   0.80137
 Alpha virt. eigenvalues --    0.80235   0.80594   0.81035   0.81219   0.81349
 Alpha virt. eigenvalues --    0.81564   0.81740   0.81842   0.82124   0.82301
 Alpha virt. eigenvalues --    0.82604   0.82852   0.83194   0.83473   0.83563
 Alpha virt. eigenvalues --    0.83888   0.84108   0.84715   0.84975   0.85045
 Alpha virt. eigenvalues --    0.85179   0.85388   0.85679   0.85804   0.85948
 Alpha virt. eigenvalues --    0.86614   0.86993   0.87552   0.87854   0.88105
 Alpha virt. eigenvalues --    0.88176   0.88404   0.88509   0.88984   0.89277
 Alpha virt. eigenvalues --    0.89708   0.90115   0.90448   0.90636   0.90883
 Alpha virt. eigenvalues --    0.91345   0.92060   0.92336   0.92751   0.93268
 Alpha virt. eigenvalues --    0.93399   0.93563   0.93686   0.94145   0.95024
 Alpha virt. eigenvalues --    0.95237   0.95548   0.96247   0.96629   0.96947
 Alpha virt. eigenvalues --    0.97678   0.98911   0.99467   0.99718   1.00729
 Alpha virt. eigenvalues --    1.00896   1.01068   1.01339   1.02047   1.02611
 Alpha virt. eigenvalues --    1.02825   1.03789   1.04085   1.04670   1.04977
 Alpha virt. eigenvalues --    1.05628   1.06361   1.06621   1.08215   1.09310
 Alpha virt. eigenvalues --    1.10100   1.10468   1.11230   1.12084   1.13001
 Alpha virt. eigenvalues --    1.13311   1.14720   1.15560   1.16647   1.17010
 Alpha virt. eigenvalues --    1.17483   1.18234   1.18855   1.19033   1.20550
 Alpha virt. eigenvalues --    1.20734   1.21434   1.22107   1.22785   1.23273
 Alpha virt. eigenvalues --    1.24093   1.24709   1.24905   1.25231   1.26657
 Alpha virt. eigenvalues --    1.27352   1.28068   1.29007   1.29224   1.29693
 Alpha virt. eigenvalues --    1.30405   1.30860   1.31577   1.31818   1.33414
 Alpha virt. eigenvalues --    1.33848   1.34511   1.34797   1.35348   1.36065
 Alpha virt. eigenvalues --    1.36850   1.37850   1.38200   1.39701   1.39910
 Alpha virt. eigenvalues --    1.40308   1.41060   1.41818   1.42860   1.43761
 Alpha virt. eigenvalues --    1.44378   1.45748   1.46408   1.46625   1.46824
 Alpha virt. eigenvalues --    1.47162   1.47917   1.48542   1.49234   1.50499
 Alpha virt. eigenvalues --    1.51871   1.53981   1.54713   1.55225   1.55682
 Alpha virt. eigenvalues --    1.56269   1.56357   1.56867   1.56918   1.57740
 Alpha virt. eigenvalues --    1.57909   1.58837   1.58927   1.59164   1.59559
 Alpha virt. eigenvalues --    1.60174   1.60600   1.61113   1.61457   1.62185
 Alpha virt. eigenvalues --    1.62914   1.63297   1.63365   1.63959   1.64914
 Alpha virt. eigenvalues --    1.64999   1.65176   1.65218   1.66006   1.66670
 Alpha virt. eigenvalues --    1.67186   1.67746   1.68103   1.69442   1.69827
 Alpha virt. eigenvalues --    1.70107   1.70585   1.71031   1.71821   1.72062
 Alpha virt. eigenvalues --    1.72464   1.72735   1.73077   1.73498   1.74562
 Alpha virt. eigenvalues --    1.75332   1.75812   1.75993   1.76015   1.76257
 Alpha virt. eigenvalues --    1.77161   1.77322   1.77938   1.78641   1.79099
 Alpha virt. eigenvalues --    1.79321   1.79606   1.79709   1.80249   1.80586
 Alpha virt. eigenvalues --    1.80708   1.81375   1.82313   1.82407   1.83361
 Alpha virt. eigenvalues --    1.83431   1.84244   1.84862   1.85220   1.85736
 Alpha virt. eigenvalues --    1.86539   1.87261   1.87779   1.88267   1.88861
 Alpha virt. eigenvalues --    1.88969   1.89185   1.89268   1.89560   1.89775
 Alpha virt. eigenvalues --    1.90481   1.90674   1.91110   1.91994   1.92711
 Alpha virt. eigenvalues --    1.92780   1.92889   1.93446   1.93843   1.95202
 Alpha virt. eigenvalues --    1.95593   1.95810   1.95989   1.97193   1.97615
 Alpha virt. eigenvalues --    1.97737   1.98010   1.98523   1.98719   1.99078
 Alpha virt. eigenvalues --    1.99729   1.99833   2.00125   2.00319   2.01726
 Alpha virt. eigenvalues --    2.01984   2.02900   2.03192   2.03925   2.04384
 Alpha virt. eigenvalues --    2.04964   2.05648   2.05800   2.07056   2.07263
 Alpha virt. eigenvalues --    2.07604   2.08837   2.10078   2.10461   2.10777
 Alpha virt. eigenvalues --    2.11454   2.12014   2.12940   2.13253   2.14788
 Alpha virt. eigenvalues --    2.15132   2.16012   2.16457   2.17310   2.18040
 Alpha virt. eigenvalues --    2.18756   2.19343   2.20726   2.22057   2.22310
 Alpha virt. eigenvalues --    2.23108   2.23364   2.24213   2.24310   2.24501
 Alpha virt. eigenvalues --    2.25366   2.25470   2.25757   2.26479   2.27338
 Alpha virt. eigenvalues --    2.28123   2.28551   2.29473   2.29629   2.31360
 Alpha virt. eigenvalues --    2.31566   2.32024   2.32474   2.33061   2.33242
 Alpha virt. eigenvalues --    2.34079   2.34496   2.34911   2.35660   2.36008
 Alpha virt. eigenvalues --    2.36303   2.36695   2.37637   2.38253   2.39007
 Alpha virt. eigenvalues --    2.39650   2.39950   2.41237   2.42445   2.42638
 Alpha virt. eigenvalues --    2.43771   2.44637   2.44895   2.45594   2.46747
 Alpha virt. eigenvalues --    2.47505   2.48488   2.49004   2.50550   2.51496
 Alpha virt. eigenvalues --    2.51754   2.52376   2.53113   2.54505   2.54924
 Alpha virt. eigenvalues --    2.55694   2.56002   2.56983   2.57658   2.58458
 Alpha virt. eigenvalues --    2.58512   2.58661   2.60027   2.60664   2.61215
 Alpha virt. eigenvalues --    2.62974   2.63840   2.64232   2.64493   2.65281
 Alpha virt. eigenvalues --    2.65744   2.66890   2.68931   2.70291   2.70456
 Alpha virt. eigenvalues --    2.71781   2.72174   2.72818   2.74518   2.75432
 Alpha virt. eigenvalues --    2.76428   2.76798   2.77895   2.79556   2.80470
 Alpha virt. eigenvalues --    2.80805   2.83547   2.84202   2.85193   2.86398
 Alpha virt. eigenvalues --    2.87962   2.89864   2.91889   2.92364   2.93300
 Alpha virt. eigenvalues --    2.93701   2.96370   2.99054   2.99843   3.02670
 Alpha virt. eigenvalues --    3.03478   3.05305   3.08401   3.10000   3.11485
 Alpha virt. eigenvalues --    3.11585   3.72467   3.72775   3.74647   3.79256
 Alpha virt. eigenvalues --    3.80828   3.81429   3.85407   3.89985   3.90576
 Alpha virt. eigenvalues --    3.93193   3.95325   3.96086   3.98933   4.00292
 Alpha virt. eigenvalues --    4.01458   4.05575   4.08798   4.09864   4.10841
 Alpha virt. eigenvalues --    4.11475   4.12467   4.15955   4.17371   4.18217
 Alpha virt. eigenvalues --    4.18260   4.20230   4.22233   4.22437   4.23143
 Alpha virt. eigenvalues --    4.25015   4.26976   4.28838   4.31319   4.34360
 Alpha virt. eigenvalues --    4.35695   4.37102   4.40049   4.41051   4.44628
 Alpha virt. eigenvalues --    4.45293   4.46603   4.49184   4.49860   4.53637
 Alpha virt. eigenvalues --    4.56984   4.57296   4.59011   4.63781
          Condensed to atoms (all electrons):
 Mulliken charges:
               1
     1  N   -0.757818
     2  H    0.347878
     3  H    0.306313
     4  C   -0.062368
     5  H    0.193332
     6  C    0.617718
     7  C   -0.389522
     8  H    0.166707
     9  H    0.196067
    10  O   -0.568421
    11  C    0.611126
    12  N   -0.748674
    13  H    0.353019
    14  H    0.345179
    15  O   -0.512218
    16  N   -0.612710
    17  H    0.374939
    18  C   -0.044835
    19  H    0.179843
    20  C    0.632762
    21  C   -0.100046
    22  H    0.151433
    23  O   -0.577190
    24  C   -0.263523
    25  H    0.148072
    26  H    0.133852
    27  C   -0.475803
    28  H    0.150561
    29  H    0.160767
    30  H    0.149675
    31  C   -0.460290
    32  H    0.157436
    33  H    0.155448
    34  H    0.149247
    35  N   -0.619428
    36  H    0.396616
    37  C   -0.055439
    38  H    0.173805
    39  C    0.621779
    40  C   -0.477173
    41  H    0.172811
    42  H    0.169691
    43  H    0.189830
    44  O   -0.501296
    45  N   -0.618624
    46  H    0.375011
    47  C   -0.094423
    48  H    0.213481
    49  C    0.666101
    50  C    0.126614
    51  H    0.145180
    52  O   -0.546935
    53  C   -0.476404
    54  H    0.169190
    55  H    0.183119
    56  H    0.169431
    57  O   -0.651474
    58  H    0.446581
    59  N   -0.601129
    60  H    0.406057
    61  C   -0.096200
    62  H    0.210029
    63  C    0.637060
    64  C   -0.063715
    65  H    0.194249
    66  H    0.213329
    67  O   -0.517269
    68  O   -0.628345
    69  H    0.441265
    70  N   -0.631924
    71  H    0.366855
    72  C   -0.203795
    73  H    0.210397
    74  H    0.211191
    75  C    0.618895
    76  O   -0.538368
    77  N   -0.623051
    78  H    0.363415
    79  C   -0.033075
    80  H    0.198397
    81  C    0.586494
    82  C   -0.270012
    83  H    0.168576
    84  H    0.152097
    85  O   -0.463656
    86  C   -0.264434
    87  H    0.153214
    88  H    0.129716
    89  C   -0.264039
    90  H    0.133866
    91  H    0.124967
    92  C   -0.146246
    93  H    0.151446
    94  H    0.145389
    95  N   -0.701621
    96  H    0.293005
    97  H    0.297678
    98  O   -0.550812
    99  H    0.429219
   100  H    0.474887
 Sum of Mulliken charges =   1.00000
 Mulliken charges with hydrogens summed into heavy atoms:
               1
     1  N   -0.103627
     4  C    0.130964
     6  C    0.617718
     7  C   -0.026749
    10  O   -0.568421
    11  C    0.611126
    12  N   -0.050476
    15  O   -0.512218
    16  N   -0.237771
    18  C    0.135008
    20  C    0.632762
    21  C    0.051387
    23  O   -0.577190
    24  C    0.018401
    27  C   -0.014799
    31  C    0.001841
    35  N   -0.222813
    37  C    0.118366
    39  C    0.621779
    40  C    0.055159
    44  O   -0.501296
    45  N   -0.243613
    47  C    0.119058
    49  C    0.666101
    50  C    0.271794
    52  O   -0.072049
    53  C    0.045336
    57  O   -0.204893
    59  N   -0.195072
    61  C    0.113829
    63  C    0.637060
    64  C    0.343864
    67  O   -0.517269
    68  O   -0.187079
    70  N   -0.265069
    72  C    0.217792
    75  C    0.618895
    76  O   -0.538368
    77  N   -0.259635
    79  C    0.165322
    81  C    0.586494
    82  C    0.050661
    85  O   -0.463656
    86  C    0.018496
    89  C   -0.005206
    92  C    0.150589
    95  N   -0.110939
    98  O   -0.121593
 Electronic spatial extent (au):  <R**2>=          88479.8766
 Charge=              1.0000 electrons
 Dipole moment (field-independent basis, Debye):
    X=             10.0693    Y=             -4.3528    Z=             -4.5538  Tot=             11.8775
 Quadrupole moment (field-independent basis, Debye-Ang):
   XX=            -39.7104   YY=           -277.1417   ZZ=           -221.7871
   XY=            -49.5561   XZ=           -104.5988   YZ=              9.1800
 Traceless Quadrupole moment (field-independent basis, Debye-Ang):
   XX=            139.8360   YY=            -97.5953   ZZ=            -42.2407
   XY=            -49.5561   XZ=           -104.5988   YZ=              9.1800
 Octapole moment (field-independent basis, Debye-Ang**2):
  XXX=           -286.7717  YYY=            663.0485  ZZZ=            575.8942  XYY=           -513.6298
  XXY=            205.6571  XXZ=            220.5424  XZZ=           -539.2321  YZZ=            254.7777
  YYZ=            220.5562  XYZ=            -79.3865
 Hexadecapole moment (field-independent basis, Debye-Ang**3):
 XXXX=         -55164.6694 YYYY=          -6423.4078 ZZZZ=         -23148.5491 XXXY=            785.6697
 XXXZ=          10763.7714 YYYX=           7236.8841 YYYZ=          -3257.0256 ZZZX=          19190.2209
 ZZZY=          -3989.4430 XXYY=         -14471.6013 XXZZ=         -16735.4728 YYZZ=          -5358.8725
 XXYZ=          -1219.0234 YYXZ=           6800.7609 ZZXY=           3609.1470
 N-N= 6.018514134350D+03 E-N=-1.764653831630D+04  KE= 2.396185422270D+03
 Unable to Open any file for archive entry.
 1\1\GINC-AMR-110\SP\RB3LYP\6-31G(d)\C28H52N9O11(1+)\KENGMITH\27-May-20
 22\0\\# B3LYP/6-31G* guess=read geom=check nosymm integral(ultrafinegr
 id)\\Candidate Structure: Conf:981 Charge calc in gas phase\\1,1\N,0,-
 7.7597707361,-1.3067809391,2.3863819594\H,0,-8.6165259469,-1.436007626
 6,1.8495646981\H,0,-7.9929989974,-1.5326478919,3.3541204779\C,0,-7.388
 4407961,0.1087342385,2.2809530719\H,0,-7.4531631553,0.3600469312,1.214
 2326704\C,0,-5.9156467473,0.3164961484,2.6628191595\C,0,-8.2925254564,
 1.0954065119,3.0338859895\H,0,-8.3597075439,0.8158093578,4.095100586\H
 ,0,-7.8460658009,2.0960372493,3.0076162027\O,0,-5.4505537623,1.4383376
 779,2.9096127368\C,0,-9.6974188817,1.1239751817,2.4281187458\N,0,-10.5
 568906069,2.0086152382,3.0033967609\H,0,-11.4863392397,2.0954780165,2.
 61555499\H,0,-10.2642293409,2.6722844614,3.7049343952\O,0,-10.03150016
 95,0.393806079,1.5001527624\N,0,-5.1711146054,-0.812257149,2.654710467
 6\H,0,-5.6735626739,-1.6582777693,2.393938914\C,0,-3.7586092384,-0.842
 8769519,3.034108305\H,0,-3.6288549851,-0.0744973005,3.8054437659\C,0,-
 2.9312349035,-0.4052431347,1.7980347588\C,0,-3.3448107894,-2.219531625
 ,3.5951502062\H,0,-3.3501628336,-2.9254939584,2.7540618599\O,0,-2.2892
 261641,-1.208486295,1.0982359287\C,0,-4.3388407205,-2.7515721577,4.656
 2740871\H,0,-3.9815488415,-3.743190536,4.9623373922\H,0,-5.3183987081,
 -2.9229963253,4.1935767161\C,0,-1.912022202,-2.1737435557,4.1535791003
 \H,0,-1.7980007016,-1.3986701971,4.9205510379\H,0,-1.6582656534,-3.134
 1410755,4.6151117496\H,0,-1.1739712386,-1.9871969236,3.3702479495\C,0,
 -4.5229619956,-1.8772096299,5.9034667688\H,0,-5.2221162826,-2.35294060
 66,6.5995943508\H,0,-3.581586782,-1.7260981868,6.4424721022\H,0,-4.929
 5621952,-0.8894215609,5.656695064\N,0,-3.0183582827,0.9181001104,1.530
 2395949\H,0,-3.6883055085,1.4384077434,2.1061107931\C,0,-2.6397004742,
 1.5349788935,0.2454163669\H,0,-2.9625624245,0.8601658522,-0.5584427406
 \C,0,-1.1020336203,1.6807041613,0.1537603905\C,0,-3.3252482413,2.89070
 76246,0.1083439865\H,0,-3.1228944343,3.3176306979,-0.8775465082\H,0,-4
 .4072712327,2.783639451,0.2292655345\H,0,-2.9450235114,3.5891454469,0.
 8584587086\O,0,-0.5014394659,2.7215395217,0.3686311385\N,0,-0.48112978
 66,0.5058783342,-0.2012789583\H,0,-1.0615106824,-0.3303998347,-0.12946
 642\C,0,0.9365597671,0.341857887,-0.0170536352\H,0,1.3709738657,1.3428
 270925,0.0877412499\C,0,1.5580168713,-0.3428488794,-1.2100829625\C,0,1
 .2633894034,-0.5048752056,1.2756207014\H,0,2.3408276839,-0.7129949337,
 1.2732978371\O,0,0.7920011584,-1.0963322563,-1.9285189919\C,0,0.917136
 0585,0.2694910479,2.5462192947\H,0,1.4825750558,1.2048813593,2.6087514
 728\H,0,1.1637943935,-0.3486158684,3.4142741879\H,0,-0.1474732142,0.51
 74633228,2.5900663907\O,0,0.6401475783,-1.7685252375,1.1887017481\H,0,
 -0.3238308242,-1.6714724693,1.3275994844\N,0,2.8464343544,-0.196792057
 5,-1.4366178749\H,0,3.3929387151,0.4681939208,-0.8707631613\C,0,3.7413
 373767,-0.9664153015,-2.310777697\H,0,3.701511426,-2.0244770488,-2.017
 845793\C,0,5.1583694522,-0.4045241991,-1.9772227608\C,0,3.3926854534,-
 0.8501522423,-3.8046317179\H,0,4.2005499764,-1.2587491179,-4.417378076
 9\H,0,3.2495994824,0.1980245246,-4.0792552897\O,0,5.2646174962,0.53191
 40888,-1.186216824\O,0,2.1599003455,-1.5306235439,-4.1002266117\H,0,2.
 339225733,-2.4348991462,-4.4048625486\N,0,6.179211956,-1.0051678347,-2
 .5956748557\H,0,6.0844457057,-1.8262845982,-3.1949748352\C,0,7.5686649
 761,-0.64277351,-2.3834271475\H,0,7.7549119756,0.3897018133,-2.7013378
 495\H,0,7.8313499343,-0.7118079852,-1.3208855505\C,0,8.3963541846,-1.6
 344184418,-3.2215781324\O,0,7.8269956587,-2.5105788806,-3.8777919882\N
 ,0,9.72715445,-1.4650812816,-3.1728289807\H,0,10.1508579463,-0.7547418
 51,-2.5832280021\C,0,10.6700802345,-2.3385917133,-3.8693361363\H,0,10.
 3171169488,-3.3719255682,-3.7902728121\C,0,11.9893332577,-2.1972024909
 ,-3.117891499\C,0,10.7928994,-1.9602491387,-5.3694068683\H,0,9.7653879
 257,-1.900125858,-5.7463366314\H,0,11.2199051135,-0.9513419584,-5.4422
 025706\O,0,12.2460033995,-1.2674760364,-2.3810174536\C,0,11.5887390943
 ,-2.9462819867,-6.233811856\H,0,12.6315813035,-2.9917639688,-5.8979231
 199\H,0,11.1760332658,-3.9556451316,-6.0964215616\C,0,11.5499238086,-2
 .5744641102,-7.7223503032\H,0,11.9491648254,-1.5579994894,-7.854268039
 \H,0,10.5046011323,-2.5419895786,-8.0659192993\C,0,12.3474972839,-3.53
 7248837,-8.6253864329\H,0,12.3403714524,-3.1441844886,-9.6493709312\H,
 0,13.398783211,-3.5446592835,-8.3082376175\N,0,11.8962401133,-4.927872
 3578,-8.6844396398\H,0,10.9183393065,-4.9725651741,-8.9675532103\H,0,1
 1.956829182,-5.3694174099,-7.7692911863\O,0,12.8382252674,-3.203968370
 4,-3.3736786164\H,0,13.6634826749,-3.0181412273,-2.8841072026\H,0,1.23
 14656632,-1.4116785264,-2.78151262\\Version=ES64L-G16RevC.01\HF=-2418.
 4357319\RMSD=6.064e-10\Dipole=1.1858206,-0.2493382,-0.6600674\Quadrupo
 le=103.9646237,-72.5597171,-31.4049065,-36.8437215,-77.7666488,6.82511
 44\PG=C01 [X(C28H52N9O11)]\\@
 The archive entry for this job was punched.


 DO YOU KNOW THAT THE LETTERS IN "EPISCOPAL", WHEN
 REARRANGED, SPELL "PEPSI COLA"?
 Job cpu time:       0 days  0 hours  3 minutes 45.3 seconds.
 Elapsed time:       0 days  0 hours  0 minutes 56.9 seconds.
 File lengths (MBytes):  RWF=    472 Int=      0 D2E=      0 Chk=     72 Scr=     16
 Normal termination of Gaussian 16 at Fri May 27 02:50:20 2022.
