 Entering Gaussian System, Link 0=/opt/software/Gaussian/g16-AVX2-C.01/g16/g16
 Input=charge-conf-807.com
 Output=charge-conf-807.log
 Initial command:
 /opt/software/Gaussian/g16-AVX2-C.01/g16/l1.exe "/mnt/gs18/scratch/users/kengmith/Gau-42980.inp" -scrdir="/mnt/gs18/scratch/users/kengmith/"
 Entering Link 1 = /opt/software/Gaussian/g16-AVX2-C.01/g16/l1.exe PID=     43012.
  
 Copyright (c) 1988-2019, Gaussian, Inc.  All Rights Reserved.
  
 This is part of the Gaussian(R) 16 program.  It is based on
 the Gaussian(R) 09 system (copyright 2009, Gaussian, Inc.),
 the Gaussian(R) 03 system (copyright 2003, Gaussian, Inc.),
 the Gaussian(R) 98 system (copyright 1998, Gaussian, Inc.),
 the Gaussian(R) 94 system (copyright 1995, Gaussian, Inc.),
 the Gaussian 92(TM) system (copyright 1992, Gaussian, Inc.),
 the Gaussian 90(TM) system (copyright 1990, Gaussian, Inc.),
 the Gaussian 88(TM) system (copyright 1988, Gaussian, Inc.),
 the Gaussian 86(TM) system (copyright 1986, Carnegie Mellon
 University), and the Gaussian 82(TM) system (copyright 1983,
 Carnegie Mellon University). Gaussian is a federally registered
 trademark of Gaussian, Inc.
  
 This software contains proprietary and confidential information,
 including trade secrets, belonging to Gaussian, Inc.
  
 This software is provided under written license and may be
 used, copied, transmitted, or stored only in accord with that
 written license.
  
 The following legend is applicable only to US Government
 contracts under FAR:
  
                    RESTRICTED RIGHTS LEGEND
  
 Use, reproduction and disclosure by the US Government is
 subject to restrictions as set forth in subparagraphs (a)
 and (c) of the Commercial Computer Software - Restricted
 Rights clause in FAR 52.227-19.
  
 Gaussian, Inc.
 340 Quinnipiac St., Bldg. 40, Wallingford CT 06492
  
  
 ---------------------------------------------------------------
 Warning -- This program may not be used in any manner that
 competes with the business of Gaussian, Inc. or will provide
 assistance to any competitor of Gaussian, Inc.  The licensee
 of this program is prohibited from giving any competitor of
 Gaussian, Inc. access to this program.  By using this program,
 the user acknowledges that Gaussian, Inc. is engaged in the
 business of creating and licensing software in the field of
 computational chemistry and represents and warrants to the
 licensee that it is not a competitor of Gaussian, Inc. and that
 it will not use this program in any manner prohibited above.
 ---------------------------------------------------------------
  

 Cite this work as:
 Gaussian 16, Revision C.01,
 M. J. Frisch, G. W. Trucks, H. B. Schlegel, G. E. Scuseria, 
 M. A. Robb, J. R. Cheeseman, G. Scalmani, V. Barone, 
 G. A. Petersson, H. Nakatsuji, X. Li, M. Caricato, A. V. Marenich, 
 J. Bloino, B. G. Janesko, R. Gomperts, B. Mennucci, H. P. Hratchian, 
 J. V. Ortiz, A. F. Izmaylov, J. L. Sonnenberg, D. Williams-Young, 
 F. Ding, F. Lipparini, F. Egidi, J. Goings, B. Peng, A. Petrone, 
 T. Henderson, D. Ranasinghe, V. G. Zakrzewski, J. Gao, N. Rega, 
 G. Zheng, W. Liang, M. Hada, M. Ehara, K. Toyota, R. Fukuda, 
 J. Hasegawa, M. Ishida, T. Nakajima, Y. Honda, O. Kitao, H. Nakai, 
 T. Vreven, K. Throssell, J. A. Montgomery, Jr., J. E. Peralta, 
 F. Ogliaro, M. J. Bearpark, J. J. Heyd, E. N. Brothers, K. N. Kudin, 
 V. N. Staroverov, T. A. Keith, R. Kobayashi, J. Normand, 
 K. Raghavachari, A. P. Rendell, J. C. Burant, S. S. Iyengar, 
 J. Tomasi, M. Cossi, J. M. Millam, M. Klene, C. Adamo, R. Cammi, 
 J. W. Ochterski, R. L. Martin, K. Morokuma, O. Farkas, 
 J. B. Foresman, and D. J. Fox, Gaussian, Inc., Wallingford CT, 2019.
 
 ******************************************
 Gaussian 16:  ES64L-G16RevC.01  3-Jul-2019
                27-May-2022 
 ******************************************
 %mem=8gb
 %nproc=4
 Will use up to    4 processors via shared memory.
 %chk=conf-807.chk
 -------------------------------------------------------------------
 # B3LYP/6-31G* guess=read geom=check nosymm integral(ultrafinegrid)
 -------------------------------------------------------------------
 1/29=2,38=1,172=1/1;
 2/12=2,15=1,40=1/2;
 3/5=1,6=6,7=1,11=2,14=-4,25=1,30=1,74=-5,75=-5,116=-2/1,2,3;
 4/5=1/1;
 5/5=2,38=6/2;
 6/7=2,8=2,9=2,10=2,28=1/1;
 99/5=1,9=1/99;
 ------------------------------------------------------
 Candidate Structure: Conf:807 Charge calc in gas phase
 ------------------------------------------------------
 Structure from the checkpoint file:  "conf-807.chk"
 Charge =  1 Multiplicity = 1
 Redundant internal coordinates found in file.  (old form).
 N,0,-7.625088602,-0.6293265966,3.9562882051
 H,0,-7.8112295415,0.3636168663,3.8010281228
 H,0,-8.0517166857,-0.8814677583,4.8437164565
 C,0,-6.1686058224,-0.7939319515,4.0154690361
 H,0,-5.876438664,-1.3079667657,4.9397567042
 C,0,-5.473097891,0.5811188824,3.9614711971
 C,0,-5.6577279619,-1.6654181499,2.8262548717
 H,0,-4.5816422331,-1.8425638037,2.9041346349
 H,0,-6.1738294236,-2.6295283147,2.8819438365
 O,0,-6.0859948467,1.5840125291,3.6107165213
 C,0,-5.9083947138,-1.0112867983,1.4672843686
 N,0,-7.2149282042,-0.990943283,1.0909163578
 H,0,-7.4524118341,-0.42419537,0.2866430584
 H,0,-7.9086520329,-1.0980530741,1.8283939107
 O,0,-4.993514076,-0.5570934478,0.7808480241
 N,0,-4.143087408,0.5885741329,4.2817339786
 H,0,-3.6836578787,-0.3078625022,4.3912315702
 C,0,-3.2687444628,1.6659864049,3.8105490186
 H,0,-3.9448135131,2.4593049798,3.4868485513
 C,0,-2.5166936099,1.0849605812,2.6034251348
 C,0,-2.35127044,2.227014472,4.9279074182
 H,0,-3.0490264316,2.6023027768,5.6903041939
 O,0,-1.8444663678,0.0499784937,2.7140524206
 C,0,-1.5012485708,3.4188370519,4.4361153122
 H,0,-0.8023526788,3.077526765,3.6601543616
 H,0,-0.8760108819,3.7402500314,5.2795673728
 C,0,-1.4616484513,1.1639991679,5.5911215259
 H,0,-0.7345717294,0.7542978246,4.8839438943
 H,0,-0.9198487465,1.6098642594,6.4330701033
 H,0,-2.0499774846,0.3309761795,5.9911884724
 C,0,-2.295014019,4.6312577774,3.932808474
 H,0,-1.6242397913,5.4720077608,3.7258770816
 H,0,-2.8397599519,4.4232091457,3.0043124555
 H,0,-3.0274851067,4.9662187883,4.6769442791
 N,0,-2.6649071474,1.7250990841,1.4191956611
 H,0,-3.321599136,2.493591307,1.3745496071
 C,0,-2.3302807477,1.0801455821,0.1389990249
 H,0,-2.5185443501,0.0089500848,0.2768026646
 C,0,-0.8368876309,1.2628574704,-0.1968614404
 C,0,-3.2370434615,1.614881815,-0.9635644914
 H,0,-2.970891311,1.1623599019,-1.9217384189
 H,0,-4.2700388713,1.3494235114,-0.7271797371
 H,0,-3.1347441858,2.6995840111,-1.0751152391
 O,0,-0.4601231363,1.8621007891,-1.2171853202
 N,0,0.023505971,0.6877188925,0.6768260533
 H,0,-0.3841349044,0.2939945454,1.5322364272
 C,0,1.4594368828,0.9701587741,0.6526759362
 H,0,1.593265132,2.0216601026,0.3645627615
 C,0,2.1322115361,0.0964484307,-0.4242770706
 C,0,2.0771859678,0.7546822749,2.044128982
 H,0,2.0205707844,-0.3168228762,2.2843834892
 O,0,2.8808537562,-0.85799224,-0.1681489955
 C,0,3.5315967078,1.2206730489,2.1171577949
 H,0,4.1733532707,0.6368658661,1.4522362252
 H,0,3.9110152068,1.0932358495,3.1374518263
 H,0,3.6070734466,2.283286387,1.8611835667
 O,0,1.2529928134,1.5098949271,2.9311976093
 H,0,1.5435595459,1.3336135262,3.8392365901
 N,0,1.8248349656,0.455732376,-1.6994680691
 H,0,1.0691809621,1.1564557526,-1.7923791367
 C,0,2.0846019151,-0.4642505169,-2.7969949767
 H,0,1.9586729542,-1.492959289,-2.4351668752
 C,0,3.5488577398,-0.348806013,-3.2417826973
 C,0,1.1070678238,-0.2659705081,-3.9534321953
 H,0,1.2772638982,0.7019659255,-4.4415129079
 H,0,0.0890980581,-0.2738535255,-3.5408731215
 O,0,3.7755934057,0.2641676782,-4.3502800665
 O,0,1.3380050699,-1.357397404,-4.8314819321
 H,0,0.8298032653,-1.2206249863,-5.6455186127
 N,0,4.4403255709,-0.8822927958,-2.4312944907
 H,0,4.0110046532,-1.1829200788,-1.5340002173
 C,0,5.9039593783,-0.7468846525,-2.4578461917
 H,0,6.1915772983,0.2914612338,-2.2662785198
 H,0,6.2915804202,-1.3544407057,-1.6358782618
 C,0,6.6005363901,-1.1465352544,-3.7630446071
 O,0,7.6809848242,-0.6572821567,-4.0415703821
 N,0,5.9337005148,-2.0014022309,-4.5931170368
 H,0,5.0601556993,-2.4253628974,-4.3135981627
 C,0,6.3576024497,-2.1079168019,-5.9786357661
 H,0,7.4120598673,-2.3980230931,-6.0137347998
 C,0,6.2592289541,-0.7176888675,-6.6134631127
 C,0,5.5167738745,-3.1440513485,-6.7580857205
 H,0,5.9755190898,-3.2620866193,-7.7455550846
 H,0,5.6333018661,-4.1068721808,-6.2446182509
 O,0,5.616226391,0.222902521,-6.1595990139
 C,0,4.0282603487,-2.7963537526,-6.914826906
 H,0,3.5600261507,-2.6061721724,-5.9383687025
 H,0,3.9281260591,-1.8566686738,-7.4766699287
 C,0,3.2317093449,-3.8953121376,-7.6323046009
 H,0,3.3494347015,-4.8482662823,-7.0959479296
 H,0,3.6434791095,-4.0530446375,-8.6394051619
 C,0,1.7316655158,-3.5603112724,-7.7405453878
 H,0,1.3264028444,-3.4209855457,-6.7284133082
 H,0,1.6159294742,-2.5980477829,-8.2595002722
 N,0,0.8873186678,-4.5336438375,-8.4246992834
 H,0,0.9482589337,-5.4422304485,-7.9679979862
 H,0,1.204805815,-4.6701940442,-9.3829642731
 O,0,6.9323830482,-0.6347914306,-7.7526521899
 H,0,6.8293515801,0.2683359939,-8.1130545251
 H,0,4.6590530045,0.1901947125,-4.8570841157
 Recover connectivity data from disk.
                           ----------------------------
                           !    Current Parameters    !
                           ! (Angstroms and Degrees)  !
 --------------------------                            --------------------------
 ! Name  Definition              Value                                          !
 --------------------------------------------------------------------------------
 ! R1    R(1,2)                  1.0221                                         !
 ! R2    R(1,3)                  1.0164                                         !
 ! R3    R(1,4)                  1.4669                                         !
 ! R4    R(4,5)                  1.0972                                         !
 ! R5    R(4,6)                  1.5419                                         !
 ! R6    R(4,7)                  1.5604                                         !
 ! R7    R(6,10)                 1.2266                                         !
 ! R8    R(6,16)                 1.368                                          !
 ! R9    R(7,8)                  1.0933                                         !
 ! R10   R(7,9)                  1.095                                          !
 ! R11   R(7,11)                 1.5289                                         !
 ! R12   R(11,12)                1.3598                                         !
 ! R13   R(11,15)                1.2306                                         !
 ! R14   R(12,13)                1.0122                                         !
 ! R15   R(12,14)                1.0181                                         !
 ! R16   R(16,17)                1.0132                                         !
 ! R17   R(16,18)                1.4654                                         !
 ! R18   R(18,19)                1.0914                                         !
 ! R19   R(18,20)                1.5363                                         !
 ! R20   R(18,21)                1.5508                                         !
 ! R21   R(20,23)                1.2391                                         !
 ! R22   R(20,35)                1.3543                                         !
 ! R23   R(21,22)                1.0995                                         !
 ! R24   R(21,24)                1.5443                                         !
 ! R25   R(21,27)                1.5366                                         !
 ! R26   R(24,25)                1.0987                                         !
 ! R27   R(24,26)                1.098                                          !
 ! R28   R(24,31)                1.5341                                         !
 ! R29   R(27,28)                1.0939                                         !
 ! R30   R(27,29)                1.096                                          !
 ! R31   R(27,30)                1.0955                                         !
 ! R32   R(31,32)                1.0953                                         !
 ! R33   R(31,33)                1.0964                                         !
 ! R34   R(31,34)                1.0966                                         !
 ! R35   R(35,36)                1.0118                                         !
 ! R36   R(35,37)                1.472                                          !
 ! R37   R(37,38)                1.0963                                         !
 ! R38   R(37,39)                1.5416                                         !
 ! R39   R(37,40)                1.5244                                         !
 ! R40   R(39,44)                1.2418                                         !
 ! R41   R(39,45)                1.3544                                         !
 ! R42   R(40,41)                1.0926                                         !
 ! R43   R(40,42)                1.0924                                         !
 ! R44   R(40,43)                1.0952                                         !
 ! R45   R(45,46)                1.0261                                         !
 ! R46   R(45,47)                1.4636                                         !
 ! R47   R(47,48)                1.0984                                         !
 ! R48   R(47,49)                1.5414                                         !
 ! R49   R(47,50)                1.5376                                         !
 ! R50   R(49,52)                1.2398                                         !
 ! R51   R(49,59)                1.36                                           !
 ! R52   R(50,51)                1.0996                                         !
 ! R53   R(50,53)                1.529                                          !
 ! R54   R(50,57)                1.4271                                         !
 ! R55   R(53,54)                1.0931                                         !
 ! R56   R(53,55)                1.096                                          !
 ! R57   R(53,56)                1.0956                                         !
 ! R58   R(57,58)                0.9696                                         !
 ! R59   R(59,60)                1.0347                                         !
 ! R60   R(59,61)                1.4555                                         !
 ! R61   R(61,62)                1.0977                                         !
 ! R62   R(61,63)                1.5347                                         !
 ! R63   R(61,64)                1.5272                                         !
 ! R64   R(63,67)                1.2868                                         !
 ! R65   R(63,70)                1.3177                                         !
 ! R66   R(64,65)                1.0973                                         !
 ! R67   R(64,66)                1.0984                                         !
 ! R68   R(64,68)                1.4197                                         !
 ! R69   R(68,69)                0.9693                                         !
 ! R70   R(68,100)               3.664                                          !
 ! R71   R(70,71)                1.0391                                         !
 ! R72   R(70,72)                1.4701                                         !
 ! R73   R(72,73)                1.0943                                         !
 ! R74   R(72,74)                1.0932                                         !
 ! R75   R(72,75)                1.5325                                         !
 ! R76   R(75,76)                1.2183                                         !
 ! R77   R(75,77)                1.3655                                         !
 ! R78   R(77,78)                1.0104                                         !
 ! R79   R(77,79)                1.4528                                         !
 ! R80   R(79,80)                1.0942                                         !
 ! R81   R(79,81)                1.5315                                         !
 ! R82   R(79,82)                1.5454                                         !
 ! R83   R(81,85)                1.2264                                         !
 ! R84   R(81,98)                1.3258                                         !
 ! R85   R(82,83)                1.0952                                         !
 ! R86   R(82,84)                1.0974                                         !
 ! R87   R(82,86)                1.5366                                         !
 ! R88   R(86,87)                1.0995                                         !
 ! R89   R(86,88)                1.0994                                         !
 ! R90   R(86,89)                1.5352                                         !
 ! R91   R(89,90)                1.0998                                         !
 ! R92   R(89,91)                1.0994                                         !
 ! R93   R(89,92)                1.5408                                         !
 ! R94   R(92,93)                1.0991                                         !
 ! R95   R(92,94)                1.0994                                         !
 ! R96   R(92,95)                1.4589                                         !
 ! R97   R(95,96)                1.0187                                         !
 ! R98   R(95,97)                1.0187                                         !
 ! R99   R(98,99)                0.9778                                         !
 ! A1    A(2,1,3)              107.288                                          !
 ! A2    A(2,1,4)              107.2147                                         !
 ! A3    A(3,1,4)              110.7127                                         !
 ! A4    A(1,4,5)              110.5443                                         !
 ! A5    A(1,4,6)              110.2659                                         !
 ! A6    A(1,4,7)              110.916                                          !
 ! A7    A(5,4,6)              109.098                                          !
 ! A8    A(5,4,7)              107.0484                                         !
 ! A9    A(6,4,7)              108.8872                                         !
 ! A10   A(4,6,10)             120.9167                                         !
 ! A11   A(4,6,16)             115.7978                                         !
 ! A12   A(10,6,16)            123.2492                                         !
 ! A13   A(4,7,8)              111.0048                                         !
 ! A14   A(4,7,9)              107.3786                                         !
 ! A15   A(4,7,11)             112.6311                                         !
 ! A16   A(8,7,9)              108.5187                                         !
 ! A17   A(8,7,11)             107.0975                                         !
 ! A18   A(9,7,11)             110.1599                                         !
 ! A19   A(7,11,12)            114.2015                                         !
 ! A20   A(7,11,15)            122.1279                                         !
 ! A21   A(12,11,15)           123.6681                                         !
 ! A22   A(11,12,13)           116.9844                                         !
 ! A23   A(11,12,14)           116.9115                                         !
 ! A24   A(13,12,14)           118.3339                                         !
 ! A25   A(6,16,17)            117.4707                                         !
 ! A26   A(6,16,18)            120.5848                                         !
 ! A27   A(17,16,18)           114.5                                            !
 ! A28   A(16,18,19)           105.0815                                         !
 ! A29   A(16,18,20)           105.4655                                         !
 ! A30   A(16,18,21)           112.7872                                         !
 ! A31   A(19,18,20)           110.1868                                         !
 ! A32   A(19,18,21)           108.4938                                         !
 ! A33   A(20,18,21)           114.414                                          !
 ! A34   A(18,20,23)           120.7515                                         !
 ! A35   A(18,20,35)           117.0466                                         !
 ! A36   A(23,20,35)           122.158                                          !
 ! A37   A(18,21,22)           104.3373                                         !
 ! A38   A(18,21,24)           112.0482                                         !
 ! A39   A(18,21,27)           113.7791                                         !
 ! A40   A(22,21,24)           107.8604                                         !
 ! A41   A(22,21,27)           107.7127                                         !
 ! A42   A(24,21,27)           110.6506                                         !
 ! A43   A(21,24,25)           109.5914                                         !
 ! A44   A(21,24,26)           107.1402                                         !
 ! A45   A(21,24,31)           115.4437                                         !
 ! A46   A(25,24,26)           105.7381                                         !
 ! A47   A(25,24,31)           110.0571                                         !
 ! A48   A(26,24,31)           108.3797                                         !
 ! A49   A(21,27,28)           111.4001                                         !
 ! A50   A(21,27,29)           109.6531                                         !
 ! A51   A(21,27,30)           111.8843                                         !
 ! A52   A(28,27,29)           108.6881                                         !
 ! A53   A(28,27,30)           107.9536                                         !
 ! A54   A(29,27,30)           107.1146                                         !
 ! A55   A(24,31,32)           110.5959                                         !
 ! A56   A(24,31,33)           112.6406                                         !
 ! A57   A(24,31,34)           111.3708                                         !
 ! A58   A(32,31,33)           106.8544                                         !
 ! A59   A(32,31,34)           107.6267                                         !
 ! A60   A(33,31,34)           107.5034                                         !
 ! A61   A(20,35,36)           117.9436                                         !
 ! A62   A(20,35,37)           121.9039                                         !
 ! A63   A(36,35,37)           116.2271                                         !
 ! A64   A(35,37,38)           106.2453                                         !
 ! A65   A(35,37,39)           110.9633                                         !
 ! A66   A(35,37,40)           109.8836                                         !
 ! A67   A(38,37,39)           108.0324                                         !
 ! A68   A(38,37,40)           109.3608                                         !
 ! A69   A(39,37,40)           112.1534                                         !
 ! A70   A(37,39,44)           122.0138                                         !
 ! A71   A(37,39,45)           115.1214                                         !
 ! A72   A(44,39,45)           122.8333                                         !
 ! A73   A(37,40,41)           110.1278                                         !
 ! A74   A(37,40,42)           108.7065                                         !
 ! A75   A(37,40,43)           111.4399                                         !
 ! A76   A(41,40,42)           108.6307                                         !
 ! A77   A(41,40,43)           107.3452                                         !
 ! A78   A(42,40,43)           110.5501                                         !
 ! A79   A(39,45,46)           116.6366                                         !
 ! A80   A(39,45,47)           122.049                                          !
 ! A81   A(46,45,47)           118.525                                          !
 ! A82   A(45,47,48)           107.9737                                         !
 ! A83   A(45,47,49)           109.2906                                         !
 ! A84   A(45,47,50)           110.6209                                         !
 ! A85   A(48,47,49)           107.8289                                         !
 ! A86   A(48,47,50)           108.8181                                         !
 ! A87   A(49,47,50)           112.1785                                         !
 ! A88   A(47,49,52)           123.7526                                         !
 ! A89   A(47,49,59)           113.9991                                         !
 ! A90   A(52,49,59)           122.2462                                         !
 ! A91   A(47,50,51)           108.2768                                         !
 ! A92   A(47,50,53)           112.4999                                         !
 ! A93   A(47,50,57)           104.8521                                         !
 ! A94   A(51,50,53)           109.605                                          !
 ! A95   A(51,50,57)           110.496                                          !
 ! A96   A(53,50,57)           111.0018                                         !
 ! A97   A(50,53,54)           111.5089                                         !
 ! A98   A(50,53,55)           109.7751                                         !
 ! A99   A(50,53,56)           110.485                                          !
 ! A100  A(54,53,55)           107.5139                                         !
 ! A101  A(54,53,56)           109.5995                                         !
 ! A102  A(55,53,56)           107.8438                                         !
 ! A103  A(50,57,58)           108.2316                                         !
 ! A104  A(49,59,60)           115.3498                                         !
 ! A105  A(49,59,61)           119.981                                          !
 ! A106  A(60,59,61)           119.3853                                         !
 ! A107  A(59,61,62)           108.8634                                         !
 ! A108  A(59,61,63)           109.9553                                         !
 ! A109  A(59,61,64)           112.006                                          !
 ! A110  A(62,61,63)           105.9906                                         !
 ! A111  A(62,61,64)           107.3279                                         !
 ! A112  A(63,61,64)           112.4261                                         !
 ! A113  A(61,63,67)           116.9755                                         !
 ! A114  A(61,63,70)           115.899                                          !
 ! A115  A(67,63,70)           127.1219                                         !
 ! A116  A(61,64,65)           110.6138                                         !
 ! A117  A(61,64,66)           107.9307                                         !
 ! A118  A(61,64,68)           105.3315                                         !
 ! A119  A(65,64,66)           108.4898                                         !
 ! A120  A(65,64,68)           112.1981                                         !
 ! A121  A(66,64,68)           112.1809                                         !
 ! A122  A(64,68,69)           109.0039                                         !
 ! A123  A(64,68,100)           80.0406                                         !
 ! A124  A(69,68,100)          114.1881                                         !
 ! A125  A(63,70,71)           111.6383                                         !
 ! A126  A(63,70,72)           128.6946                                         !
 ! A127  A(71,70,72)           116.9726                                         !
 ! A128  A(70,72,73)           110.2364                                         !
 ! A129  A(70,72,74)           106.7532                                         !
 ! A130  A(70,72,75)           116.3529                                         !
 ! A131  A(73,72,74)           107.6091                                         !
 ! A132  A(73,72,75)           106.0854                                         !
 ! A133  A(74,72,75)           109.5292                                         !
 ! A134  A(72,75,76)           119.5436                                         !
 ! A135  A(72,75,77)           117.325                                          !
 ! A136  A(76,75,77)           123.0609                                         !
 ! A137  A(75,77,78)           121.1127                                         !
 ! A138  A(75,77,79)           118.8914                                         !
 ! A139  A(78,77,79)           119.0327                                         !
 ! A140  A(77,79,80)           109.3422                                         !
 ! A141  A(77,79,81)           108.0605                                         !
 ! A142  A(77,79,82)           111.803                                          !
 ! A143  A(80,79,81)           106.815                                          !
 ! A144  A(80,79,82)           109.2927                                         !
 ! A145  A(81,79,82)           111.3841                                         !
 ! A146  A(79,81,85)           125.2027                                         !
 ! A147  A(79,81,98)           112.3534                                         !
 ! A148  A(85,81,98)           122.4266                                         !
 ! A149  A(79,82,83)           107.4049                                         !
 ! A150  A(79,82,84)           107.127                                          !
 ! A151  A(79,82,86)           115.2653                                         !
 ! A152  A(83,82,84)           106.4296                                         !
 ! A153  A(83,82,86)           109.7657                                         !
 ! A154  A(84,82,86)           110.4337                                         !
 ! A155  A(82,86,87)           111.1669                                         !
 ! A156  A(82,86,88)           109.4973                                         !
 ! A157  A(82,86,89)           112.849                                          !
 ! A158  A(87,86,88)           105.4992                                         !
 ! A159  A(87,86,89)           108.5361                                         !
 ! A160  A(88,86,89)           109.0103                                         !
 ! A161  A(86,89,90)           109.6806                                         !
 ! A162  A(86,89,91)           109.6622                                         !
 ! A163  A(86,89,92)           112.4772                                         !
 ! A164  A(90,89,91)           106.3989                                         !
 ! A165  A(90,89,92)           109.0775                                         !
 ! A166  A(91,89,92)           109.3582                                         !
 ! A167  A(89,92,93)           108.7738                                         !
 ! A168  A(89,92,94)           109.0231                                         !
 ! A169  A(89,92,95)           116.8295                                         !
 ! A170  A(93,92,94)           106.5537                                         !
 ! A171  A(93,92,95)           107.6388                                         !
 ! A172  A(94,92,95)           107.5576                                         !
 ! A173  A(92,95,96)           110.4984                                         !
 ! A174  A(92,95,97)           110.4992                                         !
 ! A175  A(96,95,97)           106.4703                                         !
 ! A176  A(81,98,99)           108.7202                                         !
 ! D1    D(2,1,4,5)            126.1562                                         !
 ! D2    D(2,1,4,6)              5.4364                                         !
 ! D3    D(2,1,4,7)           -115.2624                                         !
 ! D4    D(3,1,4,5)              9.4277                                         !
 ! D5    D(3,1,4,6)           -111.2921                                         !
 ! D6    D(3,1,4,7)            128.009                                          !
 ! D7    D(1,4,6,10)           -15.004                                          !
 ! D8    D(1,4,6,16)           167.1205                                         !
 ! D9    D(5,4,6,10)          -136.5863                                         !
 ! D10   D(5,4,6,16)            45.5382                                         !
 ! D11   D(7,4,6,10)           106.9027                                         !
 ! D12   D(7,4,6,16)           -70.9728                                         !
 ! D13   D(1,4,7,8)           -176.3655                                         !
 ! D14   D(1,4,7,9)            -57.8977                                         !
 ! D15   D(1,4,7,11)            63.5505                                         !
 ! D16   D(5,4,7,8)            -55.6915                                         !
 ! D17   D(5,4,7,9)             62.7762                                         !
 ! D18   D(5,4,7,11)          -175.7755                                         !
 ! D19   D(6,4,7,8)             62.1231                                         !
 ! D20   D(6,4,7,9)           -179.4092                                         !
 ! D21   D(6,4,7,11)           -57.9609                                         !
 ! D22   D(4,6,16,17)            8.993                                          !
 ! D23   D(4,6,16,18)          157.2285                                         !
 ! D24   D(10,6,16,17)        -168.8275                                         !
 ! D25   D(10,6,16,18)         -20.5921                                         !
 ! D26   D(4,7,11,12)          -71.3128                                         !
 ! D27   D(4,7,11,15)          109.253                                          !
 ! D28   D(8,7,11,12)          166.3745                                         !
 ! D29   D(8,7,11,15)          -13.0597                                         !
 ! D30   D(9,7,11,12)           48.5403                                         !
 ! D31   D(9,7,11,15)         -130.8939                                         !
 ! D32   D(7,11,12,13)         169.1674                                         !
 ! D33   D(7,11,12,14)          20.3275                                         !
 ! D34   D(15,11,12,13)        -11.4083                                         !
 ! D35   D(15,11,12,14)       -160.2482                                         !
 ! D36   D(6,16,18,19)          15.7352                                         !
 ! D37   D(6,16,18,20)        -100.7122                                         !
 ! D38   D(6,16,18,21)         133.7393                                         !
 ! D39   D(17,16,18,19)        164.852                                          !
 ! D40   D(17,16,18,20)         48.4046                                         !
 ! D41   D(17,16,18,21)        -77.1439                                         !
 ! D42   D(16,18,20,23)        -56.6381                                         !
 ! D43   D(16,18,20,35)        121.0032                                         !
 ! D44   D(19,18,20,23)       -169.5529                                         !
 ! D45   D(19,18,20,35)          8.0884                                         !
 ! D46   D(21,18,20,23)         67.8969                                         !
 ! D47   D(21,18,20,35)       -114.4618                                         !
 ! D48   D(16,18,21,22)        -60.0045                                         !
 ! D49   D(16,18,21,24)       -176.431                                          !
 ! D50   D(16,18,21,27)         57.1102                                         !
 ! D51   D(19,18,21,22)         55.9783                                         !
 ! D52   D(19,18,21,24)        -60.4482                                         !
 ! D53   D(19,18,21,27)        173.093                                          !
 ! D54   D(20,18,21,22)        179.4433                                         !
 ! D55   D(20,18,21,24)         63.0168                                         !
 ! D56   D(20,18,21,27)        -63.442                                          !
 ! D57   D(18,20,35,36)         -5.3702                                         !
 ! D58   D(18,20,35,37)       -162.223                                          !
 ! D59   D(23,20,35,36)        172.2354                                         !
 ! D60   D(23,20,35,37)         15.3827                                         !
 ! D61   D(18,21,24,25)        -64.8731                                         !
 ! D62   D(18,21,24,26)       -179.1443                                         !
 ! D63   D(18,21,24,31)         60.0492                                         !
 ! D64   D(22,21,24,25)       -179.1533                                         !
 ! D65   D(22,21,24,26)         66.5755                                         !
 ! D66   D(22,21,24,31)        -54.231                                          !
 ! D67   D(27,21,24,25)         63.2633                                         !
 ! D68   D(27,21,24,26)        -51.0079                                         !
 ! D69   D(27,21,24,31)       -171.8144                                         !
 ! D70   D(18,21,27,28)         65.3628                                         !
 ! D71   D(18,21,27,29)       -174.2801                                         !
 ! D72   D(18,21,27,30)        -55.5812                                         !
 ! D73   D(22,21,27,28)       -179.4996                                         !
 ! D74   D(22,21,27,29)        -59.1424                                         !
 ! D75   D(22,21,27,30)         59.5565                                         !
 ! D76   D(24,21,27,28)        -61.8256                                         !
 ! D77   D(24,21,27,29)         58.5316                                         !
 ! D78   D(24,21,27,30)        177.2304                                         !
 ! D79   D(21,24,31,32)        172.7588                                         !
 ! D80   D(21,24,31,33)        -67.7467                                         !
 ! D81   D(21,24,31,34)         53.127                                          !
 ! D82   D(25,24,31,32)        -62.5605                                         !
 ! D83   D(25,24,31,33)         56.934                                          !
 ! D84   D(25,24,31,34)        177.8077                                         !
 ! D85   D(26,24,31,32)         52.6271                                         !
 ! D86   D(26,24,31,33)        172.1216                                         !
 ! D87   D(26,24,31,34)        -67.0047                                         !
 ! D88   D(20,35,37,38)         30.7009                                         !
 ! D89   D(20,35,37,39)        -86.4876                                         !
 ! D90   D(20,35,37,40)        148.9026                                         !
 ! D91   D(36,35,37,38)       -126.5238                                         !
 ! D92   D(36,35,37,39)        116.2877                                         !
 ! D93   D(36,35,37,40)         -8.322                                          !
 ! D94   D(35,37,39,44)       -118.8825                                         !
 ! D95   D(35,37,39,45)         63.1069                                         !
 ! D96   D(38,37,39,44)        125.0277                                         !
 ! D97   D(38,37,39,45)        -52.983                                          !
 ! D98   D(40,37,39,44)          4.4323                                         !
 ! D99   D(40,37,39,45)       -173.5784                                         !
 ! D100  D(35,37,40,41)        178.197                                          !
 ! D101  D(35,37,40,42)        -62.9003                                         !
 ! D102  D(35,37,40,43)         59.1813                                         !
 ! D103  D(38,37,40,41)        -65.5457                                         !
 ! D104  D(38,37,40,42)         53.3569                                         !
 ! D105  D(38,37,40,43)        175.4385                                         !
 ! D106  D(39,37,40,41)         54.2775                                         !
 ! D107  D(39,37,40,42)        173.1802                                         !
 ! D108  D(39,37,40,43)        -64.7382                                         !
 ! D109  D(37,39,45,46)         -7.5571                                         !
 ! D110  D(37,39,45,47)       -168.3456                                         !
 ! D111  D(44,39,45,46)        174.4503                                         !
 ! D112  D(44,39,45,47)         13.6619                                         !
 ! D113  D(39,45,47,48)         34.7987                                         !
 ! D114  D(39,45,47,49)        -82.2391                                         !
 ! D115  D(39,45,47,50)        153.772                                          !
 ! D116  D(46,45,47,48)       -125.6426                                         !
 ! D117  D(46,45,47,49)        117.3196                                         !
 ! D118  D(46,45,47,50)         -6.6694                                         !
 ! D119  D(45,47,49,52)       -109.109                                          !
 ! D120  D(45,47,49,59)         70.372                                          !
 ! D121  D(48,47,49,52)        133.7617                                         !
 ! D122  D(48,47,49,59)        -46.7573                                         !
 ! D123  D(50,47,49,52)         13.9586                                         !
 ! D124  D(50,47,49,59)       -166.5604                                         !
 ! D125  D(45,47,50,51)         66.6239                                         !
 ! D126  D(45,47,50,53)       -172.0924                                         !
 ! D127  D(45,47,50,57)        -51.3502                                         !
 ! D128  D(48,47,50,51)       -174.9155                                         !
 ! D129  D(48,47,50,53)        -53.6318                                         !
 ! D130  D(48,47,50,57)         67.1105                                         !
 ! D131  D(49,47,50,51)        -55.6911                                         !
 ! D132  D(49,47,50,53)         65.5926                                         !
 ! D133  D(49,47,50,57)       -173.6652                                         !
 ! D134  D(47,49,59,60)         -9.6011                                         !
 ! D135  D(47,49,59,61)       -163.7796                                         !
 ! D136  D(52,49,59,60)        169.8887                                         !
 ! D137  D(52,49,59,61)         15.7102                                         !
 ! D138  D(47,50,53,54)        -63.7571                                         !
 ! D139  D(47,50,53,55)        177.2028                                         !
 ! D140  D(47,50,53,56)         58.3916                                         !
 ! D141  D(51,50,53,54)         56.7651                                         !
 ! D142  D(51,50,53,55)        -62.2751                                         !
 ! D143  D(51,50,53,56)        178.9138                                         !
 ! D144  D(57,50,53,54)        179.1007                                         !
 ! D145  D(57,50,53,55)         60.0605                                         !
 ! D146  D(57,50,53,56)        -58.7506                                         !
 ! D147  D(47,50,57,58)        174.1153                                         !
 ! D148  D(51,50,57,58)         57.6598                                         !
 ! D149  D(53,50,57,58)        -64.1569                                         !
 ! D150  D(49,59,61,62)         32.3763                                         !
 ! D151  D(49,59,61,63)        -83.3303                                         !
 ! D152  D(49,59,61,64)        150.9024                                         !
 ! D153  D(60,59,61,62)       -120.7676                                         !
 ! D154  D(60,59,61,63)        123.5258                                         !
 ! D155  D(60,59,61,64)         -2.2415                                         !
 ! D156  D(59,61,63,67)       -105.5888                                         !
 ! D157  D(59,61,63,70)         73.7768                                         !
 ! D158  D(62,61,63,67)        136.904                                          !
 ! D159  D(62,61,63,70)        -43.7304                                         !
 ! D160  D(64,61,63,67)         19.9392                                         !
 ! D161  D(64,61,63,70)       -160.6952                                         !
 ! D162  D(59,61,64,65)         67.9064                                         !
 ! D163  D(59,61,64,66)        -50.6383                                         !
 ! D164  D(59,61,64,68)       -170.649                                          !
 ! D165  D(62,61,64,65)       -172.6615                                         !
 ! D166  D(62,61,64,66)         68.7939                                         !
 ! D167  D(62,61,64,68)        -51.2168                                         !
 ! D168  D(63,61,64,65)        -56.4971                                         !
 ! D169  D(63,61,64,66)       -175.0417                                         !
 ! D170  D(63,61,64,68)         64.9476                                         !
 ! D171  D(61,63,70,71)         -8.3644                                         !
 ! D172  D(61,63,70,72)       -168.9158                                         !
 ! D173  D(67,63,70,71)        170.9266                                         !
 ! D174  D(67,63,70,72)         10.3751                                         !
 ! D175  D(61,64,68,69)       -172.3462                                         !
 ! D176  D(61,64,68,100)       -60.0431                                         !
 ! D177  D(65,64,68,69)        -51.9383                                         !
 ! D178  D(65,64,68,100)        60.3649                                         !
 ! D179  D(66,64,68,69)         70.4912                                         !
 ! D180  D(66,64,68,100)      -177.2056                                         !
 ! D181  D(63,70,72,73)         64.5309                                         !
 ! D182  D(63,70,72,74)       -178.8736                                         !
 ! D183  D(63,70,72,75)        -56.2774                                         !
 ! D184  D(71,70,72,73)        -95.1486                                         !
 ! D185  D(71,70,72,74)         21.4469                                         !
 ! D186  D(71,70,72,75)        144.0431                                         !
 ! D187  D(70,72,75,76)        154.7616                                         !
 ! D188  D(70,72,75,77)        -22.2801                                         !
 ! D189  D(73,72,75,76)         31.7653                                         !
 ! D190  D(73,72,75,77)       -145.2764                                         !
 ! D191  D(74,72,75,76)        -84.1056                                         !
 ! D192  D(74,72,75,77)         98.8527                                         !
 ! D193  D(72,75,77,78)         -6.0746                                         !
 ! D194  D(72,75,77,79)        162.5873                                         !
 ! D195  D(76,75,77,78)        176.9963                                         !
 ! D196  D(76,75,77,79)        -14.3418                                         !
 ! D197  D(75,77,79,80)         57.3945                                         !
 ! D198  D(75,77,79,81)        -58.5143                                         !
 ! D199  D(75,77,79,82)        178.5629                                         !
 ! D200  D(78,77,79,80)       -133.7048                                         !
 ! D201  D(78,77,79,81)        110.3865                                         !
 ! D202  D(78,77,79,82)        -12.5363                                         !
 ! D203  D(77,79,81,85)        -17.5149                                         !
 ! D204  D(77,79,81,98)        163.9681                                         !
 ! D205  D(80,79,81,85)       -135.0621                                         !
 ! D206  D(80,79,81,98)         46.4209                                         !
 ! D207  D(82,79,81,85)        105.6626                                         !
 ! D208  D(82,79,81,98)        -72.8544                                         !
 ! D209  D(77,79,82,83)       -172.7522                                         !
 ! D210  D(77,79,82,84)        -58.7507                                         !
 ! D211  D(77,79,82,86)         64.5754                                         !
 ! D212  D(80,79,82,83)        -51.555                                          !
 ! D213  D(80,79,82,84)         62.4465                                         !
 ! D214  D(80,79,82,86)       -174.2275                                         !
 ! D215  D(81,79,82,83)         66.2346                                         !
 ! D216  D(81,79,82,84)       -179.7639                                         !
 ! D217  D(81,79,82,86)        -56.4379                                         !
 ! D218  D(79,81,98,99)        179.6435                                         !
 ! D219  D(85,81,98,99)          1.0791                                         !
 ! D220  D(79,82,86,87)        -54.7835                                         !
 ! D221  D(79,82,86,88)         61.3898                                         !
 ! D222  D(79,82,86,89)       -176.9979                                         !
 ! D223  D(83,82,86,87)       -176.1873                                         !
 ! D224  D(83,82,86,88)        -60.014                                          !
 ! D225  D(83,82,86,89)         61.5984                                         !
 ! D226  D(84,82,86,87)         66.7732                                         !
 ! D227  D(84,82,86,88)       -177.0535                                         !
 ! D228  D(84,82,86,89)        -55.4412                                         !
 ! D229  D(82,86,89,90)         56.3933                                         !
 ! D230  D(82,86,89,91)        -60.1069                                         !
 ! D231  D(82,86,89,92)        177.9706                                         !
 ! D232  D(87,86,89,90)        -67.2868                                         !
 ! D233  D(87,86,89,91)        176.213                                          !
 ! D234  D(87,86,89,92)         54.2905                                         !
 ! D235  D(88,86,89,90)        178.2805                                         !
 ! D236  D(88,86,89,91)         61.7803                                         !
 ! D237  D(88,86,89,92)        -60.1422                                         !
 ! D238  D(86,89,92,93)        -58.8291                                         !
 ! D239  D(86,89,92,94)         56.9883                                         !
 ! D240  D(86,89,92,95)        179.1266                                         !
 ! D241  D(90,89,92,93)         63.0909                                         !
 ! D242  D(90,89,92,94)        178.9084                                         !
 ! D243  D(90,89,92,95)        -58.9533                                         !
 ! D244  D(91,89,92,93)        179.0761                                         !
 ! D245  D(91,89,92,94)        -65.1065                                         !
 ! D246  D(91,89,92,95)         57.0319                                         !
 ! D247  D(89,92,95,96)         58.1003                                         !
 ! D248  D(89,92,95,97)        -59.4752                                         !
 ! D249  D(93,92,95,96)        -64.5336                                         !
 ! D250  D(93,92,95,97)        177.8909                                         !
 ! D251  D(94,92,95,96)       -179.0015                                         !
 ! D252  D(94,92,95,97)         63.423                                          !
 --------------------------------------------------------------------------------
 Symmetry turned off by external request.
 Stoichiometry    C28H52N9O11(1+)
 Framework group  C1[X(C28H52N9O11)]
 Deg. of freedom   294
 Full point group                 C1      NOp   1
                          Input orientation:                          
 ---------------------------------------------------------------------
 Center     Atomic      Atomic             Coordinates (Angstroms)
 Number     Number       Type             X           Y           Z
 ---------------------------------------------------------------------
      1          7           0       -7.625089   -0.629327    3.956288
      2          1           0       -7.811230    0.363617    3.801028
      3          1           0       -8.051717   -0.881468    4.843716
      4          6           0       -6.168606   -0.793932    4.015469
      5          1           0       -5.876439   -1.307967    4.939757
      6          6           0       -5.473098    0.581119    3.961471
      7          6           0       -5.657728   -1.665418    2.826255
      8          1           0       -4.581642   -1.842564    2.904135
      9          1           0       -6.173829   -2.629528    2.881944
     10          8           0       -6.085995    1.584013    3.610717
     11          6           0       -5.908395   -1.011287    1.467284
     12          7           0       -7.214928   -0.990943    1.090916
     13          1           0       -7.452412   -0.424195    0.286643
     14          1           0       -7.908652   -1.098053    1.828394
     15          8           0       -4.993514   -0.557093    0.780848
     16          7           0       -4.143087    0.588574    4.281734
     17          1           0       -3.683658   -0.307863    4.391232
     18          6           0       -3.268744    1.665986    3.810549
     19          1           0       -3.944814    2.459305    3.486849
     20          6           0       -2.516694    1.084961    2.603425
     21          6           0       -2.351270    2.227014    4.927907
     22          1           0       -3.049026    2.602303    5.690304
     23          8           0       -1.844466    0.049978    2.714052
     24          6           0       -1.501249    3.418837    4.436115
     25          1           0       -0.802353    3.077527    3.660154
     26          1           0       -0.876011    3.740250    5.279567
     27          6           0       -1.461648    1.163999    5.591122
     28          1           0       -0.734572    0.754298    4.883944
     29          1           0       -0.919849    1.609864    6.433070
     30          1           0       -2.049977    0.330976    5.991188
     31          6           0       -2.295014    4.631258    3.932808
     32          1           0       -1.624240    5.472008    3.725877
     33          1           0       -2.839760    4.423209    3.004312
     34          1           0       -3.027485    4.966219    4.676944
     35          7           0       -2.664907    1.725099    1.419196
     36          1           0       -3.321599    2.493591    1.374550
     37          6           0       -2.330281    1.080146    0.138999
     38          1           0       -2.518544    0.008950    0.276803
     39          6           0       -0.836888    1.262857   -0.196861
     40          6           0       -3.237043    1.614882   -0.963564
     41          1           0       -2.970891    1.162360   -1.921738
     42          1           0       -4.270039    1.349424   -0.727180
     43          1           0       -3.134744    2.699584   -1.075115
     44          8           0       -0.460123    1.862101   -1.217185
     45          7           0        0.023506    0.687719    0.676826
     46          1           0       -0.384135    0.293995    1.532236
     47          6           0        1.459437    0.970159    0.652676
     48          1           0        1.593265    2.021660    0.364563
     49          6           0        2.132212    0.096448   -0.424277
     50          6           0        2.077186    0.754682    2.044129
     51          1           0        2.020571   -0.316823    2.284383
     52          8           0        2.880854   -0.857992   -0.168149
     53          6           0        3.531597    1.220673    2.117158
     54          1           0        4.173353    0.636866    1.452236
     55          1           0        3.911015    1.093236    3.137452
     56          1           0        3.607073    2.283286    1.861184
     57          8           0        1.252993    1.509895    2.931198
     58          1           0        1.543560    1.333614    3.839237
     59          7           0        1.824835    0.455732   -1.699468
     60          1           0        1.069181    1.156456   -1.792379
     61          6           0        2.084602   -0.464251   -2.796995
     62          1           0        1.958673   -1.492959   -2.435167
     63          6           0        3.548858   -0.348806   -3.241783
     64          6           0        1.107068   -0.265971   -3.953432
     65          1           0        1.277264    0.701966   -4.441513
     66          1           0        0.089098   -0.273854   -3.540873
     67          8           0        3.775593    0.264168   -4.350280
     68          8           0        1.338005   -1.357397   -4.831482
     69          1           0        0.829803   -1.220625   -5.645519
     70          7           0        4.440326   -0.882293   -2.431294
     71          1           0        4.011005   -1.182920   -1.534000
     72          6           0        5.903959   -0.746885   -2.457846
     73          1           0        6.191577    0.291461   -2.266279
     74          1           0        6.291580   -1.354441   -1.635878
     75          6           0        6.600536   -1.146535   -3.763045
     76          8           0        7.680985   -0.657282   -4.041570
     77          7           0        5.933701   -2.001402   -4.593117
     78          1           0        5.060156   -2.425363   -4.313598
     79          6           0        6.357602   -2.107917   -5.978636
     80          1           0        7.412060   -2.398023   -6.013735
     81          6           0        6.259229   -0.717689   -6.613463
     82          6           0        5.516774   -3.144051   -6.758086
     83          1           0        5.975519   -3.262087   -7.745555
     84          1           0        5.633302   -4.106872   -6.244618
     85          8           0        5.616226    0.222903   -6.159599
     86          6           0        4.028260   -2.796354   -6.914827
     87          1           0        3.560026   -2.606172   -5.938369
     88          1           0        3.928126   -1.856669   -7.476670
     89          6           0        3.231709   -3.895312   -7.632305
     90          1           0        3.349435   -4.848266   -7.095948
     91          1           0        3.643479   -4.053045   -8.639405
     92          6           0        1.731666   -3.560311   -7.740545
     93          1           0        1.326403   -3.420986   -6.728413
     94          1           0        1.615929   -2.598048   -8.259500
     95          7           0        0.887319   -4.533644   -8.424699
     96          1           0        0.948259   -5.442230   -7.967998
     97          1           0        1.204806   -4.670194   -9.382964
     98          8           0        6.932383   -0.634791   -7.752652
     99          1           0        6.829352    0.268336   -8.113055
    100          1           0        4.659053    0.190195   -4.857084
 ---------------------------------------------------------------------
 Rotational constants (GHZ):           0.1058631           0.0224819           0.0197179
 Standard basis: 6-31G(d) (6D, 7F)
   824 basis functions,  1552 primitive gaussians,   824 cartesian basis functions
   185 alpha electrons      185 beta electrons
       nuclear repulsion energy      6591.8141999067 Hartrees.
 NAtoms=  100 NActive=  100 NUniq=  100 SFac= 1.00D+00 NAtFMM=   60 NAOKFM=T Big=T
 Integral buffers will be    131072 words long.
 Raffenetti 2 integral format.
 Two-electron integral symmetry is turned off.
 One-electron integrals computed using PRISM.
 NBasis=   824 RedAO= T EigKep=  1.71D-03  NBF=   824
 NBsUse=   824 1.00D-06 EigRej= -1.00D+00 NBFU=   824
 Initial guess from the checkpoint file:  "conf-807.chk"
 B after Tr=     0.000000    0.000000    0.000000
         Rot=    1.000000    0.000000    0.000000    0.000000 Ang=   0.00 deg.
 Requested convergence on RMS density matrix=1.00D-08 within 128 cycles.
 Requested convergence on MAX density matrix=1.00D-06.
 Requested convergence on             energy=1.00D-06.
 No special actions if energy rises.
 SCF Done:  E(RB3LYP) =  -2418.42330449     A.U. after    2 cycles
            NFock=  2  Conv=0.75D-08     -V/T= 2.0093

 **********************************************************************

            Population analysis using the SCF Density.

 **********************************************************************

 Alpha  occ. eigenvalues --  -19.34462 -19.32586 -19.28165 -19.26417 -19.24704
 Alpha  occ. eigenvalues --  -19.23780 -19.23429 -19.21386 -19.19886 -19.18856
 Alpha  occ. eigenvalues --  -19.17005 -14.53391 -14.48752 -14.47479 -14.44435
 Alpha  occ. eigenvalues --  -14.44336 -14.42937 -14.40077 -14.38380 -14.38315
 Alpha  occ. eigenvalues --  -10.47434 -10.45496 -10.41623 -10.40855 -10.37614
 Alpha  occ. eigenvalues --  -10.37234 -10.37198 -10.36587 -10.36025 -10.35553
 Alpha  occ. eigenvalues --  -10.35533 -10.34344 -10.33326 -10.33304 -10.30905
 Alpha  occ. eigenvalues --  -10.30491 -10.29997 -10.29945 -10.28817 -10.28749
 Alpha  occ. eigenvalues --  -10.26972 -10.26258 -10.25786 -10.25607 -10.24599
 Alpha  occ. eigenvalues --  -10.24185 -10.23484 -10.23417  -1.24861  -1.24019
 Alpha  occ. eigenvalues --   -1.16389  -1.16185  -1.14878  -1.13681  -1.12805
 Alpha  occ. eigenvalues --   -1.11599  -1.10912  -1.10534  -1.10462  -1.08306
 Alpha  occ. eigenvalues --   -1.05289  -1.04540  -1.01216  -1.00205  -0.99415
 Alpha  occ. eigenvalues --   -0.96192  -0.95417  -0.94537  -0.92506  -0.90838
 Alpha  occ. eigenvalues --   -0.88030  -0.87480  -0.86641  -0.85499  -0.84217
 Alpha  occ. eigenvalues --   -0.82518  -0.80470  -0.79782  -0.79460  -0.79349
 Alpha  occ. eigenvalues --   -0.77227  -0.75903  -0.75222  -0.73267  -0.72717
 Alpha  occ. eigenvalues --   -0.72058  -0.71447  -0.71129  -0.70892  -0.69074
 Alpha  occ. eigenvalues --   -0.68151  -0.67950  -0.67350  -0.66606  -0.65536
 Alpha  occ. eigenvalues --   -0.65228  -0.64939  -0.63775  -0.63442  -0.63205
 Alpha  occ. eigenvalues --   -0.63041  -0.62842  -0.61909  -0.60848  -0.60592
 Alpha  occ. eigenvalues --   -0.60179  -0.59841  -0.58999  -0.58861  -0.58465
 Alpha  occ. eigenvalues --   -0.58198  -0.57792  -0.57451  -0.57068  -0.56626
 Alpha  occ. eigenvalues --   -0.56159  -0.55459  -0.54652  -0.54360  -0.53997
 Alpha  occ. eigenvalues --   -0.53719  -0.53298  -0.53217  -0.52867  -0.52532
 Alpha  occ. eigenvalues --   -0.52413  -0.52258  -0.51840  -0.51702  -0.51459
 Alpha  occ. eigenvalues --   -0.51160  -0.50646  -0.50548  -0.50074  -0.49716
 Alpha  occ. eigenvalues --   -0.49165  -0.49140  -0.48965  -0.48537  -0.48188
 Alpha  occ. eigenvalues --   -0.47725  -0.47150  -0.47014  -0.46844  -0.46712
 Alpha  occ. eigenvalues --   -0.46314  -0.45888  -0.45804  -0.45574  -0.45423
 Alpha  occ. eigenvalues --   -0.45229  -0.44937  -0.44922  -0.44598  -0.44433
 Alpha  occ. eigenvalues --   -0.44283  -0.44041  -0.43329  -0.43162  -0.43072
 Alpha  occ. eigenvalues --   -0.42800  -0.41990  -0.41896  -0.41740  -0.41705
 Alpha  occ. eigenvalues --   -0.41476  -0.39305  -0.39202  -0.38954  -0.38828
 Alpha  occ. eigenvalues --   -0.38456  -0.38387  -0.38215  -0.37485  -0.36456
 Alpha  occ. eigenvalues --   -0.35846  -0.34572  -0.34188  -0.33276  -0.33082
 Alpha  occ. eigenvalues --   -0.32345  -0.31479  -0.31126  -0.30440  -0.30213
 Alpha virt. eigenvalues --   -0.16560  -0.12385  -0.10635  -0.10325  -0.07319
 Alpha virt. eigenvalues --   -0.06556  -0.05246  -0.04190  -0.03642  -0.03494
 Alpha virt. eigenvalues --   -0.03367  -0.01984  -0.01464  -0.00150  -0.00051
 Alpha virt. eigenvalues --    0.00553   0.00883   0.01046   0.01160   0.01960
 Alpha virt. eigenvalues --    0.02402   0.02765   0.02856   0.03410   0.04030
 Alpha virt. eigenvalues --    0.04179   0.04504   0.04816   0.04989   0.05280
 Alpha virt. eigenvalues --    0.05766   0.06330   0.06624   0.06859   0.06906
 Alpha virt. eigenvalues --    0.07297   0.07513   0.07689   0.07696   0.08012
 Alpha virt. eigenvalues --    0.08378   0.08419   0.08801   0.08948   0.09261
 Alpha virt. eigenvalues --    0.09304   0.09483   0.09728   0.09946   0.10125
 Alpha virt. eigenvalues --    0.10403   0.10662   0.10736   0.11201   0.11424
 Alpha virt. eigenvalues --    0.11519   0.11649   0.11835   0.11906   0.12143
 Alpha virt. eigenvalues --    0.12648   0.12734   0.12914   0.13201   0.13305
 Alpha virt. eigenvalues --    0.13790   0.14073   0.14230   0.14729   0.14873
 Alpha virt. eigenvalues --    0.14960   0.15135   0.15628   0.16199   0.16265
 Alpha virt. eigenvalues --    0.16595   0.16709   0.17070   0.17309   0.17529
 Alpha virt. eigenvalues --    0.18468   0.18821   0.18944   0.19081   0.19552
 Alpha virt. eigenvalues --    0.19761   0.20154   0.20525   0.20959   0.21113
 Alpha virt. eigenvalues --    0.21302   0.22436   0.23669   0.23790   0.24952
 Alpha virt. eigenvalues --    0.26253   0.26959   0.27645   0.28805   0.30471
 Alpha virt. eigenvalues --    0.30938   0.31549   0.31687   0.33010   0.33303
 Alpha virt. eigenvalues --    0.34984   0.35629   0.35904   0.37524   0.39218
 Alpha virt. eigenvalues --    0.39438   0.40206   0.41161   0.41535   0.42536
 Alpha virt. eigenvalues --    0.42685   0.42858   0.43214   0.43384   0.43515
 Alpha virt. eigenvalues --    0.43837   0.44055   0.44678   0.44774   0.45031
 Alpha virt. eigenvalues --    0.46028   0.46307   0.47092   0.47535   0.47989
 Alpha virt. eigenvalues --    0.48504   0.48674   0.48736   0.49328   0.49644
 Alpha virt. eigenvalues --    0.49934   0.50298   0.50402   0.51091   0.51544
 Alpha virt. eigenvalues --    0.51646   0.51974   0.52114   0.52300   0.53360
 Alpha virt. eigenvalues --    0.53392   0.53953   0.54149   0.54386   0.54636
 Alpha virt. eigenvalues --    0.54832   0.55476   0.55704   0.56004   0.56239
 Alpha virt. eigenvalues --    0.56520   0.56980   0.57061   0.57507   0.58162
 Alpha virt. eigenvalues --    0.58359   0.58500   0.59259   0.59957   0.60066
 Alpha virt. eigenvalues --    0.60385   0.60709   0.61134   0.61852   0.62076
 Alpha virt. eigenvalues --    0.62441   0.62970   0.63098   0.63391   0.64028
 Alpha virt. eigenvalues --    0.64471   0.64578   0.65444   0.65507   0.65790
 Alpha virt. eigenvalues --    0.66372   0.67019   0.67055   0.67315   0.67604
 Alpha virt. eigenvalues --    0.68239   0.68312   0.68894   0.69455   0.69844
 Alpha virt. eigenvalues --    0.70125   0.70250   0.70658   0.71365   0.71545
 Alpha virt. eigenvalues --    0.71663   0.72126   0.73129   0.73486   0.73637
 Alpha virt. eigenvalues --    0.74107   0.74263   0.74733   0.75415   0.75531
 Alpha virt. eigenvalues --    0.75903   0.76279   0.76785   0.77160   0.77263
 Alpha virt. eigenvalues --    0.77734   0.77883   0.78069   0.78087   0.78771
 Alpha virt. eigenvalues --    0.79283   0.79458   0.79636   0.80228   0.80390
 Alpha virt. eigenvalues --    0.80721   0.80794   0.80847   0.81253   0.81335
 Alpha virt. eigenvalues --    0.81418   0.81742   0.81964   0.82335   0.82662
 Alpha virt. eigenvalues --    0.83105   0.83250   0.83750   0.83955   0.84105
 Alpha virt. eigenvalues --    0.84506   0.84856   0.84965   0.85109   0.85283
 Alpha virt. eigenvalues --    0.85555   0.85816   0.86044   0.86215   0.86629
 Alpha virt. eigenvalues --    0.86685   0.87083   0.87298   0.87411   0.87599
 Alpha virt. eigenvalues --    0.87799   0.88684   0.88799   0.89235   0.89556
 Alpha virt. eigenvalues --    0.89701   0.89974   0.90016   0.91176   0.91289
 Alpha virt. eigenvalues --    0.91739   0.91925   0.92400   0.93131   0.93606
 Alpha virt. eigenvalues --    0.93712   0.94116   0.94939   0.95201   0.96075
 Alpha virt. eigenvalues --    0.96708   0.97543   0.97662   0.97928   0.98356
 Alpha virt. eigenvalues --    0.98848   0.99952   1.00463   1.00848   1.01167
 Alpha virt. eigenvalues --    1.01301   1.01808   1.02424   1.02986   1.03117
 Alpha virt. eigenvalues --    1.04360   1.04829   1.05092   1.05441   1.05949
 Alpha virt. eigenvalues --    1.07031   1.07535   1.08513   1.09152   1.09753
 Alpha virt. eigenvalues --    1.11118   1.11410   1.12626   1.12970   1.14292
 Alpha virt. eigenvalues --    1.14681   1.14865   1.15170   1.15986   1.17495
 Alpha virt. eigenvalues --    1.17993   1.18122   1.19324   1.20588   1.20744
 Alpha virt. eigenvalues --    1.20919   1.21559   1.22332   1.23071   1.24312
 Alpha virt. eigenvalues --    1.24427   1.24913   1.25644   1.26170   1.26697
 Alpha virt. eigenvalues --    1.28118   1.28266   1.28681   1.29111   1.29455
 Alpha virt. eigenvalues --    1.30828   1.31414   1.31538   1.31951   1.33566
 Alpha virt. eigenvalues --    1.33782   1.34298   1.35381   1.35626   1.36701
 Alpha virt. eigenvalues --    1.37882   1.38032   1.38271   1.39035   1.40187
 Alpha virt. eigenvalues --    1.40229   1.40793   1.41110   1.41604   1.42914
 Alpha virt. eigenvalues --    1.43013   1.44320   1.45430   1.45669   1.46511
 Alpha virt. eigenvalues --    1.47686   1.47781   1.48260   1.48976   1.49525
 Alpha virt. eigenvalues --    1.50807   1.50989   1.52715   1.53402   1.54290
 Alpha virt. eigenvalues --    1.54593   1.55487   1.55759   1.56265   1.57312
 Alpha virt. eigenvalues --    1.57888   1.58236   1.58615   1.58857   1.59849
 Alpha virt. eigenvalues --    1.60633   1.61513   1.61777   1.62123   1.62654
 Alpha virt. eigenvalues --    1.63017   1.64169   1.64465   1.65172   1.65413
 Alpha virt. eigenvalues --    1.65567   1.66076   1.66694   1.66902   1.67683
 Alpha virt. eigenvalues --    1.68039   1.68425   1.69102   1.70110   1.70183
 Alpha virt. eigenvalues --    1.70923   1.70988   1.71310   1.72460   1.72615
 Alpha virt. eigenvalues --    1.73146   1.73505   1.74036   1.74629   1.75327
 Alpha virt. eigenvalues --    1.75848   1.76175   1.76393   1.76507   1.76794
 Alpha virt. eigenvalues --    1.77386   1.77912   1.78341   1.78422   1.78875
 Alpha virt. eigenvalues --    1.79350   1.79766   1.80661   1.81328   1.81493
 Alpha virt. eigenvalues --    1.81837   1.82368   1.82739   1.82987   1.83579
 Alpha virt. eigenvalues --    1.84052   1.84343   1.84805   1.85649   1.86273
 Alpha virt. eigenvalues --    1.86884   1.87332   1.87473   1.87528   1.88523
 Alpha virt. eigenvalues --    1.88887   1.89637   1.90229   1.90806   1.91133
 Alpha virt. eigenvalues --    1.91721   1.92093   1.92395   1.92586   1.93435
 Alpha virt. eigenvalues --    1.93874   1.94382   1.94898   1.94962   1.95598
 Alpha virt. eigenvalues --    1.95922   1.96818   1.97123   1.97590   1.98085
 Alpha virt. eigenvalues --    1.98282   1.99061   1.99845   1.99975   2.00296
 Alpha virt. eigenvalues --    2.00597   2.01538   2.01888   2.02256   2.03209
 Alpha virt. eigenvalues --    2.03375   2.03723   2.04304   2.04904   2.05316
 Alpha virt. eigenvalues --    2.05594   2.05810   2.06136   2.06733   2.07895
 Alpha virt. eigenvalues --    2.08511   2.09225   2.09577   2.10700   2.11073
 Alpha virt. eigenvalues --    2.11177   2.11743   2.13645   2.14312   2.15738
 Alpha virt. eigenvalues --    2.15988   2.16271   2.16572   2.17520   2.18070
 Alpha virt. eigenvalues --    2.19795   2.20421   2.20817   2.21191   2.21399
 Alpha virt. eigenvalues --    2.21725   2.22777   2.23533   2.24041   2.24850
 Alpha virt. eigenvalues --    2.25005   2.25872   2.26369   2.27356   2.27918
 Alpha virt. eigenvalues --    2.28595   2.28840   2.28998   2.30082   2.30286
 Alpha virt. eigenvalues --    2.30640   2.30958   2.31566   2.32431   2.32500
 Alpha virt. eigenvalues --    2.33293   2.34097   2.35250   2.35708   2.36658
 Alpha virt. eigenvalues --    2.37259   2.37843   2.38362   2.39055   2.39737
 Alpha virt. eigenvalues --    2.41318   2.41363   2.42022   2.42713   2.42927
 Alpha virt. eigenvalues --    2.43387   2.43882   2.44690   2.46152   2.47444
 Alpha virt. eigenvalues --    2.47745   2.48017   2.49422   2.49894   2.50983
 Alpha virt. eigenvalues --    2.51467   2.52148   2.52780   2.52950   2.53999
 Alpha virt. eigenvalues --    2.54202   2.55008   2.55708   2.56749   2.57501
 Alpha virt. eigenvalues --    2.57566   2.58593   2.59452   2.59538   2.60365
 Alpha virt. eigenvalues --    2.61269   2.61673   2.62619   2.63729   2.67034
 Alpha virt. eigenvalues --    2.67812   2.69022   2.69391   2.70961   2.71406
 Alpha virt. eigenvalues --    2.71625   2.72564   2.73189   2.74450   2.74810
 Alpha virt. eigenvalues --    2.76300   2.78220   2.78286   2.78980   2.81851
 Alpha virt. eigenvalues --    2.83327   2.84647   2.85861   2.87086   2.87372
 Alpha virt. eigenvalues --    2.87692   2.89315   2.91516   2.94280   2.95674
 Alpha virt. eigenvalues --    2.96372   2.96841   2.97424   2.98903   3.01701
 Alpha virt. eigenvalues --    3.02297   3.04481   3.05843   3.06180   3.07905
 Alpha virt. eigenvalues --    3.10215   3.70054   3.71294   3.73910   3.74691
 Alpha virt. eigenvalues --    3.74738   3.81034   3.85012   3.90810   3.92617
 Alpha virt. eigenvalues --    3.94126   3.95956   3.99748   4.00919   4.01634
 Alpha virt. eigenvalues --    4.05763   4.06176   4.08496   4.10267   4.12626
 Alpha virt. eigenvalues --    4.13195   4.14897   4.15190   4.16968   4.17911
 Alpha virt. eigenvalues --    4.20858   4.21284   4.22900   4.23989   4.26895
 Alpha virt. eigenvalues --    4.28937   4.29479   4.32591   4.34930   4.37359
 Alpha virt. eigenvalues --    4.38806   4.39928   4.43057   4.43652   4.44832
 Alpha virt. eigenvalues --    4.48438   4.49039   4.51242   4.51846   4.53946
 Alpha virt. eigenvalues --    4.57320   4.58870   4.59889   4.67541
          Condensed to atoms (all electrons):
 Mulliken charges:
               1
     1  N   -0.749082
     2  H    0.340364
     3  H    0.319931
     4  C   -0.085498
     5  H    0.156974
     6  C    0.610305
     7  C   -0.348340
     8  H    0.165472
     9  H    0.178506
    10  O   -0.519049
    11  C    0.570574
    12  N   -0.723739
    13  H    0.333880
    14  H    0.367908
    15  O   -0.529529
    16  N   -0.597284
    17  H    0.345063
    18  C   -0.072743
    19  H    0.183223
    20  C    0.658700
    21  C   -0.071425
    22  H    0.145883
    23  O   -0.570170
    24  C   -0.281873
    25  H    0.159809
    26  H    0.141063
    27  C   -0.470090
    28  H    0.158565
    29  H    0.147548
    30  H    0.142815
    31  C   -0.452112
    32  H    0.155921
    33  H    0.128810
    34  H    0.157798
    35  N   -0.598335
    36  H    0.354037
    37  C   -0.053705
    38  H    0.214687
    39  C    0.630855
    40  C   -0.479869
    41  H    0.161242
    42  H    0.195301
    43  H    0.158888
    44  O   -0.563607
    45  N   -0.625347
    46  H    0.408967
    47  C   -0.055058
    48  H    0.190669
    49  C    0.642973
    50  C    0.122255
    51  H    0.153870
    52  O   -0.556001
    53  C   -0.475418
    54  H    0.157317
    55  H    0.159290
    56  H    0.164271
    57  O   -0.625309
    58  H    0.409646
    59  N   -0.634273
    60  H    0.409498
    61  C   -0.080614
    62  H    0.214361
    63  C    0.649143
    64  C   -0.049505
    65  H    0.172769
    66  H    0.175881
    67  O   -0.563657
    68  O   -0.626991
    69  H    0.423213
    70  N   -0.589660
    71  H    0.422657
    72  C   -0.252016
    73  H    0.237485
    74  H    0.232386
    75  C    0.590035
    76  O   -0.474742
    77  N   -0.619982
    78  H    0.349069
    79  C   -0.029038
    80  H    0.223390
    81  C    0.657560
    82  C   -0.307678
    83  H    0.187886
    84  H    0.173675
    85  O   -0.518806
    86  C   -0.298946
    87  H    0.139488
    88  H    0.147865
    89  C   -0.264710
    90  H    0.136622
    91  H    0.142546
    92  C   -0.151436
    93  H    0.143968
    94  H    0.138224
    95  N   -0.700225
    96  H    0.301268
    97  H    0.303060
    98  O   -0.534127
    99  H    0.441711
   100  H    0.492838
 Sum of Mulliken charges =   1.00000
 Mulliken charges with hydrogens summed into heavy atoms:
               1
     1  N   -0.088787
     4  C    0.071477
     6  C    0.610305
     7  C   -0.004363
    10  O   -0.519049
    11  C    0.570574
    12  N   -0.021951
    15  O   -0.529529
    16  N   -0.252221
    18  C    0.110480
    20  C    0.658700
    21  C    0.074458
    23  O   -0.570170
    24  C    0.019000
    27  C   -0.021162
    31  C   -0.009583
    35  N   -0.244297
    37  C    0.160982
    39  C    0.630855
    40  C    0.035563
    44  O   -0.563607
    45  N   -0.216380
    47  C    0.135611
    49  C    0.642973
    50  C    0.276126
    52  O   -0.556001
    53  C    0.005459
    57  O   -0.215662
    59  N   -0.224775
    61  C    0.133747
    63  C    0.649143
    64  C    0.299145
    67  O   -0.070819
    68  O   -0.203778
    70  N   -0.167003
    72  C    0.217855
    75  C    0.590035
    76  O   -0.474742
    77  N   -0.270912
    79  C    0.194352
    81  C    0.657560
    82  C    0.053884
    85  O   -0.518806
    86  C   -0.011592
    89  C    0.014459
    92  C    0.130757
    95  N   -0.095896
    98  O   -0.092416
 Electronic spatial extent (au):  <R**2>=          53109.6366
 Charge=              1.0000 electrons
 Dipole moment (field-independent basis, Debye):
    X=             10.7003    Y=             -4.2496    Z=            -10.6842  Tot=             15.7070
 Quadrupole moment (field-independent basis, Debye-Ang):
   XX=           -175.7016   YY=           -259.4402   ZZ=           -131.2165
   XY=            -19.3202   XZ=            -99.5875   YZ=             30.2457
 Traceless Quadrupole moment (field-independent basis, Debye-Ang):
   XX=             13.0845   YY=            -70.6541   ZZ=             57.5696
   XY=            -19.3202   XZ=            -99.5875   YZ=             30.2457
 Octapole moment (field-independent basis, Debye-Ang**2):
  XXX=           -386.3415  YYY=             -0.3058  ZZZ=              4.5672  XYY=            -11.4367
  XXY=           -117.3551  XXZ=             38.5646  XZZ=            370.2369  YZZ=           -180.7600
  YYZ=            112.7510  XYZ=            199.9841
 Hexadecapole moment (field-independent basis, Debye-Ang**3):
 XXXX=         -27356.7999 YYYY=          -5698.1341 ZZZZ=         -22589.5737 XXXY=           2181.6579
 XXXZ=           8216.9333 YYYX=           1923.3350 YYYZ=          -3920.4308 ZZZX=           5540.7697
 ZZZY=          -3207.1433 XXYY=          -5771.8729 XXZZ=          -6362.9214 YYZZ=          -4960.4104
 XXYZ=          -1460.2365 YYXZ=           2972.3052 ZZXY=             87.8992
 N-N= 6.591814199907D+03 E-N=-1.879256937382D+04  KE= 2.396190797221D+03
 Unable to Open any file for archive entry.
 1\1\GINC-AMR-113\SP\RB3LYP\6-31G(d)\C28H52N9O11(1+)\KENGMITH\27-May-20
 22\0\\# B3LYP/6-31G* guess=read geom=check nosymm integral(ultrafinegr
 id)\\Candidate Structure: Conf:807 Charge calc in gas phase\\1,1\N,0,-
 7.625088602,-0.6293265966,3.9562882051\H,0,-7.8112295415,0.3636168663,
 3.8010281228\H,0,-8.0517166857,-0.8814677583,4.8437164565\C,0,-6.16860
 58224,-0.7939319515,4.0154690361\H,0,-5.876438664,-1.3079667657,4.9397
 567042\C,0,-5.473097891,0.5811188824,3.9614711971\C,0,-5.6577279619,-1
 .6654181499,2.8262548717\H,0,-4.5816422331,-1.8425638037,2.9041346349\
 H,0,-6.1738294236,-2.6295283147,2.8819438365\O,0,-6.0859948467,1.58401
 25291,3.6107165213\C,0,-5.9083947138,-1.0112867983,1.4672843686\N,0,-7
 .2149282042,-0.990943283,1.0909163578\H,0,-7.4524118341,-0.42419537,0.
 2866430584\H,0,-7.9086520329,-1.0980530741,1.8283939107\O,0,-4.9935140
 76,-0.5570934478,0.7808480241\N,0,-4.143087408,0.5885741329,4.28173397
 86\H,0,-3.6836578787,-0.3078625022,4.3912315702\C,0,-3.2687444628,1.66
 59864049,3.8105490186\H,0,-3.9448135131,2.4593049798,3.4868485513\C,0,
 -2.5166936099,1.0849605812,2.6034251348\C,0,-2.35127044,2.227014472,4.
 9279074182\H,0,-3.0490264316,2.6023027768,5.6903041939\O,0,-1.84446636
 78,0.0499784937,2.7140524206\C,0,-1.5012485708,3.4188370519,4.43611531
 22\H,0,-0.8023526788,3.077526765,3.6601543616\H,0,-0.8760108819,3.7402
 500314,5.2795673728\C,0,-1.4616484513,1.1639991679,5.5911215259\H,0,-0
 .7345717294,0.7542978246,4.8839438943\H,0,-0.9198487465,1.6098642594,6
 .4330701033\H,0,-2.0499774846,0.3309761795,5.9911884724\C,0,-2.2950140
 19,4.6312577774,3.932808474\H,0,-1.6242397913,5.4720077608,3.725877081
 6\H,0,-2.8397599519,4.4232091457,3.0043124555\H,0,-3.0274851067,4.9662
 187883,4.6769442791\N,0,-2.6649071474,1.7250990841,1.4191956611\H,0,-3
 .321599136,2.493591307,1.3745496071\C,0,-2.3302807477,1.0801455821,0.1
 389990249\H,0,-2.5185443501,0.0089500848,0.2768026646\C,0,-0.836887630
 9,1.2628574704,-0.1968614404\C,0,-3.2370434615,1.614881815,-0.96356449
 14\H,0,-2.970891311,1.1623599019,-1.9217384189\H,0,-4.2700388713,1.349
 4235114,-0.7271797371\H,0,-3.1347441858,2.6995840111,-1.0751152391\O,0
 ,-0.4601231363,1.8621007891,-1.2171853202\N,0,0.023505971,0.6877188925
 ,0.6768260533\H,0,-0.3841349044,0.2939945454,1.5322364272\C,0,1.459436
 8828,0.9701587741,0.6526759362\H,0,1.593265132,2.0216601026,0.36456276
 15\C,0,2.1322115361,0.0964484307,-0.4242770706\C,0,2.0771859678,0.7546
 822749,2.044128982\H,0,2.0205707844,-0.3168228762,2.2843834892\O,0,2.8
 808537562,-0.85799224,-0.1681489955\C,0,3.5315967078,1.2206730489,2.11
 71577949\H,0,4.1733532707,0.6368658661,1.4522362252\H,0,3.9110152068,1
 .0932358495,3.1374518263\H,0,3.6070734466,2.283286387,1.8611835667\O,0
 ,1.2529928134,1.5098949271,2.9311976093\H,0,1.5435595459,1.3336135262,
 3.8392365901\N,0,1.8248349656,0.455732376,-1.6994680691\H,0,1.06918096
 21,1.1564557526,-1.7923791367\C,0,2.0846019151,-0.4642505169,-2.796994
 9767\H,0,1.9586729542,-1.492959289,-2.4351668752\C,0,3.5488577398,-0.3
 48806013,-3.2417826973\C,0,1.1070678238,-0.2659705081,-3.9534321953\H,
 0,1.2772638982,0.7019659255,-4.4415129079\H,0,0.0890980581,-0.27385352
 55,-3.5408731215\O,0,3.7755934057,0.2641676782,-4.3502800665\O,0,1.338
 0050699,-1.357397404,-4.8314819321\H,0,0.8298032653,-1.2206249863,-5.6
 455186127\N,0,4.4403255709,-0.8822927958,-2.4312944907\H,0,4.011004653
 2,-1.1829200788,-1.5340002173\C,0,5.9039593783,-0.7468846525,-2.457846
 1917\H,0,6.1915772983,0.2914612338,-2.2662785198\H,0,6.2915804202,-1.3
 544407057,-1.6358782618\C,0,6.6005363901,-1.1465352544,-3.7630446071\O
 ,0,7.6809848242,-0.6572821567,-4.0415703821\N,0,5.9337005148,-2.001402
 2309,-4.5931170368\H,0,5.0601556993,-2.4253628974,-4.3135981627\C,0,6.
 3576024497,-2.1079168019,-5.9786357661\H,0,7.4120598673,-2.3980230931,
 -6.0137347998\C,0,6.2592289541,-0.7176888675,-6.6134631127\C,0,5.51677
 38745,-3.1440513485,-6.7580857205\H,0,5.9755190898,-3.2620866193,-7.74
 55550846\H,0,5.6333018661,-4.1068721808,-6.2446182509\O,0,5.616226391,
 0.222902521,-6.1595990139\C,0,4.0282603487,-2.7963537526,-6.914826906\
 H,0,3.5600261507,-2.6061721724,-5.9383687025\H,0,3.9281260591,-1.85666
 86738,-7.4766699287\C,0,3.2317093449,-3.8953121376,-7.6323046009\H,0,3
 .3494347015,-4.8482662823,-7.0959479296\H,0,3.6434791095,-4.0530446375
 ,-8.6394051619\C,0,1.7316655158,-3.5603112724,-7.7405453878\H,0,1.3264
 028444,-3.4209855457,-6.7284133082\H,0,1.6159294742,-2.5980477829,-8.2
 595002722\N,0,0.8873186678,-4.5336438375,-8.4246992834\H,0,0.948258933
 7,-5.4422304485,-7.9679979862\H,0,1.204805815,-4.6701940442,-9.3829642
 731\O,0,6.9323830482,-0.6347914306,-7.7526521899\H,0,6.8293515801,0.26
 83359939,-8.1130545251\H,0,4.6590530045,0.1901947125,-4.8570841157\\Ve
 rsion=ES64L-G16RevC.01\HF=-2418.4233045\RMSD=7.485e-09\Dipole=3.445467
 9,-1.461936,-2.5411535\Quadrupole=9.7280345,-52.5296159,42.8015814,-14
 .3640719,-74.0408624,22.4869122\PG=C01 [X(C28H52N9O11)]\\@
 The archive entry for this job was punched.


 IF YOU BELIEVE CERTAIN WORDS, YOU BELIEVE THEIR HIDDEN ARGUMENTS.
 WHEN YOU BELIEVE SOMETHING IS RIGHT OR WRONG, TRUE OR FALSE, 
 YOU BELIEVE THE ASSUMPTIONS IN THE WORDS WHICH EXPRESS THE ARGUMENTS.
 SUCH ASSUMPTIONS ARE OFTEN FULL OF HOLES, BUT REMAIN MOST PRECIOUS 
 TO THE CONVINCED.

                 -- THE OPEN-ENDED PROOF FROM THE PANOPLIA PROPHETICA
                    CHILDREN OF DUNE BY FRANK HERBERT
 Job cpu time:       0 days  0 hours  3 minutes 28.0 seconds.
 Elapsed time:       0 days  0 hours  0 minutes 52.7 seconds.
 File lengths (MBytes):  RWF=    472 Int=      0 D2E=      0 Chk=     72 Scr=     16
 Normal termination of Gaussian 16 at Fri May 27 02:50:16 2022.
