 Entering Gaussian System, Link 0=/opt/software/Gaussian/g16-AVX2-C.01/g16/g16
 Input=charge-conf-102.com
 Output=charge-conf-102.log
 Initial command:
 /opt/software/Gaussian/g16-AVX2-C.01/g16/l1.exe "/mnt/gs18/scratch/users/kengmith/Gau-29856.inp" -scrdir="/mnt/gs18/scratch/users/kengmith/"
 Entering Link 1 = /opt/software/Gaussian/g16-AVX2-C.01/g16/l1.exe PID=     29895.
  
 Copyright (c) 1988-2019, Gaussian, Inc.  All Rights Reserved.
  
 This is part of the Gaussian(R) 16 program.  It is based on
 the Gaussian(R) 09 system (copyright 2009, Gaussian, Inc.),
 the Gaussian(R) 03 system (copyright 2003, Gaussian, Inc.),
 the Gaussian(R) 98 system (copyright 1998, Gaussian, Inc.),
 the Gaussian(R) 94 system (copyright 1995, Gaussian, Inc.),
 the Gaussian 92(TM) system (copyright 1992, Gaussian, Inc.),
 the Gaussian 90(TM) system (copyright 1990, Gaussian, Inc.),
 the Gaussian 88(TM) system (copyright 1988, Gaussian, Inc.),
 the Gaussian 86(TM) system (copyright 1986, Carnegie Mellon
 University), and the Gaussian 82(TM) system (copyright 1983,
 Carnegie Mellon University). Gaussian is a federally registered
 trademark of Gaussian, Inc.
  
 This software contains proprietary and confidential information,
 including trade secrets, belonging to Gaussian, Inc.
  
 This software is provided under written license and may be
 used, copied, transmitted, or stored only in accord with that
 written license.
  
 The following legend is applicable only to US Government
 contracts under FAR:
  
                    RESTRICTED RIGHTS LEGEND
  
 Use, reproduction and disclosure by the US Government is
 subject to restrictions as set forth in subparagraphs (a)
 and (c) of the Commercial Computer Software - Restricted
 Rights clause in FAR 52.227-19.
  
 Gaussian, Inc.
 340 Quinnipiac St., Bldg. 40, Wallingford CT 06492
  
  
 ---------------------------------------------------------------
 Warning -- This program may not be used in any manner that
 competes with the business of Gaussian, Inc. or will provide
 assistance to any competitor of Gaussian, Inc.  The licensee
 of this program is prohibited from giving any competitor of
 Gaussian, Inc. access to this program.  By using this program,
 the user acknowledges that Gaussian, Inc. is engaged in the
 business of creating and licensing software in the field of
 computational chemistry and represents and warrants to the
 licensee that it is not a competitor of Gaussian, Inc. and that
 it will not use this program in any manner prohibited above.
 ---------------------------------------------------------------
  

 Cite this work as:
 Gaussian 16, Revision C.01,
 M. J. Frisch, G. W. Trucks, H. B. Schlegel, G. E. Scuseria, 
 M. A. Robb, J. R. Cheeseman, G. Scalmani, V. Barone, 
 G. A. Petersson, H. Nakatsuji, X. Li, M. Caricato, A. V. Marenich, 
 J. Bloino, B. G. Janesko, R. Gomperts, B. Mennucci, H. P. Hratchian, 
 J. V. Ortiz, A. F. Izmaylov, J. L. Sonnenberg, D. Williams-Young, 
 F. Ding, F. Lipparini, F. Egidi, J. Goings, B. Peng, A. Petrone, 
 T. Henderson, D. Ranasinghe, V. G. Zakrzewski, J. Gao, N. Rega, 
 G. Zheng, W. Liang, M. Hada, M. Ehara, K. Toyota, R. Fukuda, 
 J. Hasegawa, M. Ishida, T. Nakajima, Y. Honda, O. Kitao, H. Nakai, 
 T. Vreven, K. Throssell, J. A. Montgomery, Jr., J. E. Peralta, 
 F. Ogliaro, M. J. Bearpark, J. J. Heyd, E. N. Brothers, K. N. Kudin, 
 V. N. Staroverov, T. A. Keith, R. Kobayashi, J. Normand, 
 K. Raghavachari, A. P. Rendell, J. C. Burant, S. S. Iyengar, 
 J. Tomasi, M. Cossi, J. M. Millam, M. Klene, C. Adamo, R. Cammi, 
 J. W. Ochterski, R. L. Martin, K. Morokuma, O. Farkas, 
 J. B. Foresman, and D. J. Fox, Gaussian, Inc., Wallingford CT, 2019.
 
 ******************************************
 Gaussian 16:  ES64L-G16RevC.01  3-Jul-2019
                27-May-2022 
 ******************************************
 %mem=8gb
 %nproc=4
 Will use up to    4 processors via shared memory.
 %chk=conf-102.chk
 -------------------------------------------------------------------
 # B3LYP/6-31G* guess=read geom=check nosymm integral(ultrafinegrid)
 -------------------------------------------------------------------
 1/29=2,38=1,172=1/1;
 2/12=2,15=1,40=1/2;
 3/5=1,6=6,7=1,11=2,14=-4,25=1,30=1,74=-5,75=-5,116=-2/1,2,3;
 4/5=1/1;
 5/5=2,38=6/2;
 6/7=2,8=2,9=2,10=2,28=1/1;
 99/5=1,9=1/99;
 ------------------------------------------------------
 Candidate Structure: Conf:102 Charge calc in gas phase
 ------------------------------------------------------
 Structure from the checkpoint file:  "conf-102.chk"
 Charge =  1 Multiplicity = 1
 Redundant internal coordinates found in file.  (old form).
 N,0,-6.359204389,4.3475846755,-1.7878718696
 H,0,-7.2824567144,4.3600634397,-2.2116510784
 H,0,-5.662756887,4.1388173954,-2.4983582525
 C,0,-6.2808595215,3.3886546236,-0.7012240001
 H,0,-6.777687812,3.8163589303,0.1775297903
 C,0,-4.7865014253,3.2177613175,-0.359699487
 C,0,-6.9553932711,2.0084830743,-0.982279496
 H,0,-7.816819133,2.1802653961,-1.6395969295
 H,0,-6.2762954788,1.3489821814,-1.540546436
 O,0,-3.9065898457,3.4992650805,-1.187676625
 C,0,-7.4287999668,1.279755779,0.2765684994
 N,0,-8.413087385,0.366745298,0.0898422123
 H,0,-8.7744899431,-0.1226855113,0.8980390987
 H,0,-8.878356947,0.2387154013,-0.7962787147
 O,0,-6.952529642,1.4896367912,1.3944500398
 N,0,-4.5125549267,2.7459754528,0.8763407967
 H,0,-5.3003078666,2.3664696998,1.4096454161
 C,0,-3.153221847,2.6892568168,1.4146870059
 H,0,-2.6268154449,3.5675788629,1.0230095481
 C,0,-2.4441091717,1.4453389867,0.8394354949
 C,0,-3.1312961557,2.7229530818,2.9575146042
 H,0,-3.524048407,1.758987946,3.3071191957
 O,0,-2.2805994929,0.3877749237,1.4722171646
 C,0,-4.0397205522,3.8318931612,3.5408293351
 H,0,-3.9738318223,3.7549443468,4.6336340418
 H,0,-5.0863175842,3.6176277901,3.2937903658
 C,0,-1.6836586202,2.8530149701,3.4644817565
 H,0,-1.2096309585,3.7720306161,3.1005024446
 H,0,-1.6731645524,2.889775104,4.5588965173
 H,0,-1.0601440198,2.0069416807,3.1617716127
 C,0,-3.7096203686,5.2686818946,3.1164390157
 H,0,-4.3916732386,5.9715400782,3.6061411376
 H,0,-2.6906953548,5.5579599003,3.3953821628
 H,0,-3.8181950611,5.4145102983,2.0353366845
 N,0,-2.010770474,1.590176179,-0.4397546315
 H,0,-2.3820602137,2.4184396986,-0.9234772342
 C,0,-1.6501782926,0.4454062358,-1.2834686887
 H,0,-2.292469249,-0.4019890272,-1.0008237165
 C,0,-0.2158796499,-0.0428015448,-0.9976046519
 C,0,-1.8746699717,0.7945805426,-2.7547556525
 H,0,-1.6826289129,-0.0684408987,-3.3950681638
 H,0,-2.9130631874,1.1093567873,-2.8883674261
 H,0,-1.2206293754,1.6107360083,-3.0741604359
 O,0,0.5478741148,-0.1465392687,-2.0360215624
 N,0,0.0656788785,-0.3171846074,0.2501753051
 H,0,-0.7404873292,-0.1427492258,0.8808531982
 C,0,1.2923094161,-0.739803525,0.9459455417
 H,0,1.8739299452,0.1604227187,1.1770158588
 C,0,2.0861332485,-1.7162187316,0.0817251326
 C,0,0.8560040225,-1.3810708976,2.2999751242
 H,0,0.2568159854,-2.2696317785,2.0626022469
 O,0,1.5425334671,-2.7171449763,-0.3937995176
 C,0,2.061742748,-1.7715751159,3.145874872
 H,0,2.6889550048,-2.5142884499,2.6428845003
 H,0,1.7116308387,-2.1980841841,4.0890541972
 H,0,2.6690746142,-0.8904670721,3.3803768503
 O,0,0.0980698634,-0.4214127162,3.0229257944
 H,0,-0.8556884684,-0.5568633118,2.8987413075
 N,0,3.3698059995,-1.3696508979,-0.1416046756
 H,0,3.7973234705,-0.5387990795,0.2617711279
 C,0,4.2317414764,-2.0938583877,-1.0573052291
 H,0,4.0951842165,-3.1702582979,-0.9042600731
 C,0,5.6704566071,-1.6441897308,-0.7529285484
 C,0,3.8822390913,-1.713433792,-2.5222263527
 H,0,4.3846690369,-2.3942182627,-3.2200450738
 H,0,4.2078650651,-0.6921928226,-2.7393964691
 O,0,5.8584749109,-0.5577828807,-0.2023045037
 O,0,2.4683621827,-1.7409598993,-2.7508829898
 H,0,2.1149483482,-2.5739672073,-2.3809703497
 N,0,6.6641820772,-2.4420290223,-1.193494752
 H,0,6.4337241432,-3.2973417249,-1.6822491694
 C,0,8.0659998878,-2.0175207183,-1.1803350545
 H,0,8.2243471131,-1.4186610729,-0.2788543422
 H,0,8.7067449868,-2.8984490362,-1.1366080717
 C,0,8.482630116,-1.2082541192,-2.4292116807
 O,0,9.5153115475,-1.4687317092,-3.0293960144
 N,0,7.6101063415,-0.2263148481,-2.7830580126
 H,0,6.8772768445,0.0481272091,-2.1381580246
 C,0,7.8221495717,0.649089218,-3.9320259173
 H,0,8.8190352096,1.1017452851,-3.8826970107
 C,0,6.7683590077,1.7414568144,-3.8334147693
 C,0,7.6922854902,-0.1234203631,-5.2736903065
 H,0,8.3662917443,-0.9818467248,-5.1886120045
 H,0,6.6686850048,-0.5166008342,-5.3444139401
 O,0,5.6900899787,1.6070134215,-3.2834841541
 C,0,8.0453848268,0.6885045243,-6.5253299602
 H,0,7.3487388759,1.5197009186,-6.6691895871
 H,0,9.0408775791,1.1370482103,-6.3972734195
 C,0,8.04572666,-0.1725709803,-7.7951531321
 H,0,7.0867612562,-0.7074864592,-7.8807003034
 H,0,8.8220962605,-0.9466488759,-7.7246537329
 C,0,8.272732716,0.6426666727,-9.074166845
 H,0,9.1942289818,1.2291036414,-8.9680268634
 H,0,8.4378128441,-0.0513629865,-9.9167147021
 N,0,7.1687474245,1.5878446623,-9.2958672835
 H,0,6.3454328127,1.0774688226,-9.6147512463
 H,0,7.4087596258,2.2274550736,-10.0512903637
 O,0,7.1459969319,2.8740101783,-4.4436412634
 H,0,6.3974248692,3.4989171055,-4.3870551658
 H,0,1.4065239289,-0.6906303459,-2.0567946506
 Recover connectivity data from disk.
                           ----------------------------
                           !    Current Parameters    !
                           ! (Angstroms and Degrees)  !
 --------------------------                            --------------------------
 ! Name  Definition              Value                                          !
 --------------------------------------------------------------------------------
 ! R1    R(1,2)                  1.0159                                         !
 ! R2    R(1,3)                  1.0166                                         !
 ! R3    R(1,4)                  1.4514                                         !
 ! R4    R(4,5)                  1.0963                                         !
 ! R5    R(4,6)                  1.5424                                         !
 ! R6    R(4,7)                  1.5617                                         !
 ! R7    R(6,10)                 1.2406                                         !
 ! R8    R(6,16)                 1.3511                                         !
 ! R9    R(7,8)                  1.0971                                         !
 ! R10   R(7,9)                  1.099                                          !
 ! R11   R(7,11)                 1.5297                                         !
 ! R12   R(11,12)                1.3555                                         !
 ! R13   R(11,15)                1.2331                                         !
 ! R14   R(12,13)                1.0116                                         !
 ! R15   R(12,14)                1.009                                          !
 ! R16   R(16,17)                1.0242                                         !
 ! R17   R(16,18)                1.4632                                         !
 ! R18   R(18,19)                1.0963                                         !
 ! R19   R(18,20)                1.5431                                         !
 ! R20   R(18,21)                1.5434                                         !
 ! R21   R(20,23)                1.2432                                         !
 ! R22   R(20,35)                1.3583                                         !
 ! R23   R(21,22)                1.098                                          !
 ! R24   R(21,24)                1.5477                                         !
 ! R25   R(21,27)                1.5393                                         !
 ! R26   R(24,25)                1.0975                                         !
 ! R27   R(24,26)                1.0965                                         !
 ! R28   R(24,31)                1.5341                                         !
 ! R29   R(27,28)                1.0963                                         !
 ! R30   R(27,29)                1.0951                                         !
 ! R31   R(27,30)                1.0937                                         !
 ! R32   R(31,32)                1.095                                          !
 ! R33   R(31,33)                1.0953                                         !
 ! R34   R(31,34)                1.0963                                         !
 ! R35   R(35,36)                1.0285                                         !
 ! R36   R(35,37)                1.4671                                         !
 ! R37   R(37,38)                1.1002                                         !
 ! R38   R(37,39)                1.5418                                         !
 ! R39   R(37,40)                1.5287                                         !
 ! R40   R(39,44)                1.2932                                         !
 ! R41   R(39,45)                1.3082                                         !
 ! R42   R(40,41)                1.0916                                         !
 ! R43   R(40,42)                1.0933                                         !
 ! R44   R(40,43)                1.0936                                         !
 ! R45   R(45,46)                1.0383                                         !
 ! R46   R(45,47)                1.4722                                         !
 ! R47   R(47,48)                1.0964                                         !
 ! R48   R(47,49)                1.5266                                         !
 ! R49   R(47,50)                1.5604                                         !
 ! R50   R(49,52)                1.2343                                         !
 ! R51   R(49,59)                1.3483                                         !
 ! R52   R(50,51)                1.0977                                         !
 ! R53   R(50,53)                1.5238                                         !
 ! R54   R(50,57)                1.4206                                         !
 ! R55   R(53,54)                1.0945                                         !
 ! R56   R(53,55)                1.0927                                         !
 ! R57   R(53,56)                1.0955                                         !
 ! R58   R(57,58)                0.9713                                         !
 ! R59   R(59,60)                1.0177                                         !
 ! R60   R(59,61)                1.4512                                         !
 ! R61   R(61,62)                1.0958                                         !
 ! R62   R(61,63)                1.5378                                         !
 ! R63   R(61,64)                1.5533                                         !
 ! R64   R(63,67)                1.2324                                         !
 ! R65   R(63,70)                1.3484                                         !
 ! R66   R(64,65)                1.0967                                         !
 ! R67   R(64,66)                1.0937                                         !
 ! R68   R(64,68)                1.4325                                         !
 ! R69   R(68,69)                0.9776                                         !
 ! R70   R(68,100)               1.647                                          !
 ! R71   R(70,71)                1.0117                                         !
 ! R72   R(70,72)                1.4647                                         !
 ! R73   R(72,73)                1.0938                                         !
 ! R74   R(72,74)                1.0902                                         !
 ! R75   R(72,75)                1.5454                                         !
 ! R76   R(75,76)                1.2225                                         !
 ! R77   R(75,77)                1.3604                                         !
 ! R78   R(77,78)                1.014                                          !
 ! R79   R(77,79)                1.4599                                         !
 ! R80   R(79,80)                1.096                                          !
 ! R81   R(79,81)                1.521                                          !
 ! R82   R(79,82)                1.5536                                         !
 ! R83   R(81,85)                1.2179                                         !
 ! R84   R(81,98)                1.3408                                         !
 ! R85   R(82,83)                1.0947                                         !
 ! R86   R(82,84)                1.0988                                         !
 ! R87   R(82,86)                1.5331                                         !
 ! R88   R(86,87)                1.094                                          !
 ! R89   R(86,88)                1.0994                                         !
 ! R90   R(86,89)                1.5342                                         !
 ! R91   R(89,90)                1.1014                                         !
 ! R92   R(89,91)                1.0986                                         !
 ! R93   R(89,92)                1.5336                                         !
 ! R94   R(92,93)                1.0974                                         !
 ! R95   R(92,94)                1.104                                          !
 ! R96   R(92,95)                1.4701                                         !
 ! R97   R(95,96)                1.0198                                         !
 ! R98   R(95,97)                1.0185                                         !
 ! R99   R(98,99)                0.9768                                         !
 ! A1    A(2,1,3)              109.4862                                         !
 ! A2    A(2,1,4)              111.6833                                         !
 ! A3    A(3,1,4)              110.5244                                         !
 ! A4    A(1,4,5)              108.5355                                         !
 ! A5    A(1,4,6)              106.935                                          !
 ! A6    A(1,4,7)              115.2046                                         !
 ! A7    A(5,4,6)              107.7462                                         !
 ! A8    A(5,4,7)              107.055                                          !
 ! A9    A(6,4,7)              111.1252                                         !
 ! A10   A(4,6,10)             120.9484                                         !
 ! A11   A(4,6,16)             115.9578                                         !
 ! A12   A(10,6,16)            123.0934                                         !
 ! A13   A(4,7,8)              107.9742                                         !
 ! A14   A(4,7,9)              110.7855                                         !
 ! A15   A(4,7,11)             113.9911                                         !
 ! A16   A(8,7,9)              105.95                                           !
 ! A17   A(8,7,11)             108.945                                          !
 ! A18   A(9,7,11)             108.8689                                         !
 ! A19   A(7,11,12)            115.611                                          !
 ! A20   A(7,11,15)            123.0549                                         !
 ! A21   A(12,11,15)           121.3326                                         !
 ! A22   A(11,12,13)           118.3762                                         !
 ! A23   A(11,12,14)           122.7722                                         !
 ! A24   A(13,12,14)           118.3922                                         !
 ! A25   A(6,16,17)            116.731                                          !
 ! A26   A(6,16,18)            122.5827                                         !
 ! A27   A(17,16,18)           120.5715                                         !
 ! A28   A(16,18,19)           106.4737                                         !
 ! A29   A(16,18,20)           108.7247                                         !
 ! A30   A(16,18,21)           112.3438                                         !
 ! A31   A(19,18,20)           106.977                                          !
 ! A32   A(19,18,21)           109.4403                                         !
 ! A33   A(20,18,21)           112.5656                                         !
 ! A34   A(18,20,23)           123.8099                                         !
 ! A35   A(18,20,35)           114.313                                          !
 ! A36   A(23,20,35)           121.8755                                         !
 ! A37   A(18,21,22)           107.0994                                         !
 ! A38   A(18,21,24)           112.5866                                         !
 ! A39   A(18,21,27)           110.1472                                         !
 ! A40   A(22,21,24)           107.4026                                         !
 ! A41   A(22,21,27)           107.7997                                         !
 ! A42   A(24,21,27)           111.551                                          !
 ! A43   A(21,24,25)           106.8469                                         !
 ! A44   A(21,24,26)           109.5923                                         !
 ! A45   A(21,24,31)           116.1367                                         !
 ! A46   A(25,24,26)           105.5417                                         !
 ! A47   A(25,24,31)           109.16                                           !
 ! A48   A(26,24,31)           109.0306                                         !
 ! A49   A(21,27,28)           111.6003                                         !
 ! A50   A(21,27,29)           109.937                                          !
 ! A51   A(21,27,30)           112.3093                                         !
 ! A52   A(28,27,29)           107.4296                                         !
 ! A53   A(28,27,30)           108.0652                                         !
 ! A54   A(29,27,30)           107.2838                                         !
 ! A55   A(24,31,32)           110.0855                                         !
 ! A56   A(24,31,33)           112.1525                                         !
 ! A57   A(24,31,34)           112.0912                                         !
 ! A58   A(32,31,33)           107.219                                          !
 ! A59   A(32,31,34)           107.0947                                         !
 ! A60   A(33,31,34)           107.9475                                         !
 ! A61   A(20,35,36)           114.4315                                         !
 ! A62   A(20,35,37)           122.4653                                         !
 ! A63   A(36,35,37)           116.5273                                         !
 ! A64   A(35,37,38)           108.0447                                         !
 ! A65   A(35,37,39)           111.6595                                         !
 ! A66   A(35,37,40)           109.8259                                         !
 ! A67   A(38,37,39)           104.5696                                         !
 ! A68   A(38,37,40)           109.7208                                         !
 ! A69   A(39,37,40)           112.7908                                         !
 ! A70   A(37,39,44)           115.2088                                         !
 ! A71   A(37,39,45)           116.3242                                         !
 ! A72   A(44,39,45)           128.4574                                         !
 ! A73   A(37,40,41)           110.9843                                         !
 ! A74   A(37,40,42)           108.8365                                         !
 ! A75   A(37,40,43)           111.3301                                         !
 ! A76   A(41,40,42)           108.8464                                         !
 ! A77   A(41,40,43)           108.2695                                         !
 ! A78   A(42,40,43)           108.5109                                         !
 ! A79   A(39,45,46)           112.1479                                         !
 ! A80   A(39,45,47)           133.6534                                         !
 ! A81   A(46,45,47)           114.0842                                         !
 ! A82   A(45,47,48)           107.8123                                         !
 ! A83   A(45,47,49)           110.4463                                         !
 ! A84   A(45,47,50)           107.1635                                         !
 ! A85   A(48,47,49)           111.6312                                         !
 ! A86   A(48,47,50)           107.6302                                         !
 ! A87   A(49,47,50)           111.9488                                         !
 ! A88   A(47,49,52)           120.5153                                         !
 ! A89   A(47,49,59)           115.1163                                         !
 ! A90   A(52,49,59)           124.3294                                         !
 ! A91   A(47,50,51)           107.3161                                         !
 ! A92   A(47,50,53)           111.4553                                         !
 ! A93   A(47,50,57)           108.2496                                         !
 ! A94   A(51,50,53)           110.1534                                         !
 ! A95   A(51,50,57)           111.4476                                         !
 ! A96   A(53,50,57)           108.2275                                         !
 ! A97   A(50,53,54)           111.8531                                         !
 ! A98   A(50,53,55)           109.0055                                         !
 ! A99   A(50,53,56)           110.5718                                         !
 ! A100  A(54,53,55)           108.3849                                         !
 ! A101  A(54,53,56)           109.0529                                         !
 ! A102  A(55,53,56)           107.8654                                         !
 ! A103  A(50,57,58)           111.3847                                         !
 ! A104  A(49,59,60)           122.9657                                         !
 ! A105  A(49,59,61)           122.8025                                         !
 ! A106  A(60,59,61)           114.0794                                         !
 ! A107  A(59,61,62)           109.152                                          !
 ! A108  A(59,61,63)           106.551                                          !
 ! A109  A(59,61,64)           109.8297                                         !
 ! A110  A(62,61,63)           112.0983                                         !
 ! A111  A(62,61,64)           110.1365                                         !
 ! A112  A(63,61,64)           108.9994                                         !
 ! A113  A(61,63,67)           119.2712                                         !
 ! A114  A(61,63,70)           116.8597                                         !
 ! A115  A(67,63,70)           123.7212                                         !
 ! A116  A(61,64,65)           110.1786                                         !
 ! A117  A(61,64,66)           110.4238                                         !
 ! A118  A(61,64,68)           111.5862                                         !
 ! A119  A(65,64,66)           108.4744                                         !
 ! A120  A(65,64,68)           109.7954                                         !
 ! A121  A(66,64,68)           106.2667                                         !
 ! A122  A(64,68,69)           108.2277                                         !
 ! A123  A(64,68,100)          123.836                                          !
 ! A124  A(69,68,100)           98.6777                                         !
 ! A125  A(63,70,71)           119.3539                                         !
 ! A126  A(63,70,72)           122.0659                                         !
 ! A127  A(71,70,72)           117.8632                                         !
 ! A128  A(70,72,73)           107.7361                                         !
 ! A129  A(70,72,74)           109.1876                                         !
 ! A130  A(70,72,75)           113.7361                                         !
 ! A131  A(73,72,74)           108.9215                                         !
 ! A132  A(73,72,75)           109.8957                                         !
 ! A133  A(74,72,75)           107.2844                                         !
 ! A134  A(72,75,76)           120.8581                                         !
 ! A135  A(72,75,77)           114.5364                                         !
 ! A136  A(76,75,77)           124.6025                                         !
 ! A137  A(75,77,78)           119.5671                                         !
 ! A138  A(75,77,79)           122.9802                                         !
 ! A139  A(78,77,79)           116.3079                                         !
 ! A140  A(77,79,80)           110.1419                                         !
 ! A141  A(77,79,81)           106.1998                                         !
 ! A142  A(77,79,82)           111.6751                                         !
 ! A143  A(80,79,81)           109.3082                                         !
 ! A144  A(80,79,82)           108.6795                                         !
 ! A145  A(81,79,82)           110.8047                                         !
 ! A146  A(79,81,85)           124.2919                                         !
 ! A147  A(79,81,98)           112.4581                                         !
 ! A148  A(85,81,98)           123.2398                                         !
 ! A149  A(79,82,83)           105.7433                                         !
 ! A150  A(79,82,84)           108.1423                                         !
 ! A151  A(79,82,86)           114.9887                                         !
 ! A152  A(83,82,84)           107.3353                                         !
 ! A153  A(83,82,86)           109.6894                                         !
 ! A154  A(84,82,86)           110.5794                                         !
 ! A155  A(82,86,87)           111.2877                                         !
 ! A156  A(82,86,88)           109.2402                                         !
 ! A157  A(82,86,89)           112.242                                          !
 ! A158  A(87,86,88)           106.3761                                         !
 ! A159  A(87,86,89)           108.5247                                         !
 ! A160  A(88,86,89)           108.9773                                         !
 ! A161  A(86,89,90)           109.674                                          !
 ! A162  A(86,89,91)           110.029                                          !
 ! A163  A(86,89,92)           113.0752                                         !
 ! A164  A(90,89,91)           106.1458                                         !
 ! A165  A(90,89,92)           108.8003                                         !
 ! A166  A(91,89,92)           108.8726                                         !
 ! A167  A(89,92,93)           109.1287                                         !
 ! A168  A(89,92,94)           108.9312                                         !
 ! A169  A(89,92,95)           110.8776                                         !
 ! A170  A(93,92,94)           106.5105                                         !
 ! A171  A(93,92,95)           107.5528                                         !
 ! A172  A(94,92,95)           113.6638                                         !
 ! A173  A(92,95,96)           109.3689                                         !
 ! A174  A(92,95,97)           109.7936                                         !
 ! A175  A(96,95,97)           105.8194                                         !
 ! A176  A(81,98,99)           107.3492                                         !
 ! D1    D(2,1,4,5)            -76.8975                                         !
 ! D2    D(2,1,4,6)            167.1172                                         !
 ! D3    D(2,1,4,7)             43.0822                                         !
 ! D4    D(3,1,4,5)            160.9507                                         !
 ! D5    D(3,1,4,6)             44.9654                                         !
 ! D6    D(3,1,4,7)            -79.0697                                         !
 ! D7    D(1,4,6,10)           -21.9199                                         !
 ! D8    D(1,4,6,16)           158.2888                                         !
 ! D9    D(5,4,6,10)          -138.4297                                         !
 ! D10   D(5,4,6,16)            41.7791                                         !
 ! D11   D(7,4,6,10)           104.5838                                         !
 ! D12   D(7,4,6,16)           -75.2074                                         !
 ! D13   D(1,4,7,8)            -32.503                                          !
 ! D14   D(1,4,7,9)             83.1012                                         !
 ! D15   D(1,4,7,11)          -153.6995                                         !
 ! D16   D(5,4,7,8)             88.2871                                         !
 ! D17   D(5,4,7,9)           -156.1087                                         !
 ! D18   D(5,4,7,11)           -32.9093                                         !
 ! D19   D(6,4,7,8)           -154.3048                                         !
 ! D20   D(6,4,7,9)            -38.7007                                         !
 ! D21   D(6,4,7,11)            84.4987                                         !
 ! D22   D(4,6,16,17)           11.9172                                         !
 ! D23   D(4,6,16,18)         -171.9624                                         !
 ! D24   D(10,6,16,17)        -167.8691                                         !
 ! D25   D(10,6,16,18)           8.2514                                         !
 ! D26   D(4,7,11,12)          156.9329                                         !
 ! D27   D(4,7,11,15)          -23.5101                                         !
 ! D28   D(8,7,11,12)           36.2773                                         !
 ! D29   D(8,7,11,15)         -144.1657                                         !
 ! D30   D(9,7,11,12)          -78.8322                                         !
 ! D31   D(9,7,11,15)          100.7248                                         !
 ! D32   D(7,11,12,13)        -178.4426                                         !
 ! D33   D(7,11,12,14)          -6.3529                                         !
 ! D34   D(15,11,12,13)          1.9921                                         !
 ! D35   D(15,11,12,14)        174.0818                                         !
 ! D36   D(6,16,18,19)          34.9942                                         !
 ! D37   D(6,16,18,20)         -79.9502                                         !
 ! D38   D(6,16,18,21)         154.782                                          !
 ! D39   D(17,16,18,19)       -149.0304                                         !
 ! D40   D(17,16,18,20)         96.0252                                         !
 ! D41   D(17,16,18,21)        -29.2426                                         !
 ! D42   D(16,18,20,23)       -102.0151                                         !
 ! D43   D(16,18,20,35)         77.5263                                         !
 ! D44   D(19,18,20,23)        143.3682                                         !
 ! D45   D(19,18,20,35)        -37.0904                                         !
 ! D46   D(21,18,20,23)         23.1227                                         !
 ! D47   D(21,18,20,35)       -157.3359                                         !
 ! D48   D(16,18,21,22)         70.6506                                         !
 ! D49   D(16,18,21,24)        -47.1814                                         !
 ! D50   D(16,18,21,27)       -172.3785                                         !
 ! D51   D(19,18,21,22)       -171.3022                                         !
 ! D52   D(19,18,21,24)         70.8658                                         !
 ! D53   D(19,18,21,27)        -54.3314                                         !
 ! D54   D(20,18,21,22)        -52.4874                                         !
 ! D55   D(20,18,21,24)       -170.3194                                         !
 ! D56   D(20,18,21,27)         64.4834                                         !
 ! D57   D(18,20,35,36)        -12.5057                                         !
 ! D58   D(18,20,35,37)       -163.0154                                         !
 ! D59   D(23,20,35,36)        167.0456                                         !
 ! D60   D(23,20,35,37)         16.5359                                         !
 ! D61   D(18,21,24,25)        178.5797                                         !
 ! D62   D(18,21,24,26)         64.6923                                         !
 ! D63   D(18,21,24,31)        -59.3764                                         !
 ! D64   D(22,21,24,25)         60.9266                                         !
 ! D65   D(22,21,24,26)        -52.9607                                         !
 ! D66   D(22,21,24,31)       -177.0294                                         !
 ! D67   D(27,21,24,25)        -56.9921                                         !
 ! D68   D(27,21,24,26)       -170.8795                                         !
 ! D69   D(27,21,24,31)         65.0519                                         !
 ! D70   D(18,21,27,28)         60.1654                                         !
 ! D71   D(18,21,27,29)        179.2638                                         !
 ! D72   D(18,21,27,30)        -61.366                                          !
 ! D73   D(22,21,27,28)        176.6996                                         !
 ! D74   D(22,21,27,29)        -64.202                                          !
 ! D75   D(22,21,27,30)         55.1682                                         !
 ! D76   D(24,21,27,28)        -65.6206                                         !
 ! D77   D(24,21,27,29)         53.4778                                         !
 ! D78   D(24,21,27,30)        172.848                                          !
 ! D79   D(21,24,31,32)       -178.3938                                         !
 ! D80   D(21,24,31,33)        -59.1066                                         !
 ! D81   D(21,24,31,34)         62.5151                                         !
 ! D82   D(25,24,31,32)        -57.58                                           !
 ! D83   D(25,24,31,33)         61.7071                                         !
 ! D84   D(25,24,31,34)       -176.6712                                         !
 ! D85   D(26,24,31,32)         57.2481                                         !
 ! D86   D(26,24,31,33)        176.5352                                         !
 ! D87   D(26,24,31,34)        -61.8431                                         !
 ! D88   D(20,35,37,38)         32.5025                                         !
 ! D89   D(20,35,37,39)        -81.9567                                         !
 ! D90   D(20,35,37,40)        152.153                                          !
 ! D91   D(36,35,37,38)       -117.4357                                         !
 ! D92   D(36,35,37,39)        128.105                                          !
 ! D93   D(36,35,37,40)          2.2147                                         !
 ! D94   D(35,37,39,44)       -127.5376                                         !
 ! D95   D(35,37,39,45)         53.4885                                         !
 ! D96   D(38,37,39,44)        115.8735                                         !
 ! D97   D(38,37,39,45)        -63.1004                                         !
 ! D98   D(40,37,39,44)         -3.2951                                         !
 ! D99   D(40,37,39,45)        177.7309                                         !
 ! D100  D(35,37,40,41)       -175.8035                                         !
 ! D101  D(35,37,40,42)        -56.0415                                         !
 ! D102  D(35,37,40,43)         63.5182                                         !
 ! D103  D(38,37,40,41)        -57.1815                                         !
 ! D104  D(38,37,40,42)         62.5805                                         !
 ! D105  D(38,37,40,43)       -177.8599                                         !
 ! D106  D(39,37,40,41)         58.9526                                         !
 ! D107  D(39,37,40,42)        178.7147                                         !
 ! D108  D(39,37,40,43)        -61.7257                                         !
 ! D109  D(37,39,45,46)         -1.0477                                         !
 ! D110  D(37,39,45,47)       -176.8191                                         !
 ! D111  D(44,39,45,46)       -179.8621                                         !
 ! D112  D(44,39,45,47)          4.3665                                         !
 ! D113  D(39,45,47,48)         84.3192                                         !
 ! D114  D(39,45,47,49)        -37.8899                                         !
 ! D115  D(39,45,47,50)       -160.0744                                         !
 ! D116  D(46,45,47,48)        -91.3906                                         !
 ! D117  D(46,45,47,49)        146.4003                                         !
 ! D118  D(46,45,47,50)         24.2157                                         !
 ! D119  D(45,47,49,52)        -52.3016                                         !
 ! D120  D(45,47,49,59)        125.5224                                         !
 ! D121  D(48,47,49,52)       -172.2384                                         !
 ! D122  D(48,47,49,59)          5.5856                                         !
 ! D123  D(50,47,49,52)         67.0253                                         !
 ! D124  D(50,47,49,59)       -115.1507                                         !
 ! D125  D(45,47,50,51)         63.1155                                         !
 ! D126  D(45,47,50,53)       -176.2013                                         !
 ! D127  D(45,47,50,57)        -57.2889                                         !
 ! D128  D(48,47,50,51)        178.8429                                         !
 ! D129  D(48,47,50,53)        -60.4739                                         !
 ! D130  D(48,47,50,57)         58.4386                                         !
 ! D131  D(49,47,50,51)        -58.126                                          !
 ! D132  D(49,47,50,53)         62.5572                                         !
 ! D133  D(49,47,50,57)       -178.5304                                         !
 ! D134  D(47,49,59,60)          2.2836                                         !
 ! D135  D(47,49,59,61)       -172.9623                                         !
 ! D136  D(52,49,59,60)       -179.9865                                         !
 ! D137  D(52,49,59,61)          4.7676                                         !
 ! D138  D(47,50,53,54)        -61.1905                                         !
 ! D139  D(47,50,53,55)        178.9718                                         !
 ! D140  D(47,50,53,56)         60.5578                                         !
 ! D141  D(51,50,53,54)         57.8153                                         !
 ! D142  D(51,50,53,55)        -62.0224                                         !
 ! D143  D(51,50,53,56)        179.5635                                         !
 ! D144  D(57,50,53,54)        179.8839                                         !
 ! D145  D(57,50,53,55)         60.0462                                         !
 ! D146  D(57,50,53,56)        -58.3679                                         !
 ! D147  D(47,50,57,58)         96.9323                                         !
 ! D148  D(51,50,57,58)        -20.8597                                         !
 ! D149  D(53,50,57,58)       -142.1314                                         !
 ! D150  D(49,59,61,62)        -43.911                                          !
 ! D151  D(49,59,61,63)       -165.1536                                         !
 ! D152  D(49,59,61,64)         76.9286                                         !
 ! D153  D(60,59,61,62)        140.4571                                         !
 ! D154  D(60,59,61,63)         19.2145                                         !
 ! D155  D(60,59,61,64)        -98.7033                                         !
 ! D156  D(59,61,63,67)        -22.8552                                         !
 ! D157  D(59,61,63,70)        161.3998                                         !
 ! D158  D(62,61,63,67)       -142.1993                                         !
 ! D159  D(62,61,63,70)         42.0556                                         !
 ! D160  D(64,61,63,67)         95.6086                                         !
 ! D161  D(64,61,63,70)        -80.1364                                         !
 ! D162  D(59,61,64,65)       -168.8637                                         !
 ! D163  D(59,61,64,66)         71.3281                                         !
 ! D164  D(59,61,64,68)        -46.6265                                         !
 ! D165  D(62,61,64,65)        -48.6197                                         !
 ! D166  D(62,61,64,66)       -168.4279                                         !
 ! D167  D(62,61,64,68)         73.6175                                         !
 ! D168  D(63,61,64,65)         74.749                                          !
 ! D169  D(63,61,64,66)        -45.0591                                         !
 ! D170  D(63,61,64,68)       -163.0138                                         !
 ! D171  D(61,63,70,71)         -1.1146                                         !
 ! D172  D(61,63,70,72)        168.9726                                         !
 ! D173  D(67,63,70,71)       -176.6517                                         !
 ! D174  D(67,63,70,72)         -6.5645                                         !
 ! D175  D(61,64,68,69)        -47.2706                                         !
 ! D176  D(61,64,68,100)        67.0597                                         !
 ! D177  D(65,64,68,69)         75.1867                                         !
 ! D178  D(65,64,68,100)      -170.483                                          !
 ! D179  D(66,64,68,69)       -167.6935                                         !
 ! D180  D(66,64,68,100)       -53.3632                                         !
 ! D181  D(63,70,72,73)         36.5658                                         !
 ! D182  D(63,70,72,74)        154.7158                                         !
 ! D183  D(63,70,72,75)        -85.5035                                         !
 ! D184  D(71,70,72,73)       -153.2058                                         !
 ! D185  D(71,70,72,74)        -35.0558                                         !
 ! D186  D(71,70,72,75)         84.7249                                         !
 ! D187  D(70,72,75,76)       -132.9888                                         !
 ! D188  D(70,72,75,77)         46.415                                          !
 ! D189  D(73,72,75,76)        106.1443                                         !
 ! D190  D(73,72,75,77)        -74.4519                                         !
 ! D191  D(74,72,75,76)        -12.1356                                         !
 ! D192  D(74,72,75,77)        167.2682                                         !
 ! D193  D(72,75,77,78)         12.6667                                         !
 ! D194  D(72,75,77,79)        179.9772                                         !
 ! D195  D(76,75,77,78)       -167.9551                                         !
 ! D196  D(76,75,77,79)         -0.6446                                         !
 ! D197  D(75,77,79,80)        -52.0409                                         !
 ! D198  D(75,77,79,81)       -170.2901                                         !
 ! D199  D(75,77,79,82)         68.8141                                         !
 ! D200  D(78,77,79,80)        115.6528                                         !
 ! D201  D(78,77,79,81)         -2.5964                                         !
 ! D202  D(78,77,79,82)       -123.4922                                         !
 ! D203  D(77,79,81,85)        -26.9291                                         !
 ! D204  D(77,79,81,98)        154.2026                                         !
 ! D205  D(80,79,81,85)       -145.7283                                         !
 ! D206  D(80,79,81,98)         35.4034                                         !
 ! D207  D(82,79,81,85)         94.5259                                         !
 ! D208  D(82,79,81,98)        -84.3425                                         !
 ! D209  D(77,79,82,83)        -52.6898                                         !
 ! D210  D(77,79,82,84)         62.0276                                         !
 ! D211  D(77,79,82,86)       -173.8606                                         !
 ! D212  D(80,79,82,83)         69.0134                                         !
 ! D213  D(80,79,82,84)       -176.2692                                         !
 ! D214  D(80,79,82,86)        -52.1574                                         !
 ! D215  D(81,79,82,83)       -170.8649                                         !
 ! D216  D(81,79,82,84)        -56.1475                                         !
 ! D217  D(81,79,82,86)         67.9643                                         !
 ! D218  D(79,81,98,99)        176.3082                                         !
 ! D219  D(85,81,98,99)         -2.574                                          !
 ! D220  D(79,82,86,87)        -64.4417                                         !
 ! D221  D(79,82,86,88)         52.7185                                         !
 ! D222  D(79,82,86,89)        173.706                                          !
 ! D223  D(83,82,86,87)        176.5643                                         !
 ! D224  D(83,82,86,88)        -66.2755                                         !
 ! D225  D(83,82,86,89)         54.7121                                         !
 ! D226  D(84,82,86,87)         58.3744                                         !
 ! D227  D(84,82,86,88)        175.5346                                         !
 ! D228  D(84,82,86,89)        -63.4779                                         !
 ! D229  D(82,86,89,90)         53.2269                                         !
 ! D230  D(82,86,89,91)        -63.1756                                         !
 ! D231  D(82,86,89,92)        174.8505                                         !
 ! D232  D(87,86,89,90)        -70.1881                                         !
 ! D233  D(87,86,89,91)        173.4095                                         !
 ! D234  D(87,86,89,92)         51.4355                                         !
 ! D235  D(88,86,89,90)        174.3656                                         !
 ! D236  D(88,86,89,91)         57.9632                                         !
 ! D237  D(88,86,89,92)        -64.0108                                         !
 ! D238  D(86,89,92,93)         54.2188                                         !
 ! D239  D(86,89,92,94)        170.129                                          !
 ! D240  D(86,89,92,95)        -64.071                                          !
 ! D241  D(90,89,92,93)        176.3328                                         !
 ! D242  D(90,89,92,94)        -67.7569                                         !
 ! D243  D(90,89,92,95)         58.0431                                         !
 ! D244  D(91,89,92,93)        -68.4013                                         !
 ! D245  D(91,89,92,94)         47.5089                                         !
 ! D246  D(91,89,92,95)        173.3089                                         !
 ! D247  D(89,92,95,96)        -74.0013                                         !
 ! D248  D(89,92,95,97)        170.3009                                         !
 ! D249  D(93,92,95,96)        166.7572                                         !
 ! D250  D(93,92,95,97)         51.0594                                         !
 ! D251  D(94,92,95,96)         49.1087                                         !
 ! D252  D(94,92,95,97)        -66.5891                                         !
 --------------------------------------------------------------------------------
 Symmetry turned off by external request.
 Stoichiometry    C28H52N9O11(1+)
 Framework group  C1[X(C28H52N9O11)]
 Deg. of freedom   294
 Full point group                 C1      NOp   1
                          Input orientation:                          
 ---------------------------------------------------------------------
 Center     Atomic      Atomic             Coordinates (Angstroms)
 Number     Number       Type             X           Y           Z
 ---------------------------------------------------------------------
      1          7           0       -6.359204    4.347585   -1.787872
      2          1           0       -7.282457    4.360063   -2.211651
      3          1           0       -5.662757    4.138817   -2.498358
      4          6           0       -6.280860    3.388655   -0.701224
      5          1           0       -6.777688    3.816359    0.177530
      6          6           0       -4.786501    3.217761   -0.359699
      7          6           0       -6.955393    2.008483   -0.982279
      8          1           0       -7.816819    2.180265   -1.639597
      9          1           0       -6.276295    1.348982   -1.540546
     10          8           0       -3.906590    3.499265   -1.187677
     11          6           0       -7.428800    1.279756    0.276568
     12          7           0       -8.413087    0.366745    0.089842
     13          1           0       -8.774490   -0.122686    0.898039
     14          1           0       -8.878357    0.238715   -0.796279
     15          8           0       -6.952530    1.489637    1.394450
     16          7           0       -4.512555    2.745975    0.876341
     17          1           0       -5.300308    2.366470    1.409645
     18          6           0       -3.153222    2.689257    1.414687
     19          1           0       -2.626815    3.567579    1.023010
     20          6           0       -2.444109    1.445339    0.839435
     21          6           0       -3.131296    2.722953    2.957515
     22          1           0       -3.524048    1.758988    3.307119
     23          8           0       -2.280599    0.387775    1.472217
     24          6           0       -4.039721    3.831893    3.540829
     25          1           0       -3.973832    3.754944    4.633634
     26          1           0       -5.086318    3.617628    3.293790
     27          6           0       -1.683659    2.853015    3.464482
     28          1           0       -1.209631    3.772031    3.100502
     29          1           0       -1.673165    2.889775    4.558897
     30          1           0       -1.060144    2.006942    3.161772
     31          6           0       -3.709620    5.268682    3.116439
     32          1           0       -4.391673    5.971540    3.606141
     33          1           0       -2.690695    5.557960    3.395382
     34          1           0       -3.818195    5.414510    2.035337
     35          7           0       -2.010770    1.590176   -0.439755
     36          1           0       -2.382060    2.418440   -0.923477
     37          6           0       -1.650178    0.445406   -1.283469
     38          1           0       -2.292469   -0.401989   -1.000824
     39          6           0       -0.215880   -0.042802   -0.997605
     40          6           0       -1.874670    0.794581   -2.754756
     41          1           0       -1.682629   -0.068441   -3.395068
     42          1           0       -2.913063    1.109357   -2.888367
     43          1           0       -1.220629    1.610736   -3.074160
     44          8           0        0.547874   -0.146539   -2.036022
     45          7           0        0.065679   -0.317185    0.250175
     46          1           0       -0.740487   -0.142749    0.880853
     47          6           0        1.292309   -0.739804    0.945946
     48          1           0        1.873930    0.160423    1.177016
     49          6           0        2.086133   -1.716219    0.081725
     50          6           0        0.856004   -1.381071    2.299975
     51          1           0        0.256816   -2.269632    2.062602
     52          8           0        1.542533   -2.717145   -0.393800
     53          6           0        2.061743   -1.771575    3.145875
     54          1           0        2.688955   -2.514288    2.642885
     55          1           0        1.711631   -2.198084    4.089054
     56          1           0        2.669075   -0.890467    3.380377
     57          8           0        0.098070   -0.421413    3.022926
     58          1           0       -0.855688   -0.556863    2.898741
     59          7           0        3.369806   -1.369651   -0.141605
     60          1           0        3.797323   -0.538799    0.261771
     61          6           0        4.231741   -2.093858   -1.057305
     62          1           0        4.095184   -3.170258   -0.904260
     63          6           0        5.670457   -1.644190   -0.752929
     64          6           0        3.882239   -1.713434   -2.522226
     65          1           0        4.384669   -2.394218   -3.220045
     66          1           0        4.207865   -0.692193   -2.739396
     67          8           0        5.858475   -0.557783   -0.202305
     68          8           0        2.468362   -1.740960   -2.750883
     69          1           0        2.114948   -2.573967   -2.380970
     70          7           0        6.664182   -2.442029   -1.193495
     71          1           0        6.433724   -3.297342   -1.682249
     72          6           0        8.066000   -2.017521   -1.180335
     73          1           0        8.224347   -1.418661   -0.278854
     74          1           0        8.706745   -2.898449   -1.136608
     75          6           0        8.482630   -1.208254   -2.429212
     76          8           0        9.515312   -1.468732   -3.029396
     77          7           0        7.610106   -0.226315   -2.783058
     78          1           0        6.877277    0.048127   -2.138158
     79          6           0        7.822150    0.649089   -3.932026
     80          1           0        8.819035    1.101745   -3.882697
     81          6           0        6.768359    1.741457   -3.833415
     82          6           0        7.692285   -0.123420   -5.273690
     83          1           0        8.366292   -0.981847   -5.188612
     84          1           0        6.668685   -0.516601   -5.344414
     85          8           0        5.690090    1.607013   -3.283484
     86          6           0        8.045385    0.688505   -6.525330
     87          1           0        7.348739    1.519701   -6.669190
     88          1           0        9.040878    1.137048   -6.397273
     89          6           0        8.045727   -0.172571   -7.795153
     90          1           0        7.086761   -0.707486   -7.880700
     91          1           0        8.822096   -0.946649   -7.724654
     92          6           0        8.272733    0.642667   -9.074167
     93          1           0        9.194229    1.229104   -8.968027
     94          1           0        8.437813   -0.051363   -9.916715
     95          7           0        7.168747    1.587845   -9.295867
     96          1           0        6.345433    1.077469   -9.614751
     97          1           0        7.408760    2.227455  -10.051290
     98          8           0        7.145997    2.874010   -4.443641
     99          1           0        6.397425    3.498917   -4.387055
    100          1           0        1.406524   -0.690630   -2.056795
 ---------------------------------------------------------------------
 Rotational constants (GHZ):           0.0916979           0.0208716           0.0188747
 Standard basis: 6-31G(d) (6D, 7F)
   824 basis functions,  1552 primitive gaussians,   824 cartesian basis functions
   185 alpha electrons      185 beta electrons
       nuclear repulsion energy      6439.2962057143 Hartrees.
 NAtoms=  100 NActive=  100 NUniq=  100 SFac= 1.00D+00 NAtFMM=   60 NAOKFM=T Big=T
 Integral buffers will be    131072 words long.
 Raffenetti 2 integral format.
 Two-electron integral symmetry is turned off.
 One-electron integrals computed using PRISM.
 NBasis=   824 RedAO= T EigKep=  1.68D-03  NBF=   824
 NBsUse=   824 1.00D-06 EigRej= -1.00D+00 NBFU=   824
 Initial guess from the checkpoint file:  "conf-102.chk"
 B after Tr=     0.000000    0.000000    0.000000
         Rot=    1.000000    0.000000    0.000000    0.000000 Ang=   0.00 deg.
 Requested convergence on RMS density matrix=1.00D-08 within 128 cycles.
 Requested convergence on MAX density matrix=1.00D-06.
 Requested convergence on             energy=1.00D-06.
 No special actions if energy rises.
 SCF Done:  E(RB3LYP) =  -2418.42770873     A.U. after    2 cycles
            NFock=  2  Conv=0.82D-08     -V/T= 2.0093

 **********************************************************************

            Population analysis using the SCF Density.

 **********************************************************************

 Alpha  occ. eigenvalues --  -19.33511 -19.28973 -19.27892 -19.25168 -19.24384
 Alpha  occ. eigenvalues --  -19.24300 -19.23425 -19.22525 -19.21349 -19.21206
 Alpha  occ. eigenvalues --  -19.18867 -14.51917 -14.48794 -14.48046 -14.47115
 Alpha  occ. eigenvalues --  -14.45007 -14.44524 -14.43222 -14.38629 -14.36103
 Alpha  occ. eigenvalues --  -10.46374 -10.41794 -10.40717 -10.40396 -10.40383
 Alpha  occ. eigenvalues --  -10.38770 -10.37818 -10.36987 -10.36579 -10.36386
 Alpha  occ. eigenvalues --  -10.35978 -10.35902 -10.35760 -10.32634 -10.31854
 Alpha  occ. eigenvalues --  -10.31185 -10.31127 -10.29346 -10.29174 -10.27484
 Alpha  occ. eigenvalues --  -10.27346 -10.25502 -10.25245 -10.25181 -10.24762
 Alpha  occ. eigenvalues --  -10.23806 -10.23229 -10.23185  -1.23560  -1.18979
 Alpha  occ. eigenvalues --   -1.17128  -1.15874  -1.15413  -1.15082  -1.13023
 Alpha  occ. eigenvalues --   -1.12922  -1.12531  -1.10853  -1.09855  -1.09031
 Alpha  occ. eigenvalues --   -1.05185  -1.04058  -1.03786  -1.01394  -0.99803
 Alpha  occ. eigenvalues --   -0.99712  -0.96499  -0.92715  -0.92579  -0.89747
 Alpha  occ. eigenvalues --   -0.88682  -0.88076  -0.86554  -0.84652  -0.83458
 Alpha  occ. eigenvalues --   -0.82691  -0.81780  -0.80599  -0.79999  -0.78607
 Alpha  occ. eigenvalues --   -0.76881  -0.75805  -0.75349  -0.73891  -0.73281
 Alpha  occ. eigenvalues --   -0.71830  -0.71179  -0.70739  -0.70430  -0.69629
 Alpha  occ. eigenvalues --   -0.69342  -0.68309  -0.67825  -0.66821  -0.65749
 Alpha  occ. eigenvalues --   -0.65351  -0.64345  -0.63914  -0.63845  -0.63195
 Alpha  occ. eigenvalues --   -0.63016  -0.62927  -0.62649  -0.61421  -0.61357
 Alpha  occ. eigenvalues --   -0.60471  -0.60370  -0.59401  -0.58604  -0.57971
 Alpha  occ. eigenvalues --   -0.57583  -0.57425  -0.56988  -0.56809  -0.56056
 Alpha  occ. eigenvalues --   -0.55513  -0.55133  -0.54516  -0.54017  -0.53888
 Alpha  occ. eigenvalues --   -0.53528  -0.53366  -0.53223  -0.53100  -0.52951
 Alpha  occ. eigenvalues --   -0.52755  -0.52263  -0.52036  -0.51450  -0.51181
 Alpha  occ. eigenvalues --   -0.50913  -0.50755  -0.50486  -0.50378  -0.49993
 Alpha  occ. eigenvalues --   -0.49754  -0.49571  -0.49368  -0.49180  -0.49055
 Alpha  occ. eigenvalues --   -0.48795  -0.48593  -0.48398  -0.47941  -0.47668
 Alpha  occ. eigenvalues --   -0.47443  -0.46954  -0.46749  -0.46654  -0.46594
 Alpha  occ. eigenvalues --   -0.46009  -0.45458  -0.45392  -0.45092  -0.44574
 Alpha  occ. eigenvalues --   -0.43904  -0.43482  -0.43403  -0.42991  -0.42457
 Alpha  occ. eigenvalues --   -0.42248  -0.41096  -0.40509  -0.40075  -0.39747
 Alpha  occ. eigenvalues --   -0.39551  -0.39264  -0.39065  -0.38993  -0.38566
 Alpha  occ. eigenvalues --   -0.38216  -0.38080  -0.38022  -0.37770  -0.37169
 Alpha  occ. eigenvalues --   -0.37055  -0.36300  -0.36075  -0.35423  -0.34885
 Alpha  occ. eigenvalues --   -0.34185  -0.32825  -0.31855  -0.30604  -0.28276
 Alpha virt. eigenvalues --   -0.15138  -0.11741  -0.10398  -0.09810  -0.07516
 Alpha virt. eigenvalues --   -0.07326  -0.06531  -0.05312  -0.03548  -0.03330
 Alpha virt. eigenvalues --   -0.02054  -0.01241  -0.00955  -0.00360   0.00017
 Alpha virt. eigenvalues --    0.00383   0.01197   0.01965   0.02282   0.02615
 Alpha virt. eigenvalues --    0.02922   0.02977   0.03371   0.03557   0.03786
 Alpha virt. eigenvalues --    0.03950   0.04060   0.04355   0.04594   0.05170
 Alpha virt. eigenvalues --    0.05557   0.05741   0.06151   0.06331   0.06434
 Alpha virt. eigenvalues --    0.06684   0.07116   0.07315   0.07455   0.07717
 Alpha virt. eigenvalues --    0.08081   0.08148   0.08356   0.08429   0.08814
 Alpha virt. eigenvalues --    0.09001   0.09167   0.09220   0.09567   0.09900
 Alpha virt. eigenvalues --    0.10148   0.10245   0.10529   0.10551   0.10762
 Alpha virt. eigenvalues --    0.10875   0.11159   0.11688   0.11899   0.12209
 Alpha virt. eigenvalues --    0.12301   0.12916   0.13207   0.13393   0.13459
 Alpha virt. eigenvalues --    0.13885   0.14119   0.14416   0.14637   0.14728
 Alpha virt. eigenvalues --    0.14922   0.15055   0.15450   0.15721   0.16037
 Alpha virt. eigenvalues --    0.16138   0.16367   0.16606   0.17002   0.17192
 Alpha virt. eigenvalues --    0.17704   0.18216   0.18504   0.19372   0.19518
 Alpha virt. eigenvalues --    0.19678   0.20707   0.21382   0.22041   0.22665
 Alpha virt. eigenvalues --    0.22963   0.23482   0.23862   0.24897   0.25114
 Alpha virt. eigenvalues --    0.25739   0.26741   0.27412   0.28087   0.28564
 Alpha virt. eigenvalues --    0.29812   0.30313   0.30984   0.32006   0.33058
 Alpha virt. eigenvalues --    0.33905   0.35186   0.36165   0.38882   0.39115
 Alpha virt. eigenvalues --    0.39511   0.39794   0.40598   0.41485   0.42037
 Alpha virt. eigenvalues --    0.42696   0.43238   0.43545   0.43826   0.44190
 Alpha virt. eigenvalues --    0.44336   0.44569   0.44686   0.44770   0.45095
 Alpha virt. eigenvalues --    0.45316   0.45991   0.46574   0.46819   0.46910
 Alpha virt. eigenvalues --    0.47076   0.47805   0.48320   0.48482   0.48707
 Alpha virt. eigenvalues --    0.49129   0.49749   0.50356   0.50641   0.50823
 Alpha virt. eigenvalues --    0.50967   0.51253   0.51332   0.52066   0.52876
 Alpha virt. eigenvalues --    0.53060   0.53194   0.53528   0.54107   0.54459
 Alpha virt. eigenvalues --    0.54643   0.55133   0.55970   0.56284   0.56680
 Alpha virt. eigenvalues --    0.56743   0.57389   0.57521   0.57798   0.58028
 Alpha virt. eigenvalues --    0.58721   0.58788   0.58822   0.59977   0.60364
 Alpha virt. eigenvalues --    0.60442   0.60807   0.61011   0.61830   0.61889
 Alpha virt. eigenvalues --    0.62663   0.62691   0.63036   0.63365   0.63815
 Alpha virt. eigenvalues --    0.64453   0.64819   0.65449   0.65606   0.65824
 Alpha virt. eigenvalues --    0.66209   0.66632   0.67070   0.67193   0.67697
 Alpha virt. eigenvalues --    0.68026   0.68375   0.68739   0.69602   0.70370
 Alpha virt. eigenvalues --    0.70555   0.71067   0.71176   0.71869   0.72229
 Alpha virt. eigenvalues --    0.72360   0.72640   0.72867   0.73370   0.73562
 Alpha virt. eigenvalues --    0.74394   0.74475   0.74939   0.75056   0.75610
 Alpha virt. eigenvalues --    0.75818   0.76131   0.76431   0.76602   0.77060
 Alpha virt. eigenvalues --    0.77305   0.77489   0.77809   0.78089   0.78462
 Alpha virt. eigenvalues --    0.78539   0.78991   0.79174   0.79506   0.79591
 Alpha virt. eigenvalues --    0.79849   0.80454   0.80739   0.80802   0.81125
 Alpha virt. eigenvalues --    0.81149   0.81465   0.81631   0.81822   0.82166
 Alpha virt. eigenvalues --    0.82563   0.82829   0.82940   0.83020   0.83719
 Alpha virt. eigenvalues --    0.84133   0.84208   0.84601   0.84714   0.85071
 Alpha virt. eigenvalues --    0.85321   0.85487   0.85612   0.85875   0.86226
 Alpha virt. eigenvalues --    0.86490   0.86690   0.87510   0.87747   0.88301
 Alpha virt. eigenvalues --    0.88558   0.88705   0.88977   0.89322   0.89480
 Alpha virt. eigenvalues --    0.89881   0.90368   0.90619   0.90894   0.91045
 Alpha virt. eigenvalues --    0.91829   0.91982   0.92146   0.92400   0.93005
 Alpha virt. eigenvalues --    0.93643   0.94283   0.95004   0.95213   0.95503
 Alpha virt. eigenvalues --    0.95988   0.96442   0.96774   0.96928   0.98049
 Alpha virt. eigenvalues --    0.98884   0.99207   0.99792   1.00278   1.00914
 Alpha virt. eigenvalues --    1.01056   1.01466   1.02219   1.02987   1.03276
 Alpha virt. eigenvalues --    1.03553   1.04284   1.04934   1.05167   1.06289
 Alpha virt. eigenvalues --    1.06516   1.07395   1.08241   1.08597   1.09519
 Alpha virt. eigenvalues --    1.10855   1.11462   1.12504   1.12974   1.13925
 Alpha virt. eigenvalues --    1.14197   1.14638   1.14728   1.16098   1.17866
 Alpha virt. eigenvalues --    1.18482   1.18778   1.19836   1.20296   1.21041
 Alpha virt. eigenvalues --    1.21456   1.21929   1.22701   1.23489   1.24587
 Alpha virt. eigenvalues --    1.25255   1.25666   1.25885   1.26838   1.27380
 Alpha virt. eigenvalues --    1.27930   1.28127   1.29066   1.29348   1.30286
 Alpha virt. eigenvalues --    1.30541   1.30894   1.31602   1.32339   1.32551
 Alpha virt. eigenvalues --    1.32868   1.33911   1.34283   1.34699   1.35997
 Alpha virt. eigenvalues --    1.36952   1.37956   1.38016   1.38465   1.39726
 Alpha virt. eigenvalues --    1.40458   1.40855   1.41458   1.42074   1.43247
 Alpha virt. eigenvalues --    1.43556   1.44281   1.45083   1.45714   1.46020
 Alpha virt. eigenvalues --    1.46754   1.49115   1.49407   1.50756   1.51248
 Alpha virt. eigenvalues --    1.51773   1.52146   1.53169   1.54220   1.55014
 Alpha virt. eigenvalues --    1.55254   1.55716   1.55893   1.56226   1.56652
 Alpha virt. eigenvalues --    1.57317   1.57833   1.58659   1.59033   1.59560
 Alpha virt. eigenvalues --    1.60606   1.60724   1.61004   1.62413   1.62603
 Alpha virt. eigenvalues --    1.62733   1.63070   1.64760   1.65163   1.65298
 Alpha virt. eigenvalues --    1.65634   1.66135   1.66700   1.67608   1.67921
 Alpha virt. eigenvalues --    1.68341   1.68546   1.68711   1.68935   1.69202
 Alpha virt. eigenvalues --    1.69914   1.70587   1.71219   1.72048   1.72225
 Alpha virt. eigenvalues --    1.72384   1.72611   1.73248   1.73697   1.74504
 Alpha virt. eigenvalues --    1.74824   1.75140   1.75278   1.75655   1.75974
 Alpha virt. eigenvalues --    1.76661   1.77415   1.77748   1.78523   1.78736
 Alpha virt. eigenvalues --    1.79639   1.79937   1.80465   1.80932   1.81291
 Alpha virt. eigenvalues --    1.81423   1.81612   1.82106   1.82473   1.82698
 Alpha virt. eigenvalues --    1.83886   1.84187   1.84254   1.85097   1.85405
 Alpha virt. eigenvalues --    1.85453   1.86734   1.87653   1.88069   1.88243
 Alpha virt. eigenvalues --    1.88449   1.88569   1.88809   1.89257   1.89608
 Alpha virt. eigenvalues --    1.90369   1.90949   1.91426   1.91507   1.91624
 Alpha virt. eigenvalues --    1.92076   1.92922   1.93496   1.93682   1.94080
 Alpha virt. eigenvalues --    1.94384   1.94908   1.95484   1.96248   1.96943
 Alpha virt. eigenvalues --    1.97532   1.97687   1.98118   1.99210   1.99964
 Alpha virt. eigenvalues --    2.00332   2.00605   2.00856   2.00999   2.01778
 Alpha virt. eigenvalues --    2.02494   2.02809   2.02985   2.03199   2.04115
 Alpha virt. eigenvalues --    2.04815   2.05526   2.06642   2.06781   2.07146
 Alpha virt. eigenvalues --    2.08551   2.09028   2.09160   2.09261   2.10001
 Alpha virt. eigenvalues --    2.10875   2.11208   2.12390   2.13224   2.14399
 Alpha virt. eigenvalues --    2.15170   2.15633   2.15999   2.17878   2.18131
 Alpha virt. eigenvalues --    2.18757   2.19815   2.20558   2.20584   2.21600
 Alpha virt. eigenvalues --    2.22138   2.22887   2.23486   2.23846   2.24414
 Alpha virt. eigenvalues --    2.25049   2.25358   2.25822   2.26074   2.26751
 Alpha virt. eigenvalues --    2.28240   2.28388   2.28784   2.29662   2.29960
 Alpha virt. eigenvalues --    2.30264   2.31583   2.31743   2.32859   2.33324
 Alpha virt. eigenvalues --    2.33907   2.34763   2.35188   2.35602   2.36173
 Alpha virt. eigenvalues --    2.36608   2.36842   2.37318   2.38693   2.38858
 Alpha virt. eigenvalues --    2.39980   2.40749   2.41080   2.41649   2.42008
 Alpha virt. eigenvalues --    2.42827   2.43268   2.44639   2.45404   2.45928
 Alpha virt. eigenvalues --    2.47909   2.49281   2.49606   2.50165   2.50764
 Alpha virt. eigenvalues --    2.51762   2.51910   2.52100   2.53539   2.53606
 Alpha virt. eigenvalues --    2.54384   2.54829   2.55721   2.56649   2.57358
 Alpha virt. eigenvalues --    2.57998   2.58499   2.59183   2.60336   2.60931
 Alpha virt. eigenvalues --    2.61459   2.63509   2.63821   2.64191   2.64676
 Alpha virt. eigenvalues --    2.66721   2.66859   2.67200   2.68800   2.69006
 Alpha virt. eigenvalues --    2.70433   2.71375   2.73831   2.74905   2.76420
 Alpha virt. eigenvalues --    2.76809   2.77283   2.78132   2.79172   2.79391
 Alpha virt. eigenvalues --    2.80958   2.82767   2.85593   2.86011   2.86790
 Alpha virt. eigenvalues --    2.88972   2.89500   2.91592   2.92115   2.93073
 Alpha virt. eigenvalues --    2.93769   2.94422   2.96237   2.98570   3.01680
 Alpha virt. eigenvalues --    3.03292   3.03384   3.06707   3.08529   3.10053
 Alpha virt. eigenvalues --    3.11606   3.70391   3.70666   3.73980   3.74867
 Alpha virt. eigenvalues --    3.79559   3.81414   3.86613   3.88062   3.91514
 Alpha virt. eigenvalues --    3.95012   3.96734   3.97525   4.00465   4.01206
 Alpha virt. eigenvalues --    4.02801   4.03520   4.07404   4.08819   4.09334
 Alpha virt. eigenvalues --    4.11320   4.13053   4.13930   4.17140   4.18281
 Alpha virt. eigenvalues --    4.19027   4.19714   4.21563   4.21837   4.24090
 Alpha virt. eigenvalues --    4.28925   4.29352   4.29972   4.33634   4.37290
 Alpha virt. eigenvalues --    4.37700   4.38421   4.39335   4.42961   4.46359
 Alpha virt. eigenvalues --    4.47044   4.48299   4.49438   4.51384   4.53064
 Alpha virt. eigenvalues --    4.54082   4.61079   4.61738   4.65357
          Condensed to atoms (all electrons):
 Mulliken charges:
               1
     1  N   -0.712043
     2  H    0.303829
     3  H    0.319901
     4  C   -0.048967
     5  H    0.181588
     6  C    0.611829
     7  C   -0.396293
     8  H    0.163302
     9  H    0.177682
    10  O   -0.559592
    11  C    0.619571
    12  N   -0.737122
    13  H    0.360948
    14  H    0.352394
    15  O   -0.525929
    16  N   -0.632024
    17  H    0.404856
    18  C   -0.044905
    19  H    0.184372
    20  C    0.634514
    21  C   -0.103914
    22  H    0.152751
    23  O   -0.573255
    24  C   -0.265977
    25  H    0.150055
    26  H    0.145893
    27  C   -0.481220
    28  H    0.150703
    29  H    0.164778
    30  H    0.158727
    31  C   -0.461184
    32  H    0.162859
    33  H    0.153447
    34  H    0.152263
    35  N   -0.614683
    36  H    0.403246
    37  C   -0.075219
    38  H    0.210716
    39  C    0.655294
    40  C   -0.472605
    41  H    0.186457
    42  H    0.184343
    43  H    0.189311
    44  O   -0.580191
    45  N   -0.611334
    46  H    0.421070
    47  C   -0.008393
    48  H    0.191360
    49  C    0.582144
    50  C    0.086306
    51  H    0.170676
    52  O   -0.550152
    53  C   -0.462920
    54  H    0.162232
    55  H    0.191201
    56  H    0.170115
    57  O   -0.622610
    58  H    0.434286
    59  N   -0.598442
    60  H    0.373544
    61  C   -0.103787
    62  H    0.191901
    63  C    0.619502
    64  C   -0.039805
    65  H    0.168010
    66  H    0.211749
    67  O   -0.530634
    68  O   -0.640689
    69  H    0.436830
    70  N   -0.583427
    71  H    0.349432
    72  C   -0.254282
    73  H    0.219893
    74  H    0.202318
    75  C    0.601814
    76  O   -0.494373
    77  N   -0.647400
    78  H    0.370499
    79  C    0.009651
    80  H    0.193815
    81  C    0.568482
    82  C   -0.282169
    83  H    0.184721
    84  H    0.128707
    85  O   -0.486291
    86  C   -0.260424
    87  H    0.170151
    88  H    0.140287
    89  C   -0.253716
    90  H    0.120153
    91  H    0.138688
    92  C   -0.144762
    93  H    0.144963
    94  H    0.123738
    95  N   -0.716923
    96  H    0.292404
    97  H    0.303867
    98  O   -0.542198
    99  H    0.421611
   100  H    0.488100
 Sum of Mulliken charges =   1.00000
 Mulliken charges with hydrogens summed into heavy atoms:
               1
     1  N   -0.088313
     4  C    0.132621
     6  C    0.611829
     7  C   -0.055309
    10  O   -0.559592
    11  C    0.619571
    12  N   -0.023780
    15  O   -0.525929
    16  N   -0.227167
    18  C    0.139468
    20  C    0.634514
    21  C    0.048837
    23  O   -0.573255
    24  C    0.029971
    27  C   -0.007012
    31  C    0.007385
    35  N   -0.211436
    37  C    0.135497
    39  C    0.655294
    40  C    0.087506
    44  O   -0.092091
    45  N   -0.190264
    47  C    0.182966
    49  C    0.582144
    50  C    0.256982
    52  O   -0.550152
    53  C    0.060628
    57  O   -0.188324
    59  N   -0.224898
    61  C    0.088114
    63  C    0.619502
    64  C    0.339954
    67  O   -0.530634
    68  O   -0.203859
    70  N   -0.233995
    72  C    0.167930
    75  C    0.601814
    76  O   -0.494373
    77  N   -0.276901
    79  C    0.203466
    81  C    0.568482
    82  C    0.031258
    85  O   -0.486291
    86  C    0.050014
    89  C    0.005126
    92  C    0.123940
    95  N   -0.120651
    98  O   -0.120587
 Electronic spatial extent (au):  <R**2>=          59991.2346
 Charge=              1.0000 electrons
 Dipole moment (field-independent basis, Debye):
    X=             -2.8624    Y=             -2.6481    Z=             -7.2217  Tot=              8.2072
 Quadrupole moment (field-independent basis, Debye-Ang):
   XX=           -143.8872   YY=           -264.3524   ZZ=           -221.7348
   XY=            -18.9140   XZ=            -17.2707   YZ=             -0.7170
 Traceless Quadrupole moment (field-independent basis, Debye-Ang):
   XX=             66.1043   YY=            -54.3610   ZZ=            -11.7433
   XY=            -18.9140   XZ=            -17.2707   YZ=             -0.7170
 Octapole moment (field-independent basis, Debye-Ang**2):
  XXX=          -1883.8991  YYY=           -585.7813  ZZZ=            502.6249  XYY=           -210.5060
  XXY=           -165.8500  XXZ=             21.3198  XZZ=            -64.9173  YZZ=           -109.7959
  YYZ=            322.9172  XYZ=            -34.8531
 Hexadecapole moment (field-independent basis, Debye-Ang**3):
 XXXX=         -43442.8646 YYYY=          -7936.7302 ZZZZ=         -13900.5781 XXXY=           4231.8089
 XXXZ=          10337.1784 YYYX=           4386.8729 YYYZ=             10.2087 ZZZX=           6413.1036
 ZZZY=           -761.0409 XXYY=          -8954.8135 XXZZ=          -9008.8664 YYZZ=          -4183.4317
 XXYZ=           -749.2933 YYXZ=           2932.8114 ZZXY=           1717.2841
 N-N= 6.439296205714D+03 E-N=-1.848682761025D+04  KE= 2.396202223982D+03
 Unable to Open any file for archive entry.
 1\1\GINC-AMR-134\SP\RB3LYP\6-31G(d)\C28H52N9O11(1+)\KENGMITH\27-May-20
 22\0\\# B3LYP/6-31G* guess=read geom=check nosymm integral(ultrafinegr
 id)\\Candidate Structure: Conf:102 Charge calc in gas phase\\1,1\N,0,-
 6.359204389,4.3475846755,-1.7878718696\H,0,-7.2824567144,4.3600634397,
 -2.2116510784\H,0,-5.662756887,4.1388173954,-2.4983582525\C,0,-6.28085
 95215,3.3886546236,-0.7012240001\H,0,-6.777687812,3.8163589303,0.17752
 97903\C,0,-4.7865014253,3.2177613175,-0.359699487\C,0,-6.9553932711,2.
 0084830743,-0.982279496\H,0,-7.816819133,2.1802653961,-1.6395969295\H,
 0,-6.2762954788,1.3489821814,-1.540546436\O,0,-3.9065898457,3.49926508
 05,-1.187676625\C,0,-7.4287999668,1.279755779,0.2765684994\N,0,-8.4130
 87385,0.366745298,0.0898422123\H,0,-8.7744899431,-0.1226855113,0.89803
 90987\H,0,-8.878356947,0.2387154013,-0.7962787147\O,0,-6.952529642,1.4
 896367912,1.3944500398\N,0,-4.5125549267,2.7459754528,0.8763407967\H,0
 ,-5.3003078666,2.3664696998,1.4096454161\C,0,-3.153221847,2.6892568168
 ,1.4146870059\H,0,-2.6268154449,3.5675788629,1.0230095481\C,0,-2.44410
 91717,1.4453389867,0.8394354949\C,0,-3.1312961557,2.7229530818,2.95751
 46042\H,0,-3.524048407,1.758987946,3.3071191957\O,0,-2.2805994929,0.38
 77749237,1.4722171646\C,0,-4.0397205522,3.8318931612,3.5408293351\H,0,
 -3.9738318223,3.7549443468,4.6336340418\H,0,-5.0863175842,3.6176277901
 ,3.2937903658\C,0,-1.6836586202,2.8530149701,3.4644817565\H,0,-1.20963
 09585,3.7720306161,3.1005024446\H,0,-1.6731645524,2.889775104,4.558896
 5173\H,0,-1.0601440198,2.0069416807,3.1617716127\C,0,-3.7096203686,5.2
 686818946,3.1164390157\H,0,-4.3916732386,5.9715400782,3.6061411376\H,0
 ,-2.6906953548,5.5579599003,3.3953821628\H,0,-3.8181950611,5.414510298
 3,2.0353366845\N,0,-2.010770474,1.590176179,-0.4397546315\H,0,-2.38206
 02137,2.4184396986,-0.9234772342\C,0,-1.6501782926,0.4454062358,-1.283
 4686887\H,0,-2.292469249,-0.4019890272,-1.0008237165\C,0,-0.2158796499
 ,-0.0428015448,-0.9976046519\C,0,-1.8746699717,0.7945805426,-2.7547556
 525\H,0,-1.6826289129,-0.0684408987,-3.3950681638\H,0,-2.9130631874,1.
 1093567873,-2.8883674261\H,0,-1.2206293754,1.6107360083,-3.0741604359\
 O,0,0.5478741148,-0.1465392687,-2.0360215624\N,0,0.0656788785,-0.31718
 46074,0.2501753051\H,0,-0.7404873292,-0.1427492258,0.8808531982\C,0,1.
 2923094161,-0.739803525,0.9459455417\H,0,1.8739299452,0.1604227187,1.1
 770158588\C,0,2.0861332485,-1.7162187316,0.0817251326\C,0,0.8560040225
 ,-1.3810708976,2.2999751242\H,0,0.2568159854,-2.2696317785,2.062602246
 9\O,0,1.5425334671,-2.7171449763,-0.3937995176\C,0,2.061742748,-1.7715
 751159,3.145874872\H,0,2.6889550048,-2.5142884499,2.6428845003\H,0,1.7
 116308387,-2.1980841841,4.0890541972\H,0,2.6690746142,-0.8904670721,3.
 3803768503\O,0,0.0980698634,-0.4214127162,3.0229257944\H,0,-0.85568846
 84,-0.5568633118,2.8987413075\N,0,3.3698059995,-1.3696508979,-0.141604
 6756\H,0,3.7973234705,-0.5387990795,0.2617711279\C,0,4.2317414764,-2.0
 938583877,-1.0573052291\H,0,4.0951842165,-3.1702582979,-0.9042600731\C
 ,0,5.6704566071,-1.6441897308,-0.7529285484\C,0,3.8822390913,-1.713433
 792,-2.5222263527\H,0,4.3846690369,-2.3942182627,-3.2200450738\H,0,4.2
 078650651,-0.6921928226,-2.7393964691\O,0,5.8584749109,-0.5577828807,-
 0.2023045037\O,0,2.4683621827,-1.7409598993,-2.7508829898\H,0,2.114948
 3482,-2.5739672073,-2.3809703497\N,0,6.6641820772,-2.4420290223,-1.193
 494752\H,0,6.4337241432,-3.2973417249,-1.6822491694\C,0,8.0659998878,-
 2.0175207183,-1.1803350545\H,0,8.2243471131,-1.4186610729,-0.278854342
 2\H,0,8.7067449868,-2.8984490362,-1.1366080717\C,0,8.482630116,-1.2082
 541192,-2.4292116807\O,0,9.5153115475,-1.4687317092,-3.0293960144\N,0,
 7.6101063415,-0.2263148481,-2.7830580126\H,0,6.8772768445,0.0481272091
 ,-2.1381580246\C,0,7.8221495717,0.649089218,-3.9320259173\H,0,8.819035
 2096,1.1017452851,-3.8826970107\C,0,6.7683590077,1.7414568144,-3.83341
 47693\C,0,7.6922854902,-0.1234203631,-5.2736903065\H,0,8.3662917443,-0
 .9818467248,-5.1886120045\H,0,6.6686850048,-0.5166008342,-5.3444139401
 \O,0,5.6900899787,1.6070134215,-3.2834841541\C,0,8.0453848268,0.688504
 5243,-6.5253299602\H,0,7.3487388759,1.5197009186,-6.6691895871\H,0,9.0
 408775791,1.1370482103,-6.3972734195\C,0,8.04572666,-0.1725709803,-7.7
 951531321\H,0,7.0867612562,-0.7074864592,-7.8807003034\H,0,8.822096260
 5,-0.9466488759,-7.7246537329\C,0,8.272732716,0.6426666727,-9.07416684
 5\H,0,9.1942289818,1.2291036414,-8.9680268634\H,0,8.4378128441,-0.0513
 629865,-9.9167147021\N,0,7.1687474245,1.5878446623,-9.2958672835\H,0,6
 .3454328127,1.0774688226,-9.6147512463\H,0,7.4087596258,2.2274550736,-
 10.0512903637\O,0,7.1459969319,2.8740101783,-4.4436412634\H,0,6.397424
 8692,3.4989171055,-4.3870551658\H,0,1.4065239289,-0.6906303459,-2.0567
 946506\\Version=ES64L-G16RevC.01\HF=-2418.4277087\RMSD=8.185e-09\Dipol
 e=-3.433045,-2.1855214,-0.6039103\Quadrupole=49.146924,-40.4160358,-8.
 7308882,-14.0620913,-12.840311,-0.533081\PG=C01 [X(C28H52N9O11)]\\@
 The archive entry for this job was punched.


 BE LIKE A POSTAGE STAMP.  STICK TO ONE THING UNTIL
 YOU GET THERE -- JOSH BILLINGS
 Job cpu time:       0 days  0 hours  3 minutes  7.0 seconds.
 Elapsed time:       0 days  0 hours  0 minutes 47.3 seconds.
 File lengths (MBytes):  RWF=    472 Int=      0 D2E=      0 Chk=     72 Scr=     16
 Normal termination of Gaussian 16 at Fri May 27 02:50:11 2022.
