 Entering Gaussian System, Link 0=/opt/software/Gaussian/g16-AVX2-C.01/g16/g16
 Input=charge-conf-962.com
 Output=charge-conf-962.log
 Initial command:
 /opt/software/Gaussian/g16-AVX2-C.01/g16/l1.exe "/mnt/gs18/scratch/users/kengmith/Gau-83213.inp" -scrdir="/mnt/gs18/scratch/users/kengmith/"
 Entering Link 1 = /opt/software/Gaussian/g16-AVX2-C.01/g16/l1.exe PID=     83246.
  
 Copyright (c) 1988-2019, Gaussian, Inc.  All Rights Reserved.
  
 This is part of the Gaussian(R) 16 program.  It is based on
 the Gaussian(R) 09 system (copyright 2009, Gaussian, Inc.),
 the Gaussian(R) 03 system (copyright 2003, Gaussian, Inc.),
 the Gaussian(R) 98 system (copyright 1998, Gaussian, Inc.),
 the Gaussian(R) 94 system (copyright 1995, Gaussian, Inc.),
 the Gaussian 92(TM) system (copyright 1992, Gaussian, Inc.),
 the Gaussian 90(TM) system (copyright 1990, Gaussian, Inc.),
 the Gaussian 88(TM) system (copyright 1988, Gaussian, Inc.),
 the Gaussian 86(TM) system (copyright 1986, Carnegie Mellon
 University), and the Gaussian 82(TM) system (copyright 1983,
 Carnegie Mellon University). Gaussian is a federally registered
 trademark of Gaussian, Inc.
  
 This software contains proprietary and confidential information,
 including trade secrets, belonging to Gaussian, Inc.
  
 This software is provided under written license and may be
 used, copied, transmitted, or stored only in accord with that
 written license.
  
 The following legend is applicable only to US Government
 contracts under FAR:
  
                    RESTRICTED RIGHTS LEGEND
  
 Use, reproduction and disclosure by the US Government is
 subject to restrictions as set forth in subparagraphs (a)
 and (c) of the Commercial Computer Software - Restricted
 Rights clause in FAR 52.227-19.
  
 Gaussian, Inc.
 340 Quinnipiac St., Bldg. 40, Wallingford CT 06492
  
  
 ---------------------------------------------------------------
 Warning -- This program may not be used in any manner that
 competes with the business of Gaussian, Inc. or will provide
 assistance to any competitor of Gaussian, Inc.  The licensee
 of this program is prohibited from giving any competitor of
 Gaussian, Inc. access to this program.  By using this program,
 the user acknowledges that Gaussian, Inc. is engaged in the
 business of creating and licensing software in the field of
 computational chemistry and represents and warrants to the
 licensee that it is not a competitor of Gaussian, Inc. and that
 it will not use this program in any manner prohibited above.
 ---------------------------------------------------------------
  

 Cite this work as:
 Gaussian 16, Revision C.01,
 M. J. Frisch, G. W. Trucks, H. B. Schlegel, G. E. Scuseria, 
 M. A. Robb, J. R. Cheeseman, G. Scalmani, V. Barone, 
 G. A. Petersson, H. Nakatsuji, X. Li, M. Caricato, A. V. Marenich, 
 J. Bloino, B. G. Janesko, R. Gomperts, B. Mennucci, H. P. Hratchian, 
 J. V. Ortiz, A. F. Izmaylov, J. L. Sonnenberg, D. Williams-Young, 
 F. Ding, F. Lipparini, F. Egidi, J. Goings, B. Peng, A. Petrone, 
 T. Henderson, D. Ranasinghe, V. G. Zakrzewski, J. Gao, N. Rega, 
 G. Zheng, W. Liang, M. Hada, M. Ehara, K. Toyota, R. Fukuda, 
 J. Hasegawa, M. Ishida, T. Nakajima, Y. Honda, O. Kitao, H. Nakai, 
 T. Vreven, K. Throssell, J. A. Montgomery, Jr., J. E. Peralta, 
 F. Ogliaro, M. J. Bearpark, J. J. Heyd, E. N. Brothers, K. N. Kudin, 
 V. N. Staroverov, T. A. Keith, R. Kobayashi, J. Normand, 
 K. Raghavachari, A. P. Rendell, J. C. Burant, S. S. Iyengar, 
 J. Tomasi, M. Cossi, J. M. Millam, M. Klene, C. Adamo, R. Cammi, 
 J. W. Ochterski, R. L. Martin, K. Morokuma, O. Farkas, 
 J. B. Foresman, and D. J. Fox, Gaussian, Inc., Wallingford CT, 2019.
 
 ******************************************
 Gaussian 16:  ES64L-G16RevC.01  3-Jul-2019
                27-May-2022 
 ******************************************
 %mem=8gb
 %nproc=4
 Will use up to    4 processors via shared memory.
 %chk=conf-962.chk
 -------------------------------------------------------------------
 # B3LYP/6-31G* guess=read geom=check nosymm integral(ultrafinegrid)
 -------------------------------------------------------------------
 1/29=2,38=1,172=1/1;
 2/12=2,15=1,40=1/2;
 3/5=1,6=6,7=1,11=2,14=-4,25=1,30=1,74=-5,75=-5,116=-2/1,2,3;
 4/5=1/1;
 5/5=2,38=6/2;
 6/7=2,8=2,9=2,10=2,28=1/1;
 99/5=1,9=1/99;
 ------------------------------------------------------
 Candidate Structure: Conf:962 Charge calc in gas phase
 ------------------------------------------------------
 Structure from the checkpoint file:  "conf-962.chk"
 Charge =  1 Multiplicity = 1
 Redundant internal coordinates found in file.  (old form).
 N,0,-2.445116177,3.7030838145,-0.6681866497
 H,0,-2.3874484724,3.4149141749,-1.6407921693
 H,0,-2.7706330139,4.6670255516,-0.6568725672
 C,0,-1.149085315,3.5656818604,-0.0056165541
 H,0,-0.5088943911,2.8941143335,-0.5962950907
 C,0,-1.3421039425,2.8683793074,1.3302075047
 C,0,-0.3428211213,4.8716478951,0.120159921
 H,0,-0.998549397,5.7032019405,0.4074930904
 H,0,0.4177861717,4.7906612321,0.9063611927
 O,0,-0.3337636539,2.6123534566,2.1184240403
 C,0,0.3963587468,5.1433147882,-1.210629747
 N,0,0.6343283328,6.4303179201,-1.4998603093
 H,0,1.1757492184,6.7116809175,-2.3555315574
 H,0,0.3316011333,7.1581920185,-0.8675198056
 O,0,0.7462559626,4.190141389,-1.9135173403
 N,0,-2.5351431005,2.481369261,1.6811527013
 H,0,-3.2387905558,2.7066718845,0.9691712266
 C,0,-2.8840768437,1.6403218482,2.8478318657
 H,0,-2.0841522508,1.795233592,3.5760199063
 C,0,-2.8390363234,0.1385884389,2.4044613184
 C,0,-4.2192702612,2.1158914668,3.4679521308
 H,0,-4.0391885228,3.1676193733,3.738412037
 O,0,-3.8282975326,-0.578672357,2.3923737311
 C,0,-4.5484138724,1.3621623222,4.7765819563
 H,0,-4.7639520327,0.3145410241,4.5446140536
 H,0,-5.4815782733,1.7927244473,5.1601291881
 C,0,-5.4090441078,2.0744706804,2.4927794813
 H,0,-5.6276480561,1.0517235559,2.1797460845
 H,0,-6.2972701431,2.4821922284,2.9860617025
 H,0,-5.2484838124,2.6867759398,1.5951230492
 C,0,-3.4785866715,1.4534330316,5.8718391971
 H,0,-3.8485389626,1.0098701884,6.8017161138
 H,0,-2.5590354159,0.9153697331,5.610303271
 H,0,-3.2094335819,2.494848505,6.0891315193
 N,0,-1.5984731874,-0.2586312146,2.0097158178
 H,0,-0.7892133812,0.3142178306,2.2270413117
 C,0,-1.2640431011,-1.5839937986,1.4930882591
 H,0,-1.4106513541,-2.3357622167,2.2838689961
 C,0,0.2458813639,-1.5206888213,1.168645431
 C,0,-2.1176604936,-1.9751508427,0.2750859266
 H,0,-1.9138548738,-3.0045737462,-0.0360809012
 H,0,-3.172952791,-1.9132007447,0.5430808465
 H,0,-1.9201118127,-1.3103551394,-0.5716787609
 O,0,0.9436190599,-0.5857111172,1.6037968147
 N,0,0.7547365831,-2.4911028416,0.3959844256
 H,0,0.2103474235,-3.3169876016,0.1705601092
 C,0,2.1513938167,-2.5353818483,-0.0452792245
 H,0,2.8063963387,-2.4736752435,0.8343432798
 C,0,2.4050190208,-1.3423621223,-0.9987646648
 C,0,2.3740559029,-3.8730328146,-0.8031809795
 H,0,1.9119974965,-3.756392783,-1.7874142771
 O,0,1.9934039508,-1.3518757695,-2.1565583568
 C,0,3.85404089,-4.20118329,-0.9596862733
 H,0,4.3855666965,-3.4026769091,-1.4887066063
 H,0,3.9704695624,-5.1246248958,-1.5333183691
 H,0,4.3358169663,-4.3373778981,0.017903872
 O,0,1.6428240283,-4.9255164816,-0.1800611711
 H,0,2.1437772225,-5.2420331682,0.5902553691
 N,0,3.0615106593,-0.2754794023,-0.4706278318
 H,0,3.3684920008,-0.3297177778,0.4923509991
 C,0,2.9933209293,1.0465276885,-1.1032746069
 H,0,2.0962641014,1.0379078951,-1.7332723115
 C,0,4.1909098524,1.3525664913,-2.019232923
 C,0,2.8179753399,2.127904083,-0.0383774386
 H,0,2.7245166082,3.0975530152,-0.5245281668
 H,0,3.6738793599,2.1561194998,0.6470885596
 O,0,4.9262525523,2.320096604,-1.8092125528
 O,0,1.5967553298,1.897213213,0.6825985156
 H,0,1.5236525405,0.9550197531,0.9591535148
 N,0,4.32326788,0.5102161341,-3.0678364531
 H,0,3.5977988513,-0.1866417266,-3.2150403909
 C,0,5.3472775812,0.7041959405,-4.0940543918
 H,0,6.2709623743,1.019876166,-3.5998234647
 H,0,5.5154754275,-0.242289932,-4.6080265205
 C,0,4.920915584,1.7398212216,-5.1540825768
 O,0,4.6685003296,1.4188437662,-6.3056614199
 N,0,4.8338167566,3.0169900644,-4.6738424759
 H,0,4.986029998,3.1613078287,-3.6782168156
 C,0,4.2499496664,4.0878386675,-5.471831311
 H,0,4.2998194235,3.7371557687,-6.5085237598
 C,0,5.1385297314,5.3291066435,-5.353862569
 C,0,2.7967324358,4.3940661102,-5.0811865988
 H,0,2.2669253607,3.4381438887,-5.0016465671
 H,0,2.7770092897,4.8352973667,-4.079416634
 O,0,4.8164342583,6.3795124446,-4.8293814191
 C,0,2.0683733836,5.2931829582,-6.0998950253
 H,0,2.754665797,6.0548413969,-6.4927404724
 H,0,1.7842571307,4.6757330539,-6.9607178946
 C,0,0.8176947225,6.0000049742,-5.5304575456
 H,0,0.3750615043,5.3895464795,-4.7321457784
 H,0,0.0590219766,6.0868454177,-6.3181269254
 C,0,1.0788115801,7.4186846536,-5.0101165735
 H,0,1.4699764049,8.0311028367,-5.8384620781
 H,0,0.1270660155,7.8709060427,-4.7043617511
 N,0,1.9800187519,7.4477744385,-3.8365817623
 H,0,2.1660954915,8.4217441639,-3.5931479298
 H,0,2.89195074,7.0590658571,-4.0910140316
 O,0,6.3537242593,5.133722834,-5.891704549
 H,0,6.8594812258,5.9591043142,-5.7629341542
 H,0,0.5515733054,2.5882579573,1.608260505
 Recover connectivity data from disk.
                           ----------------------------
                           !    Current Parameters    !
                           ! (Angstroms and Degrees)  !
 --------------------------                            --------------------------
 ! Name  Definition              Value                                          !
 --------------------------------------------------------------------------------
 ! R1    R(1,2)                  1.016                                          !
 ! R2    R(1,3)                  1.0175                                         !
 ! R3    R(1,4)                  1.462                                          !
 ! R4    R(4,5)                  1.0999                                         !
 ! R5    R(4,6)                  1.5192                                         !
 ! R6    R(4,7)                  1.5399                                         !
 ! R7    R(6,10)                 1.3052                                         !
 ! R8    R(6,16)                 1.3024                                         !
 ! R9    R(7,8)                  1.0973                                         !
 ! R10   R(7,9)                  1.0969                                         !
 ! R11   R(7,11)                 1.5463                                         !
 ! R12   R(11,12)                1.3404                                         !
 ! R13   R(11,15)                1.2349                                         !
 ! R14   R(12,13)                1.0509                                         !
 ! R15   R(12,14)                1.0106                                         !
 ! R16   R(16,17)                1.0261                                         !
 ! R17   R(16,18)                1.48                                           !
 ! R18   R(18,19)                1.0928                                         !
 ! R19   R(18,20)                1.5665                                         !
 ! R20   R(18,21)                1.5471                                         !
 ! R21   R(20,23)                1.222                                          !
 ! R22   R(20,35)                1.3611                                         !
 ! R23   R(21,22)                1.1008                                         !
 ! R24   R(21,24)                1.5456                                         !
 ! R25   R(21,27)                1.5389                                         !
 ! R26   R(24,25)                1.0944                                         !
 ! R27   R(24,26)                1.0969                                         !
 ! R28   R(24,31)                1.5338                                         !
 ! R29   R(27,28)                1.0917                                         !
 ! R30   R(27,29)                1.0948                                         !
 ! R31   R(27,30)                1.0984                                         !
 ! R32   R(31,32)                1.0947                                         !
 ! R33   R(31,33)                1.097                                          !
 ! R34   R(31,34)                1.0974                                         !
 ! R35   R(35,36)                1.015                                          !
 ! R36   R(35,37)                1.4613                                         !
 ! R37   R(37,38)                1.1009                                         !
 ! R38   R(37,39)                1.5457                                         !
 ! R39   R(37,40)                1.5379                                         !
 ! R40   R(39,44)                1.2451                                         !
 ! R41   R(39,45)                1.3408                                         !
 ! R42   R(40,41)                1.0946                                         !
 ! R43   R(40,42)                1.0906                                         !
 ! R44   R(40,43)                1.0945                                         !
 ! R45   R(45,46)                1.0145                                         !
 ! R46   R(45,47)                1.4654                                         !
 ! R47   R(47,48)                1.0984                                         !
 ! R48   R(47,49)                1.5481                                         !
 ! R49   R(47,50)                1.5535                                         !
 ! R50   R(49,52)                1.2288                                         !
 ! R51   R(49,59)                1.3595                                         !
 ! R52   R(50,51)                1.0935                                         !
 ! R53   R(50,53)                1.524                                          !
 ! R54   R(50,57)                1.425                                          !
 ! R55   R(53,54)                1.0954                                         !
 ! R56   R(53,55)                1.0933                                         !
 ! R57   R(53,56)                1.0983                                         !
 ! R58   R(57,58)                0.9719                                         !
 ! R59   R(59,60)                1.0122                                         !
 ! R60   R(59,61)                1.4672                                         !
 ! R61   R(61,62)                1.0962                                         !
 ! R62   R(61,63)                1.5385                                         !
 ! R63   R(61,64)                1.5278                                         !
 ! R64   R(63,67)                1.2333                                         !
 ! R65   R(63,70)                1.3515                                         !
 ! R66   R(64,65)                1.0887                                         !
 ! R67   R(64,66)                1.0969                                         !
 ! R68   R(64,68)                1.4368                                         !
 ! R69   R(68,69)                0.9847                                         !
 ! R70   R(68,100)               1.5578                                         !
 ! R71   R(70,71)                1.0167                                         !
 ! R72   R(70,72)                1.4627                                         !
 ! R73   R(72,73)                1.0941                                         !
 ! R74   R(72,74)                1.0901                                         !
 ! R75   R(72,75)                1.5421                                         !
 ! R76   R(75,76)                1.2218                                         !
 ! R77   R(75,77)                1.3673                                         !
 ! R78   R(77,78)                1.0175                                         !
 ! R79   R(77,79)                1.4575                                         !
 ! R80   R(79,80)                1.0955                                         !
 ! R81   R(79,81)                1.5311                                         !
 ! R82   R(79,82)                1.5356                                         !
 ! R83   R(81,85)                1.2174                                         !
 ! R84   R(81,98)                1.3432                                         !
 ! R85   R(82,83)                1.0958                                         !
 ! R86   R(82,84)                1.0948                                         !
 ! R87   R(82,86)                1.5417                                         !
 ! R88   R(86,87)                1.0979                                         !
 ! R89   R(86,88)                1.0968                                         !
 ! R90   R(86,89)                1.5453                                         !
 ! R91   R(89,90)                1.0981                                         !
 ! R92   R(89,91)                1.0971                                         !
 ! R93   R(89,92)                1.5335                                         !
 ! R94   R(92,93)                1.1019                                         !
 ! R95   R(92,94)                1.0972                                         !
 ! R96   R(92,95)                1.4799                                         !
 ! R97   R(95,96)                1.021                                          !
 ! R98   R(95,97)                1.0235                                         !
 ! R99   R(98,99)                0.9765                                         !
 ! A1    A(2,1,3)              107.3075                                         !
 ! A2    A(2,1,4)              110.9064                                         !
 ! A3    A(3,1,4)              111.5671                                         !
 ! A4    A(1,4,5)              109.2668                                         !
 ! A5    A(1,4,6)              109.2077                                         !
 ! A6    A(1,4,7)              114.9249                                         !
 ! A7    A(5,4,6)              105.4214                                         !
 ! A8    A(5,4,7)              104.8878                                         !
 ! A9    A(6,4,7)              112.5793                                         !
 ! A10   A(4,6,10)             121.5263                                         !
 ! A11   A(4,6,16)             119.3216                                         !
 ! A12   A(10,6,16)            119.1212                                         !
 ! A13   A(4,7,8)              110.5604                                         !
 ! A14   A(4,7,9)              111.0373                                         !
 ! A15   A(4,7,11)             109.2065                                         !
 ! A16   A(8,7,9)              106.4182                                         !
 ! A17   A(8,7,11)             112.2024                                         !
 ! A18   A(9,7,11)             107.358                                          !
 ! A19   A(7,11,12)            116.0561                                         !
 ! A20   A(7,11,15)            119.3192                                         !
 ! A21   A(12,11,15)           124.61                                           !
 ! A22   A(11,12,13)           121.6151                                         !
 ! A23   A(11,12,14)           120.2223                                         !
 ! A24   A(13,12,14)           118.0959                                         !
 ! A25   A(6,16,17)            112.0838                                         !
 ! A26   A(6,16,18)            126.674                                          !
 ! A27   A(17,16,18)           120.6714                                         !
 ! A28   A(16,18,19)           105.793                                          !
 ! A29   A(16,18,20)           108.3551                                         !
 ! A30   A(16,18,21)           110.1681                                         !
 ! A31   A(19,18,20)           107.6658                                         !
 ! A32   A(19,18,21)           108.7283                                         !
 ! A33   A(20,18,21)           115.6557                                         !
 ! A34   A(18,20,23)           122.8357                                         !
 ! A35   A(18,20,35)           112.8345                                         !
 ! A36   A(23,20,35)           124.3115                                         !
 ! A37   A(18,21,22)           104.5365                                         !
 ! A38   A(18,21,24)           111.9165                                         !
 ! A39   A(18,21,27)           113.8892                                         !
 ! A40   A(22,21,24)           107.0219                                         !
 ! A41   A(22,21,27)           107.9322                                         !
 ! A42   A(24,21,27)           111.0234                                         !
 ! A43   A(21,24,25)           109.2252                                         !
 ! A44   A(21,24,26)           106.6058                                         !
 ! A45   A(21,24,31)           115.2802                                         !
 ! A46   A(25,24,26)           106.3973                                         !
 ! A47   A(25,24,31)           110.2237                                         !
 ! A48   A(26,24,31)           108.6829                                         !
 ! A49   A(21,27,28)           111.2066                                         !
 ! A50   A(21,27,29)           109.3733                                         !
 ! A51   A(21,27,30)           112.9451                                         !
 ! A52   A(28,27,29)           108.3997                                         !
 ! A53   A(28,27,30)           108.4925                                         !
 ! A54   A(29,27,30)           106.2138                                         !
 ! A55   A(24,31,32)           110.2889                                         !
 ! A56   A(24,31,33)           112.6585                                         !
 ! A57   A(24,31,34)           111.6512                                         !
 ! A58   A(32,31,33)           106.6818                                         !
 ! A59   A(32,31,34)           107.4116                                         !
 ! A60   A(33,31,34)           107.8833                                         !
 ! A61   A(20,35,36)           119.9914                                         !
 ! A62   A(20,35,37)           125.1571                                         !
 ! A63   A(36,35,37)           113.8977                                         !
 ! A64   A(35,37,38)           109.5678                                         !
 ! A65   A(35,37,39)           105.1074                                         !
 ! A66   A(35,37,40)           112.5604                                         !
 ! A67   A(38,37,39)           107.9888                                         !
 ! A68   A(38,37,40)           108.7406                                         !
 ! A69   A(39,37,40)           112.7297                                         !
 ! A70   A(37,39,44)           120.3181                                         !
 ! A71   A(37,39,45)           117.5206                                         !
 ! A72   A(44,39,45)           122.1549                                         !
 ! A73   A(37,40,41)           111.1618                                         !
 ! A74   A(37,40,42)           109.1493                                         !
 ! A75   A(37,40,43)           110.98                                           !
 ! A76   A(41,40,42)           107.6658                                         !
 ! A77   A(41,40,43)           108.5236                                         !
 ! A78   A(42,40,43)           109.2848                                         !
 ! A79   A(39,45,46)           120.9036                                         !
 ! A80   A(39,45,47)           123.8578                                         !
 ! A81   A(46,45,47)           114.8298                                         !
 ! A82   A(45,47,48)           108.996                                          !
 ! A83   A(45,47,49)           108.5612                                         !
 ! A84   A(45,47,50)           108.0315                                         !
 ! A85   A(48,47,49)           110.6231                                         !
 ! A86   A(48,47,50)           110.7069                                         !
 ! A87   A(49,47,50)           109.852                                          !
 ! A88   A(47,49,52)           121.2951                                         !
 ! A89   A(47,49,59)           116.3982                                         !
 ! A90   A(52,49,59)           122.267                                          !
 ! A91   A(47,50,51)           106.6606                                         !
 ! A92   A(47,50,53)           112.006                                          !
 ! A93   A(47,50,57)           110.431                                          !
 ! A94   A(51,50,53)           109.9301                                         !
 ! A95   A(51,50,57)           104.8046                                         !
 ! A96   A(53,50,57)           112.5937                                         !
 ! A97   A(50,53,54)           111.3364                                         !
 ! A98   A(50,53,55)           109.8259                                         !
 ! A99   A(50,53,56)           111.1784                                         !
 ! A100  A(54,53,55)           108.0969                                         !
 ! A101  A(54,53,56)           107.902                                          !
 ! A102  A(55,53,56)           108.3937                                         !
 ! A103  A(50,57,58)           108.8218                                         !
 ! A104  A(49,59,60)           118.2949                                         !
 ! A105  A(49,59,61)           121.1427                                         !
 ! A106  A(60,59,61)           118.2046                                         !
 ! A107  A(59,61,62)           106.1863                                         !
 ! A108  A(59,61,63)           113.5651                                         !
 ! A109  A(59,61,64)           110.0325                                         !
 ! A110  A(62,61,63)           107.2422                                         !
 ! A111  A(62,61,64)           108.1934                                         !
 ! A112  A(63,61,64)           111.317                                          !
 ! A113  A(61,63,67)           121.253                                          !
 ! A114  A(61,63,70)           114.4677                                         !
 ! A115  A(67,63,70)           124.2422                                         !
 ! A116  A(61,64,65)           109.2085                                         !
 ! A117  A(61,64,66)           111.3597                                         !
 ! A118  A(61,64,68)           109.4914                                         !
 ! A119  A(65,64,66)           108.8514                                         !
 ! A120  A(65,64,68)           107.1039                                         !
 ! A121  A(66,64,68)           110.7177                                         !
 ! A122  A(64,68,69)           110.9572                                         !
 ! A123  A(64,68,100)          142.8637                                         !
 ! A124  A(69,68,100)          101.9914                                         !
 ! A125  A(63,70,71)           118.0124                                         !
 ! A126  A(63,70,72)           122.0231                                         !
 ! A127  A(71,70,72)           119.2684                                         !
 ! A128  A(70,72,73)           108.2027                                         !
 ! A129  A(70,72,74)           108.8857                                         !
 ! A130  A(70,72,75)           112.197                                          !
 ! A131  A(73,72,74)           109.4652                                         !
 ! A132  A(73,72,75)           110.4972                                         !
 ! A133  A(74,72,75)           107.5576                                         !
 ! A134  A(72,75,76)           121.9093                                         !
 ! A135  A(72,75,77)           113.7972                                         !
 ! A136  A(76,75,77)           124.2831                                         !
 ! A137  A(75,77,78)           117.8179                                         !
 ! A138  A(75,77,79)           121.2992                                         !
 ! A139  A(78,77,79)           119.436                                          !
 ! A140  A(77,79,80)           105.3475                                         !
 ! A141  A(77,79,81)           108.721                                          !
 ! A142  A(77,79,82)           112.7255                                         !
 ! A143  A(80,79,81)           107.8184                                         !
 ! A144  A(80,79,82)           110.3425                                         !
 ! A145  A(81,79,82)           111.5886                                         !
 ! A146  A(79,81,85)           125.389                                          !
 ! A147  A(79,81,98)           112.1032                                         !
 ! A148  A(85,81,98)           122.5044                                         !
 ! A149  A(79,82,83)           107.5801                                         !
 ! A150  A(79,82,84)           109.2797                                         !
 ! A151  A(79,82,86)           113.2846                                         !
 ! A152  A(83,82,84)           106.048                                          !
 ! A153  A(83,82,86)           109.1659                                         !
 ! A154  A(84,82,86)           111.1662                                         !
 ! A155  A(82,86,87)           110.2248                                         !
 ! A156  A(82,86,88)           108.2208                                         !
 ! A157  A(82,86,89)           113.9309                                         !
 ! A158  A(87,86,88)           105.7614                                         !
 ! A159  A(87,86,89)           108.6894                                         !
 ! A160  A(88,86,89)           109.6972                                         !
 ! A161  A(86,89,90)           109.867                                          !
 ! A162  A(86,89,91)           109.3493                                         !
 ! A163  A(86,89,92)           114.2283                                         !
 ! A164  A(90,89,91)           106.6909                                         !
 ! A165  A(90,89,92)           109.6484                                         !
 ! A166  A(91,89,92)           106.7471                                         !
 ! A167  A(89,92,93)           108.6348                                         !
 ! A168  A(89,92,94)           109.1572                                         !
 ! A169  A(89,92,95)           113.0131                                         !
 ! A170  A(93,92,94)           106.7589                                         !
 ! A171  A(93,92,95)           111.6541                                         !
 ! A172  A(94,92,95)           107.4067                                         !
 ! A173  A(92,95,96)           108.5896                                         !
 ! A174  A(92,95,97)           109.755                                          !
 ! A175  A(96,95,97)           105.0215                                         !
 ! A176  A(81,98,99)           107.0262                                         !
 ! D1    D(2,1,4,5)            -18.1355                                         !
 ! D2    D(2,1,4,6)           -132.9749                                         !
 ! D3    D(2,1,4,7)             99.4171                                         !
 ! D4    D(3,1,4,5)           -137.7017                                         !
 ! D5    D(3,1,4,6)            107.459                                          !
 ! D6    D(3,1,4,7)            -20.149                                          !
 ! D7    D(1,4,6,10)           179.4219                                         !
 ! D8    D(1,4,6,16)             1.4634                                         !
 ! D9    D(5,4,6,10)            62.1269                                         !
 ! D10   D(5,4,6,16)          -115.8316                                         !
 ! D11   D(7,4,6,10)           -51.6613                                         !
 ! D12   D(7,4,6,16)           130.3802                                         !
 ! D13   D(1,4,7,8)             42.0713                                         !
 ! D14   D(1,4,7,9)            159.9561                                         !
 ! D15   D(1,4,7,11)           -81.8491                                         !
 ! D16   D(5,4,7,8)            162.0741                                         !
 ! D17   D(5,4,7,9)            -80.0412                                         !
 ! D18   D(5,4,7,11)            38.1537                                         !
 ! D19   D(6,4,7,8)            -83.8124                                         !
 ! D20   D(6,4,7,9)             34.0723                                         !
 ! D21   D(6,4,7,11)           152.2672                                         !
 ! D22   D(4,6,16,17)            0.1307                                         !
 ! D23   D(4,6,16,18)          171.4347                                         !
 ! D24   D(10,6,16,17)        -177.8774                                         !
 ! D25   D(10,6,16,18)          -6.5733                                         !
 ! D26   D(4,7,11,12)          151.4366                                         !
 ! D27   D(4,7,11,15)          -29.896                                          !
 ! D28   D(8,7,11,12)           28.49                                           !
 ! D29   D(8,7,11,15)         -152.8426                                         !
 ! D30   D(9,7,11,12)          -88.0884                                         !
 ! D31   D(9,7,11,15)           90.579                                          !
 ! D32   D(7,11,12,13)         176.6593                                         !
 ! D33   D(7,11,12,14)          -0.3141                                         !
 ! D34   D(15,11,12,13)         -1.9289                                         !
 ! D35   D(15,11,12,14)       -178.9024                                         !
 ! D36   D(6,16,18,19)          25.6592                                         !
 ! D37   D(6,16,18,20)         -89.5622                                         !
 ! D38   D(6,16,18,21)         143.005                                          !
 ! D39   D(17,16,18,19)       -163.7152                                         !
 ! D40   D(17,16,18,20)         81.0634                                         !
 ! D41   D(17,16,18,21)        -46.3695                                         !
 ! D42   D(16,18,20,23)       -115.7044                                         !
 ! D43   D(16,18,20,35)         62.7973                                         !
 ! D44   D(19,18,20,23)        130.3034                                         !
 ! D45   D(19,18,20,35)        -51.1949                                         !
 ! D46   D(21,18,20,23)          8.5139                                         !
 ! D47   D(21,18,20,35)       -172.9843                                         !
 ! D48   D(16,18,21,22)        -58.5274                                         !
 ! D49   D(16,18,21,24)       -174.014                                          !
 ! D50   D(16,18,21,27)         59.0354                                         !
 ! D51   D(19,18,21,22)         56.9831                                         !
 ! D52   D(19,18,21,24)        -58.5035                                         !
 ! D53   D(19,18,21,27)        174.5459                                         !
 ! D54   D(20,18,21,22)        178.2027                                         !
 ! D55   D(20,18,21,24)         62.7161                                         !
 ! D56   D(20,18,21,27)        -64.2345                                         !
 ! D57   D(18,20,35,36)         14.5263                                         !
 ! D58   D(18,20,35,37)       -177.3521                                         !
 ! D59   D(23,20,35,36)       -166.9978                                         !
 ! D60   D(23,20,35,37)          1.1238                                         !
 ! D61   D(18,21,24,25)        -67.718                                          !
 ! D62   D(18,21,24,26)        177.701                                          !
 ! D63   D(18,21,24,31)         57.0026                                         !
 ! D64   D(22,21,24,25)        178.3209                                         !
 ! D65   D(22,21,24,26)         63.7399                                         !
 ! D66   D(22,21,24,31)        -56.9585                                         !
 ! D67   D(27,21,24,25)         60.7645                                         !
 ! D68   D(27,21,24,26)        -53.8165                                         !
 ! D69   D(27,21,24,31)       -174.5149                                         !
 ! D70   D(18,21,27,28)         63.7815                                         !
 ! D71   D(18,21,27,29)       -176.5271                                         !
 ! D72   D(18,21,27,30)        -58.4751                                         !
 ! D73   D(22,21,27,28)        179.3673                                         !
 ! D74   D(22,21,27,29)        -60.9414                                         !
 ! D75   D(22,21,27,30)         57.1107                                         !
 ! D76   D(24,21,27,28)        -63.6321                                         !
 ! D77   D(24,21,27,29)         56.0593                                         !
 ! D78   D(24,21,27,30)        174.1113                                         !
 ! D79   D(21,24,31,32)        172.4133                                         !
 ! D80   D(21,24,31,33)        -68.5104                                         !
 ! D81   D(21,24,31,34)         53.0729                                         !
 ! D82   D(25,24,31,32)        -63.3878                                         !
 ! D83   D(25,24,31,33)         55.6884                                         !
 ! D84   D(25,24,31,34)        177.2718                                         !
 ! D85   D(26,24,31,32)         52.8534                                         !
 ! D86   D(26,24,31,33)        171.9296                                         !
 ! D87   D(26,24,31,34)        -66.487                                          !
 ! D88   D(20,35,37,38)        -65.1886                                         !
 ! D89   D(20,35,37,39)        178.9974                                         !
 ! D90   D(20,35,37,40)         55.9363                                         !
 ! D91   D(36,35,37,38)        103.5672                                         !
 ! D92   D(36,35,37,39)        -12.2468                                         !
 ! D93   D(36,35,37,40)       -135.308                                          !
 ! D94   D(35,37,39,44)         14.2007                                         !
 ! D95   D(35,37,39,45)       -164.8998                                         !
 ! D96   D(38,37,39,44)       -102.6969                                         !
 ! D97   D(38,37,39,45)         78.2025                                         !
 ! D98   D(40,37,39,44)        137.1532                                         !
 ! D99   D(40,37,39,45)        -41.9474                                         !
 ! D100  D(35,37,40,41)       -174.7799                                         !
 ! D101  D(35,37,40,42)        -56.167                                          !
 ! D102  D(35,37,40,43)         64.3363                                         !
 ! D103  D(38,37,40,41)        -53.1837                                         !
 ! D104  D(38,37,40,42)         65.4292                                         !
 ! D105  D(38,37,40,43)       -174.0675                                         !
 ! D106  D(39,37,40,41)         66.5328                                         !
 ! D107  D(39,37,40,42)       -174.8544                                         !
 ! D108  D(39,37,40,43)        -54.3511                                         !
 ! D109  D(37,39,45,46)        -10.5012                                         !
 ! D110  D(37,39,45,47)        177.2223                                         !
 ! D111  D(44,39,45,46)        170.4159                                         !
 ! D112  D(44,39,45,47)         -1.8606                                         !
 ! D113  D(39,45,47,48)         54.3913                                         !
 ! D114  D(39,45,47,49)        -66.1752                                         !
 ! D115  D(39,45,47,50)        174.7446                                         !
 ! D116  D(46,45,47,48)       -118.3091                                         !
 ! D117  D(46,45,47,49)        121.1244                                         !
 ! D118  D(46,45,47,50)          2.0442                                         !
 ! D119  D(45,47,49,52)        -75.6584                                         !
 ! D120  D(45,47,49,59)        102.1028                                         !
 ! D121  D(48,47,49,52)        164.7879                                         !
 ! D122  D(48,47,49,59)        -17.4509                                         !
 ! D123  D(50,47,49,52)         42.2714                                         !
 ! D124  D(50,47,49,59)       -139.9675                                         !
 ! D125  D(45,47,50,51)         75.7873                                         !
 ! D126  D(45,47,50,53)       -163.9                                            !
 ! D127  D(45,47,50,57)        -37.5476                                         !
 ! D128  D(48,47,50,51)       -164.9374                                         !
 ! D129  D(48,47,50,53)        -44.6248                                         !
 ! D130  D(48,47,50,57)         81.7277                                         !
 ! D131  D(49,47,50,51)        -42.4705                                         !
 ! D132  D(49,47,50,53)         77.8421                                         !
 ! D133  D(49,47,50,57)       -155.8054                                         !
 ! D134  D(47,49,59,60)          1.8171                                         !
 ! D135  D(47,49,59,61)       -160.4382                                         !
 ! D136  D(52,49,59,60)        179.5545                                         !
 ! D137  D(52,49,59,61)         17.2993                                         !
 ! D138  D(47,50,53,54)        -57.9058                                         !
 ! D139  D(47,50,53,55)       -177.5969                                         !
 ! D140  D(47,50,53,56)         62.4423                                         !
 ! D141  D(51,50,53,54)         60.4842                                         !
 ! D142  D(51,50,53,55)        -59.2069                                         !
 ! D143  D(51,50,53,56)       -179.1676                                         !
 ! D144  D(57,50,53,54)        176.9255                                         !
 ! D145  D(57,50,53,55)         57.2344                                         !
 ! D146  D(57,50,53,56)        -62.7264                                         !
 ! D147  D(47,50,57,58)        -80.591                                          !
 ! D148  D(51,50,57,58)        164.8955                                         !
 ! D149  D(53,50,57,58)         45.432                                          !
 ! D150  D(49,59,61,62)         20.723                                          !
 ! D151  D(49,59,61,63)        -96.8792                                         !
 ! D152  D(49,59,61,64)        137.5877                                         !
 ! D153  D(60,59,61,62)       -141.5477                                         !
 ! D154  D(60,59,61,63)        100.85                                           !
 ! D155  D(60,59,61,64)        -24.6831                                         !
 ! D156  D(59,61,63,67)       -120.554                                          !
 ! D157  D(59,61,63,70)         61.5716                                         !
 ! D158  D(62,61,63,67)        122.4582                                         !
 ! D159  D(62,61,63,70)        -55.4162                                         !
 ! D160  D(64,61,63,67)          4.2916                                         !
 ! D161  D(64,61,63,70)       -173.5828                                         !
 ! D162  D(59,61,64,65)       -177.5016                                         !
 ! D163  D(59,61,64,66)         62.2564                                         !
 ! D164  D(59,61,64,68)        -60.5207                                         !
 ! D165  D(62,61,64,65)        -61.897                                          !
 ! D166  D(62,61,64,66)        177.861                                          !
 ! D167  D(62,61,64,68)         55.0839                                         !
 ! D168  D(63,61,64,65)         55.6951                                         !
 ! D169  D(63,61,64,66)        -64.5469                                         !
 ! D170  D(63,61,64,68)        172.6761                                         !
 ! D171  D(61,63,70,71)          5.2824                                         !
 ! D172  D(61,63,70,72)        175.6457                                         !
 ! D173  D(67,63,70,71)       -172.5194                                         !
 ! D174  D(67,63,70,72)         -2.1561                                         !
 ! D175  D(61,64,68,69)         47.7122                                         !
 ! D176  D(61,64,68,100)      -161.3272                                         !
 ! D177  D(65,64,68,69)        166.0112                                         !
 ! D178  D(65,64,68,100)       -43.0282                                         !
 ! D179  D(66,64,68,69)        -75.4455                                         !
 ! D180  D(66,64,68,100)        75.515                                          !
 ! D181  D(63,70,72,73)         40.4099                                         !
 ! D182  D(63,70,72,74)        159.3072                                         !
 ! D183  D(63,70,72,75)        -81.7502                                         !
 ! D184  D(71,70,72,73)       -149.344                                          !
 ! D185  D(71,70,72,74)        -30.4467                                         !
 ! D186  D(71,70,72,75)         88.4959                                         !
 ! D187  D(70,72,75,76)       -111.0344                                         !
 ! D188  D(70,72,75,77)         67.8367                                         !
 ! D189  D(73,72,75,76)        128.1204                                         !
 ! D190  D(73,72,75,77)        -53.0085                                         !
 ! D191  D(74,72,75,76)          8.6864                                         !
 ! D192  D(74,72,75,77)       -172.4425                                         !
 ! D193  D(72,75,77,78)         -4.2184                                         !
 ! D194  D(72,75,77,79)       -170.4124                                         !
 ! D195  D(76,75,77,78)        174.6218                                         !
 ! D196  D(76,75,77,79)          8.4277                                         !
 ! D197  D(75,77,79,80)        -20.5045                                         !
 ! D198  D(75,77,79,81)       -135.8487                                         !
 ! D199  D(75,77,79,82)         99.8787                                         !
 ! D200  D(78,77,79,80)        173.5203                                         !
 ! D201  D(78,77,79,81)         58.1761                                         !
 ! D202  D(78,77,79,82)        -66.0965                                         !
 ! D203  D(77,79,81,85)       -114.3329                                         !
 ! D204  D(77,79,81,98)         65.0011                                         !
 ! D205  D(80,79,81,85)        131.9348                                         !
 ! D206  D(80,79,81,98)        -48.7312                                         !
 ! D207  D(82,79,81,85)         10.6106                                         !
 ! D208  D(82,79,81,98)       -170.0553                                         !
 ! D209  D(77,79,82,83)        -46.6443                                         !
 ! D210  D(77,79,82,84)         68.067                                          !
 ! D211  D(77,79,82,86)       -167.3931                                         !
 ! D212  D(80,79,82,83)         70.8281                                         !
 ! D213  D(80,79,82,84)       -174.4607                                         !
 ! D214  D(80,79,82,86)        -49.9207                                         !
 ! D215  D(81,79,82,83)       -169.3251                                         !
 ! D216  D(81,79,82,84)        -54.6139                                         !
 ! D217  D(81,79,82,86)         69.9261                                         !
 ! D218  D(79,81,98,99)       -179.0404                                         !
 ! D219  D(85,81,98,99)          0.3158                                         !
 ! D220  D(79,82,86,87)        -37.8198                                         !
 ! D221  D(79,82,86,88)         77.3966                                         !
 ! D222  D(79,82,86,89)       -160.3069                                         !
 ! D223  D(83,82,86,87)       -157.6673                                         !
 ! D224  D(83,82,86,88)        -42.4508                                         !
 ! D225  D(83,82,86,89)         79.8457                                         !
 ! D226  D(84,82,86,87)         85.6907                                         !
 ! D227  D(84,82,86,88)       -159.0928                                         !
 ! D228  D(84,82,86,89)        -36.7963                                         !
 ! D229  D(82,86,89,90)        -28.9791                                         !
 ! D230  D(82,86,89,91)       -145.7584                                         !
 ! D231  D(82,86,89,92)         94.7088                                         !
 ! D232  D(87,86,89,90)       -152.3044                                         !
 ! D233  D(87,86,89,91)         90.9163                                         !
 ! D234  D(87,86,89,92)        -28.6166                                         !
 ! D235  D(88,86,89,90)         92.5022                                         !
 ! D236  D(88,86,89,91)        -24.2771                                         !
 ! D237  D(88,86,89,92)       -143.8099                                         !
 ! D238  D(86,89,92,93)         59.2954                                         !
 ! D239  D(86,89,92,94)        175.3537                                         !
 ! D240  D(86,89,92,95)        -65.1986                                         !
 ! D241  D(90,89,92,93)       -176.8993                                         !
 ! D242  D(90,89,92,94)        -60.841                                          !
 ! D243  D(90,89,92,95)         58.6068                                         !
 ! D244  D(91,89,92,93)        -61.6911                                         !
 ! D245  D(91,89,92,94)         54.3672                                         !
 ! D246  D(91,89,92,95)        173.815                                          !
 ! D247  D(89,92,95,96)        175.5779                                         !
 ! D248  D(89,92,95,97)         61.2889                                         !
 ! D249  D(93,92,95,96)         52.7473                                         !
 ! D250  D(93,92,95,97)        -61.5416                                         !
 ! D251  D(94,92,95,96)        -63.9706                                         !
 ! D252  D(94,92,95,97)       -178.2596                                         !
 --------------------------------------------------------------------------------
 Symmetry turned off by external request.
 Stoichiometry    C28H52N9O11(1+)
 Framework group  C1[X(C28H52N9O11)]
 Deg. of freedom   294
 Full point group                 C1      NOp   1
                          Input orientation:                          
 ---------------------------------------------------------------------
 Center     Atomic      Atomic             Coordinates (Angstroms)
 Number     Number       Type             X           Y           Z
 ---------------------------------------------------------------------
      1          7           0       -2.445116    3.703084   -0.668187
      2          1           0       -2.387448    3.414914   -1.640792
      3          1           0       -2.770633    4.667026   -0.656873
      4          6           0       -1.149085    3.565682   -0.005617
      5          1           0       -0.508894    2.894114   -0.596295
      6          6           0       -1.342104    2.868379    1.330208
      7          6           0       -0.342821    4.871648    0.120160
      8          1           0       -0.998549    5.703202    0.407493
      9          1           0        0.417786    4.790661    0.906361
     10          8           0       -0.333764    2.612353    2.118424
     11          6           0        0.396359    5.143315   -1.210630
     12          7           0        0.634328    6.430318   -1.499860
     13          1           0        1.175749    6.711681   -2.355532
     14          1           0        0.331601    7.158192   -0.867520
     15          8           0        0.746256    4.190141   -1.913517
     16          7           0       -2.535143    2.481369    1.681153
     17          1           0       -3.238791    2.706672    0.969171
     18          6           0       -2.884077    1.640322    2.847832
     19          1           0       -2.084152    1.795234    3.576020
     20          6           0       -2.839036    0.138588    2.404461
     21          6           0       -4.219270    2.115891    3.467952
     22          1           0       -4.039189    3.167619    3.738412
     23          8           0       -3.828298   -0.578672    2.392374
     24          6           0       -4.548414    1.362162    4.776582
     25          1           0       -4.763952    0.314541    4.544614
     26          1           0       -5.481578    1.792724    5.160129
     27          6           0       -5.409044    2.074471    2.492779
     28          1           0       -5.627648    1.051724    2.179746
     29          1           0       -6.297270    2.482192    2.986062
     30          1           0       -5.248484    2.686776    1.595123
     31          6           0       -3.478587    1.453433    5.871839
     32          1           0       -3.848539    1.009870    6.801716
     33          1           0       -2.559035    0.915370    5.610303
     34          1           0       -3.209434    2.494849    6.089132
     35          7           0       -1.598473   -0.258631    2.009716
     36          1           0       -0.789213    0.314218    2.227041
     37          6           0       -1.264043   -1.583994    1.493088
     38          1           0       -1.410651   -2.335762    2.283869
     39          6           0        0.245881   -1.520689    1.168645
     40          6           0       -2.117660   -1.975151    0.275086
     41          1           0       -1.913855   -3.004574   -0.036081
     42          1           0       -3.172953   -1.913201    0.543081
     43          1           0       -1.920112   -1.310355   -0.571679
     44          8           0        0.943619   -0.585711    1.603797
     45          7           0        0.754737   -2.491103    0.395984
     46          1           0        0.210347   -3.316988    0.170560
     47          6           0        2.151394   -2.535382   -0.045279
     48          1           0        2.806396   -2.473675    0.834343
     49          6           0        2.405019   -1.342362   -0.998765
     50          6           0        2.374056   -3.873033   -0.803181
     51          1           0        1.911997   -3.756393   -1.787414
     52          8           0        1.993404   -1.351876   -2.156558
     53          6           0        3.854041   -4.201183   -0.959686
     54          1           0        4.385567   -3.402677   -1.488707
     55          1           0        3.970470   -5.124625   -1.533318
     56          1           0        4.335817   -4.337378    0.017904
     57          8           0        1.642824   -4.925516   -0.180061
     58          1           0        2.143777   -5.242033    0.590255
     59          7           0        3.061511   -0.275479   -0.470628
     60          1           0        3.368492   -0.329718    0.492351
     61          6           0        2.993321    1.046528   -1.103275
     62          1           0        2.096264    1.037908   -1.733272
     63          6           0        4.190910    1.352566   -2.019233
     64          6           0        2.817975    2.127904   -0.038377
     65          1           0        2.724517    3.097553   -0.524528
     66          1           0        3.673879    2.156119    0.647089
     67          8           0        4.926253    2.320097   -1.809213
     68          8           0        1.596755    1.897213    0.682599
     69          1           0        1.523653    0.955020    0.959154
     70          7           0        4.323268    0.510216   -3.067836
     71          1           0        3.597799   -0.186642   -3.215040
     72          6           0        5.347278    0.704196   -4.094054
     73          1           0        6.270962    1.019876   -3.599823
     74          1           0        5.515475   -0.242290   -4.608027
     75          6           0        4.920916    1.739821   -5.154083
     76          8           0        4.668500    1.418844   -6.305661
     77          7           0        4.833817    3.016990   -4.673842
     78          1           0        4.986030    3.161308   -3.678217
     79          6           0        4.249950    4.087839   -5.471831
     80          1           0        4.299819    3.737156   -6.508524
     81          6           0        5.138530    5.329107   -5.353863
     82          6           0        2.796732    4.394066   -5.081187
     83          1           0        2.266925    3.438144   -5.001647
     84          1           0        2.777009    4.835297   -4.079417
     85          8           0        4.816434    6.379512   -4.829381
     86          6           0        2.068373    5.293183   -6.099895
     87          1           0        2.754666    6.054841   -6.492740
     88          1           0        1.784257    4.675733   -6.960718
     89          6           0        0.817695    6.000005   -5.530458
     90          1           0        0.375062    5.389546   -4.732146
     91          1           0        0.059022    6.086845   -6.318127
     92          6           0        1.078812    7.418685   -5.010117
     93          1           0        1.469976    8.031103   -5.838462
     94          1           0        0.127066    7.870906   -4.704362
     95          7           0        1.980019    7.447774   -3.836582
     96          1           0        2.166095    8.421744   -3.593148
     97          1           0        2.891951    7.059066   -4.091014
     98          8           0        6.353724    5.133723   -5.891705
     99          1           0        6.859481    5.959104   -5.762934
    100          1           0        0.551573    2.588258    1.608261
 ---------------------------------------------------------------------
 Rotational constants (GHZ):           0.0738754           0.0374740           0.0271754
 Standard basis: 6-31G(d) (6D, 7F)
   824 basis functions,  1552 primitive gaussians,   824 cartesian basis functions
   185 alpha electrons      185 beta electrons
       nuclear repulsion energy      6884.2252748845 Hartrees.
 NAtoms=  100 NActive=  100 NUniq=  100 SFac= 1.00D+00 NAtFMM=   60 NAOKFM=T Big=T
 Integral buffers will be    131072 words long.
 Raffenetti 2 integral format.
 Two-electron integral symmetry is turned off.
 One-electron integrals computed using PRISM.
 NBasis=   824 RedAO= T EigKep=  1.55D-03  NBF=   824
 NBsUse=   824 1.00D-06 EigRej= -1.00D+00 NBFU=   824
 Initial guess from the checkpoint file:  "conf-962.chk"
 B after Tr=     0.000000    0.000000    0.000000
         Rot=    1.000000    0.000000    0.000000    0.000000 Ang=   0.00 deg.
 Requested convergence on RMS density matrix=1.00D-08 within 128 cycles.
 Requested convergence on MAX density matrix=1.00D-06.
 Requested convergence on             energy=1.00D-06.
 No special actions if energy rises.
 SCF Done:  E(RB3LYP) =  -2418.45034493     A.U. after    3 cycles
            NFock=  3  Conv=0.10D-08     -V/T= 2.0093

 **********************************************************************

            Population analysis using the SCF Density.

 **********************************************************************

 Alpha  occ. eigenvalues --  -19.33098 -19.27944 -19.26751 -19.25388 -19.25019
 Alpha  occ. eigenvalues --  -19.23168 -19.22295 -19.21787 -19.21252 -19.20919
 Alpha  occ. eigenvalues --  -19.18023 -14.52211 -14.48526 -14.47787 -14.46276
 Alpha  occ. eigenvalues --  -14.45538 -14.45272 -14.43380 -14.42301 -14.39573
 Alpha  occ. eigenvalues --  -10.45536 -10.41730 -10.40251 -10.39759 -10.39462
 Alpha  occ. eigenvalues --  -10.38668 -10.38312 -10.36409 -10.35382 -10.35321
 Alpha  occ. eigenvalues --  -10.34951 -10.34919 -10.34542 -10.34452 -10.33960
 Alpha  occ. eigenvalues --  -10.31887 -10.30469 -10.30202 -10.29419 -10.28007
 Alpha  occ. eigenvalues --  -10.27798 -10.27648 -10.26262 -10.26134 -10.25507
 Alpha  occ. eigenvalues --  -10.24824 -10.24711 -10.24639  -1.23662  -1.17974
 Alpha  occ. eigenvalues --   -1.16853  -1.15146  -1.14476  -1.14125  -1.12921
 Alpha  occ. eigenvalues --   -1.12785  -1.12275  -1.09857  -1.09699  -1.08866
 Alpha  occ. eigenvalues --   -1.04638  -1.03762  -1.03017  -1.02322  -1.01197
 Alpha  occ. eigenvalues --   -0.98945  -0.98929  -0.95542  -0.91967  -0.90065
 Alpha  occ. eigenvalues --   -0.88455  -0.87551  -0.86713  -0.86308  -0.84184
 Alpha  occ. eigenvalues --   -0.82807  -0.81134  -0.80770  -0.80319  -0.79050
 Alpha  occ. eigenvalues --   -0.77480  -0.76610  -0.76222  -0.75310  -0.72850
 Alpha  occ. eigenvalues --   -0.71828  -0.70948  -0.70484  -0.69920  -0.68216
 Alpha  occ. eigenvalues --   -0.67989  -0.67828  -0.67521  -0.66938  -0.66374
 Alpha  occ. eigenvalues --   -0.66015  -0.65223  -0.64917  -0.63984  -0.63795
 Alpha  occ. eigenvalues --   -0.63245  -0.63016  -0.62068  -0.61586  -0.60797
 Alpha  occ. eigenvalues --   -0.60489  -0.59981  -0.59901  -0.59448  -0.58519
 Alpha  occ. eigenvalues --   -0.58363  -0.57330  -0.56895  -0.56426  -0.56118
 Alpha  occ. eigenvalues --   -0.55792  -0.55416  -0.55262  -0.55168  -0.54589
 Alpha  occ. eigenvalues --   -0.54561  -0.54278  -0.54106  -0.53816  -0.53466
 Alpha  occ. eigenvalues --   -0.53329  -0.52658  -0.52375  -0.51581  -0.51492
 Alpha  occ. eigenvalues --   -0.50916  -0.50566  -0.50448  -0.50307  -0.50113
 Alpha  occ. eigenvalues --   -0.49885  -0.49584  -0.49264  -0.49033  -0.48912
 Alpha  occ. eigenvalues --   -0.48684  -0.48433  -0.48028  -0.47908  -0.47671
 Alpha  occ. eigenvalues --   -0.47515  -0.47356  -0.46975  -0.46898  -0.46854
 Alpha  occ. eigenvalues --   -0.46350  -0.46205  -0.45870  -0.45581  -0.45330
 Alpha  occ. eigenvalues --   -0.44746  -0.44435  -0.43739  -0.43086  -0.42807
 Alpha  occ. eigenvalues --   -0.42615  -0.41963  -0.41567  -0.40960  -0.40669
 Alpha  occ. eigenvalues --   -0.40318  -0.40157  -0.40072  -0.39221  -0.39132
 Alpha  occ. eigenvalues --   -0.38559  -0.38373  -0.38139  -0.37749  -0.36465
 Alpha  occ. eigenvalues --   -0.36026  -0.35753  -0.35497  -0.35422  -0.35252
 Alpha  occ. eigenvalues --   -0.34867  -0.33970  -0.32468  -0.31606  -0.31039
 Alpha virt. eigenvalues --   -0.15257  -0.10949  -0.09857  -0.08492  -0.08046
 Alpha virt. eigenvalues --   -0.07087  -0.06900  -0.04253  -0.04075  -0.03317
 Alpha virt. eigenvalues --   -0.02505  -0.02001  -0.01504  -0.00872  -0.00538
 Alpha virt. eigenvalues --   -0.00040   0.00390   0.01137   0.01368   0.01884
 Alpha virt. eigenvalues --    0.02249   0.03263   0.03295   0.03393   0.03650
 Alpha virt. eigenvalues --    0.04207   0.04481   0.04639   0.04887   0.05163
 Alpha virt. eigenvalues --    0.05330   0.05398   0.05819   0.05926   0.06309
 Alpha virt. eigenvalues --    0.06438   0.06601   0.06684   0.07144   0.07324
 Alpha virt. eigenvalues --    0.07532   0.07660   0.08209   0.08303   0.08665
 Alpha virt. eigenvalues --    0.08899   0.08960   0.09317   0.09381   0.09665
 Alpha virt. eigenvalues --    0.10040   0.10320   0.10411   0.10771   0.10885
 Alpha virt. eigenvalues --    0.11152   0.11189   0.11382   0.11616   0.11837
 Alpha virt. eigenvalues --    0.11921   0.12154   0.12718   0.12921   0.13148
 Alpha virt. eigenvalues --    0.13396   0.13459   0.13580   0.14212   0.14289
 Alpha virt. eigenvalues --    0.14649   0.14744   0.14871   0.15402   0.15741
 Alpha virt. eigenvalues --    0.16000   0.16418   0.16728   0.17408   0.17749
 Alpha virt. eigenvalues --    0.17879   0.17957   0.18224   0.18406   0.18520
 Alpha virt. eigenvalues --    0.19777   0.20387   0.20680   0.20886   0.20926
 Alpha virt. eigenvalues --    0.22896   0.23868   0.24300   0.24996   0.25505
 Alpha virt. eigenvalues --    0.26170   0.27192   0.27680   0.28866   0.30050
 Alpha virt. eigenvalues --    0.30545   0.30764   0.31371   0.31898   0.32377
 Alpha virt. eigenvalues --    0.33025   0.34471   0.37465   0.38589   0.39183
 Alpha virt. eigenvalues --    0.39573   0.40555   0.40678   0.41424   0.41838
 Alpha virt. eigenvalues --    0.42166   0.42628   0.43038   0.43327   0.43855
 Alpha virt. eigenvalues --    0.44185   0.44822   0.44928   0.45046   0.45343
 Alpha virt. eigenvalues --    0.45377   0.45637   0.46033   0.46710   0.46881
 Alpha virt. eigenvalues --    0.47271   0.47578   0.48101   0.48808   0.48909
 Alpha virt. eigenvalues --    0.49202   0.49361   0.49502   0.50064   0.50231
 Alpha virt. eigenvalues --    0.50685   0.51038   0.51523   0.51896   0.52133
 Alpha virt. eigenvalues --    0.52639   0.53045   0.53414   0.53705   0.54059
 Alpha virt. eigenvalues --    0.54624   0.54856   0.54994   0.55412   0.55556
 Alpha virt. eigenvalues --    0.56017   0.56189   0.56435   0.56901   0.57453
 Alpha virt. eigenvalues --    0.58034   0.58495   0.58893   0.59235   0.59420
 Alpha virt. eigenvalues --    0.59733   0.60214   0.60699   0.60939   0.61230
 Alpha virt. eigenvalues --    0.61821   0.62335   0.62530   0.62928   0.62967
 Alpha virt. eigenvalues --    0.63216   0.63545   0.64464   0.65104   0.65624
 Alpha virt. eigenvalues --    0.65745   0.66368   0.66788   0.67093   0.68104
 Alpha virt. eigenvalues --    0.68505   0.68827   0.69323   0.69746   0.70766
 Alpha virt. eigenvalues --    0.71017   0.71321   0.71790   0.72155   0.72232
 Alpha virt. eigenvalues --    0.73233   0.73692   0.73710   0.73831   0.74141
 Alpha virt. eigenvalues --    0.74508   0.74558   0.74877   0.75190   0.75330
 Alpha virt. eigenvalues --    0.75873   0.75912   0.76266   0.76786   0.77088
 Alpha virt. eigenvalues --    0.77298   0.77429   0.77870   0.77945   0.78252
 Alpha virt. eigenvalues --    0.78721   0.79102   0.79399   0.79516   0.79798
 Alpha virt. eigenvalues --    0.79951   0.80231   0.80598   0.80641   0.81160
 Alpha virt. eigenvalues --    0.81399   0.81748   0.81870   0.81992   0.82353
 Alpha virt. eigenvalues --    0.82530   0.82858   0.83005   0.83171   0.83397
 Alpha virt. eigenvalues --    0.83444   0.83701   0.84289   0.84340   0.84507
 Alpha virt. eigenvalues --    0.84951   0.85250   0.85367   0.85705   0.86276
 Alpha virt. eigenvalues --    0.86560   0.87012   0.87269   0.87479   0.88053
 Alpha virt. eigenvalues --    0.88158   0.88499   0.88792   0.89116   0.89537
 Alpha virt. eigenvalues --    0.89748   0.90066   0.90576   0.91101   0.91165
 Alpha virt. eigenvalues --    0.91819   0.92246   0.92524   0.92749   0.92933
 Alpha virt. eigenvalues --    0.93616   0.93840   0.94390   0.94867   0.95488
 Alpha virt. eigenvalues --    0.95906   0.96454   0.96769   0.97335   0.98054
 Alpha virt. eigenvalues --    0.98369   0.98937   0.99598   1.00267   1.00735
 Alpha virt. eigenvalues --    1.01655   1.01905   1.02559   1.02993   1.03769
 Alpha virt. eigenvalues --    1.04897   1.05611   1.06092   1.06820   1.07286
 Alpha virt. eigenvalues --    1.07867   1.08717   1.09202   1.09688   1.10210
 Alpha virt. eigenvalues --    1.10768   1.11298   1.12374   1.13436   1.13728
 Alpha virt. eigenvalues --    1.13981   1.14650   1.15668   1.16496   1.17033
 Alpha virt. eigenvalues --    1.17463   1.18753   1.19245   1.20227   1.21427
 Alpha virt. eigenvalues --    1.21595   1.22758   1.23287   1.23358   1.24330
 Alpha virt. eigenvalues --    1.25094   1.25565   1.26416   1.26801   1.27289
 Alpha virt. eigenvalues --    1.28220   1.28758   1.29385   1.30099   1.30722
 Alpha virt. eigenvalues --    1.30930   1.31149   1.32298   1.32805   1.33316
 Alpha virt. eigenvalues --    1.33645   1.34503   1.35429   1.36150   1.36715
 Alpha virt. eigenvalues --    1.37430   1.37570   1.39163   1.39458   1.39800
 Alpha virt. eigenvalues --    1.40261   1.41604   1.41822   1.43149   1.44579
 Alpha virt. eigenvalues --    1.45068   1.45611   1.46084   1.46812   1.47343
 Alpha virt. eigenvalues --    1.48075   1.48874   1.49706   1.50308   1.50658
 Alpha virt. eigenvalues --    1.52581   1.53253   1.53777   1.54051   1.55202
 Alpha virt. eigenvalues --    1.55808   1.56310   1.56512   1.56992   1.57368
 Alpha virt. eigenvalues --    1.58187   1.58671   1.58944   1.59361   1.60299
 Alpha virt. eigenvalues --    1.60504   1.61137   1.61655   1.62078   1.63156
 Alpha virt. eigenvalues --    1.63384   1.63735   1.63811   1.64436   1.64998
 Alpha virt. eigenvalues --    1.65152   1.65728   1.66403   1.66581   1.66723
 Alpha virt. eigenvalues --    1.67437   1.67724   1.67831   1.68070   1.69028
 Alpha virt. eigenvalues --    1.69805   1.70108   1.70633   1.71378   1.72069
 Alpha virt. eigenvalues --    1.72729   1.72926   1.73374   1.73727   1.74039
 Alpha virt. eigenvalues --    1.74340   1.74862   1.75092   1.75251   1.76016
 Alpha virt. eigenvalues --    1.76178   1.76455   1.77058   1.77402   1.77720
 Alpha virt. eigenvalues --    1.78039   1.78580   1.79038   1.79177   1.79800
 Alpha virt. eigenvalues --    1.80585   1.81006   1.81243   1.81649   1.81832
 Alpha virt. eigenvalues --    1.82068   1.82696   1.82832   1.83410   1.83825
 Alpha virt. eigenvalues --    1.84343   1.85225   1.85856   1.86765   1.87192
 Alpha virt. eigenvalues --    1.87340   1.87912   1.88391   1.88721   1.88905
 Alpha virt. eigenvalues --    1.89680   1.89895   1.90967   1.91218   1.91743
 Alpha virt. eigenvalues --    1.92050   1.92125   1.92831   1.92935   1.93295
 Alpha virt. eigenvalues --    1.93730   1.95139   1.95842   1.95951   1.96237
 Alpha virt. eigenvalues --    1.97299   1.97573   1.97885   1.98291   1.98528
 Alpha virt. eigenvalues --    1.99454   1.99833   2.00392   2.01506   2.02274
 Alpha virt. eigenvalues --    2.02384   2.02390   2.03882   2.04114   2.04722
 Alpha virt. eigenvalues --    2.05214   2.05898   2.06183   2.07333   2.07561
 Alpha virt. eigenvalues --    2.08280   2.08520   2.09081   2.09629   2.10088
 Alpha virt. eigenvalues --    2.10578   2.11629   2.12366   2.13107   2.14094
 Alpha virt. eigenvalues --    2.14634   2.15787   2.16227   2.17985   2.18549
 Alpha virt. eigenvalues --    2.19324   2.19582   2.19925   2.21559   2.21649
 Alpha virt. eigenvalues --    2.21961   2.22283   2.23073   2.23501   2.23741
 Alpha virt. eigenvalues --    2.24306   2.24858   2.26115   2.27592   2.28191
 Alpha virt. eigenvalues --    2.28258   2.28675   2.29289   2.29535   2.30307
 Alpha virt. eigenvalues --    2.30677   2.31654   2.31837   2.32706   2.33035
 Alpha virt. eigenvalues --    2.33294   2.33695   2.34539   2.34990   2.35917
 Alpha virt. eigenvalues --    2.36896   2.37804   2.38370   2.39083   2.39625
 Alpha virt. eigenvalues --    2.39779   2.40947   2.41605   2.42498   2.42912
 Alpha virt. eigenvalues --    2.43583   2.43725   2.44833   2.45071   2.45876
 Alpha virt. eigenvalues --    2.47251   2.47572   2.48464   2.48813   2.50667
 Alpha virt. eigenvalues --    2.50914   2.51747   2.53278   2.53632   2.53781
 Alpha virt. eigenvalues --    2.54318   2.55045   2.56250   2.56521   2.56803
 Alpha virt. eigenvalues --    2.57788   2.58368   2.59104   2.60129   2.60440
 Alpha virt. eigenvalues --    2.60786   2.61301   2.62449   2.63526   2.64875
 Alpha virt. eigenvalues --    2.65400   2.65657   2.66454   2.67344   2.68517
 Alpha virt. eigenvalues --    2.69431   2.71589   2.72730   2.73557   2.74330
 Alpha virt. eigenvalues --    2.76665   2.77092   2.77808   2.80925   2.81377
 Alpha virt. eigenvalues --    2.81652   2.84258   2.84723   2.86199   2.87852
 Alpha virt. eigenvalues --    2.89323   2.91219   2.92180   2.92681   2.93144
 Alpha virt. eigenvalues --    2.93805   2.94161   2.95689   2.99258   3.03815
 Alpha virt. eigenvalues --    3.03944   3.04258   3.05421   3.06181   3.08310
 Alpha virt. eigenvalues --    3.10084   3.73013   3.73601   3.77411   3.83164
 Alpha virt. eigenvalues --    3.86506   3.87059   3.88623   3.91539   3.92780
 Alpha virt. eigenvalues --    3.93421   3.96655   3.98138   4.01184   4.02338
 Alpha virt. eigenvalues --    4.03301   4.04378   4.07574   4.08539   4.10635
 Alpha virt. eigenvalues --    4.11004   4.12052   4.13133   4.13312   4.15598
 Alpha virt. eigenvalues --    4.17966   4.20541   4.21947   4.22903   4.25059
 Alpha virt. eigenvalues --    4.27685   4.29132   4.32086   4.33195   4.35082
 Alpha virt. eigenvalues --    4.37808   4.40503   4.41584   4.42316   4.44593
 Alpha virt. eigenvalues --    4.45191   4.47693   4.50032   4.50884   4.53079
 Alpha virt. eigenvalues --    4.54656   4.56301   4.60177   4.60291
          Condensed to atoms (all electrons):
 Mulliken charges:
               1
     1  N   -0.762151
     2  H    0.353740
     3  H    0.334494
     4  C   -0.075343
     5  H    0.236836
     6  C    0.629108
     7  C   -0.407966
     8  H    0.164501
     9  H    0.192282
    10  O   -0.604142
    11  C    0.627251
    12  N   -0.786621
    13  H    0.433205
    14  H    0.330015
    15  O   -0.537058
    16  N   -0.552412
    17  H    0.406530
    18  C   -0.104250
    19  H    0.204277
    20  C    0.641265
    21  C   -0.080699
    22  H    0.136877
    23  O   -0.494529
    24  C   -0.270629
    25  H    0.179605
    26  H    0.153027
    27  C   -0.485985
    28  H    0.200895
    29  H    0.170696
    30  H    0.127658
    31  C   -0.462719
    32  H    0.171309
    33  H    0.138137
    34  H    0.148663
    35  N   -0.650437
    36  H    0.367502
    37  C   -0.022799
    38  H    0.200008
    39  C    0.634344
    40  C   -0.473430
    41  H    0.161020
    42  H    0.218157
    43  H    0.162570
    44  O   -0.587872
    45  N   -0.605311
    46  H    0.373896
    47  C   -0.052405
    48  H    0.157995
    49  C    0.625514
    50  C    0.102397
    51  H    0.195565
    52  O   -0.520745
    53  C   -0.483405
    54  H    0.169547
    55  H    0.194327
    56  H    0.149365
    57  O   -0.624340
    58  H    0.402998
    59  N   -0.600830
    60  H    0.345539
    61  C   -0.104928
    62  H    0.212234
    63  C    0.640569
    64  C   -0.051919
    65  H    0.207748
    66  H    0.169035
    67  O   -0.541974
    68  O   -0.728617
    69  H    0.469921
    70  N   -0.595592
    71  H    0.371585
    72  C   -0.244404
    73  H    0.199377
    74  H    0.193198
    75  C    0.598420
    76  O   -0.493526
    77  N   -0.619090
    78  H    0.368921
    79  C   -0.036835
    80  H    0.208834
    81  C    0.582643
    82  C   -0.267251
    83  H    0.150925
    84  H    0.158783
    85  O   -0.475373
    86  C   -0.283477
    87  H    0.144955
    88  H    0.152573
    89  C   -0.268755
    90  H    0.150174
    91  H    0.144470
    92  C   -0.138903
    93  H    0.142267
    94  H    0.137967
    95  N   -0.794131
    96  H    0.313109
    97  H    0.368222
    98  O   -0.543216
    99  H    0.419763
   100  H    0.487259
 Sum of Mulliken charges =   1.00000
 Mulliken charges with hydrogens summed into heavy atoms:
               1
     1  N   -0.073917
     4  C    0.161493
     6  C    0.629108
     7  C   -0.051183
    10  O   -0.116883
    11  C    0.627251
    12  N   -0.023401
    15  O   -0.537058
    16  N   -0.145882
    18  C    0.100027
    20  C    0.641265
    21  C    0.056179
    23  O   -0.494529
    24  C    0.062003
    27  C    0.013264
    31  C   -0.004609
    35  N   -0.282935
    37  C    0.177209
    39  C    0.634344
    40  C    0.068316
    44  O   -0.587872
    45  N   -0.231415
    47  C    0.105590
    49  C    0.625514
    50  C    0.297961
    52  O   -0.520745
    53  C    0.029835
    57  O   -0.221342
    59  N   -0.255291
    61  C    0.107306
    63  C    0.640569
    64  C    0.324865
    67  O   -0.541974
    68  O   -0.258697
    70  N   -0.224006
    72  C    0.148171
    75  C    0.598420
    76  O   -0.493526
    77  N   -0.250169
    79  C    0.171999
    81  C    0.582643
    82  C    0.042457
    85  O   -0.475373
    86  C    0.014050
    89  C    0.025890
    92  C    0.141331
    95  N   -0.112800
    98  O   -0.123452
 Electronic spatial extent (au):  <R**2>=          45617.8246
 Charge=              1.0000 electrons
 Dipole moment (field-independent basis, Debye):
    X=              1.4377    Y=             10.8430    Z=              3.3724  Tot=             11.4460
 Quadrupole moment (field-independent basis, Debye-Ang):
   XX=           -236.3287   YY=           -161.5762   ZZ=           -267.9401
   XY=            -20.6727   XZ=            -11.7038   YZ=            -25.4346
 Traceless Quadrupole moment (field-independent basis, Debye-Ang):
   XX=            -14.3804   YY=             60.3721   ZZ=            -45.9918
   XY=            -20.6727   XZ=            -11.7038   YZ=            -25.4346
 Octapole moment (field-independent basis, Debye-Ang**2):
  XXX=           -681.9903  YYY=           -898.9295  ZZZ=            949.7145  XYY=           -138.4506
  XXY=           -386.3459  XXZ=            244.7386  XZZ=           -337.4805  YZZ=           -315.1823
  YYZ=             73.7034  XYZ=           -137.0242
 Hexadecapole moment (field-independent basis, Debye-Ang**3):
 XXXX=         -16161.6668 YYYY=         -16460.0920 ZZZZ=         -18827.3577 XXXY=          -1685.5367
 XXXZ=           6268.9515 YYYX=          -1535.9443 YYYZ=           3075.9379 ZZZX=           7248.2272
 ZZZY=           4181.0153 XXYY=          -5276.0776 XXZZ=          -5588.2622 YYZZ=          -5281.2855
 XXYZ=           1100.6469 YYXZ=           1470.6530 ZZXY=           -209.6881
 N-N= 6.884225274885D+03 E-N=-1.937589496659D+04  KE= 2.396158533720D+03
 Unable to Open any file for archive entry.
 1\1\GINC-AMR-109\SP\RB3LYP\6-31G(d)\C28H52N9O11(1+)\KENGMITH\27-May-20
 22\0\\# B3LYP/6-31G* guess=read geom=check nosymm integral(ultrafinegr
 id)\\Candidate Structure: Conf:962 Charge calc in gas phase\\1,1\N,0,-
 2.445116177,3.7030838145,-0.6681866497\H,0,-2.3874484724,3.4149141749,
 -1.6407921693\H,0,-2.7706330139,4.6670255516,-0.6568725672\C,0,-1.1490
 85315,3.5656818604,-0.0056165541\H,0,-0.5088943911,2.8941143335,-0.596
 2950907\C,0,-1.3421039425,2.8683793074,1.3302075047\C,0,-0.3428211213,
 4.8716478951,0.120159921\H,0,-0.998549397,5.7032019405,0.4074930904\H,
 0,0.4177861717,4.7906612321,0.9063611927\O,0,-0.3337636539,2.612353456
 6,2.1184240403\C,0,0.3963587468,5.1433147882,-1.210629747\N,0,0.634328
 3328,6.4303179201,-1.4998603093\H,0,1.1757492184,6.7116809175,-2.35553
 15574\H,0,0.3316011333,7.1581920185,-0.8675198056\O,0,0.7462559626,4.1
 90141389,-1.9135173403\N,0,-2.5351431005,2.481369261,1.6811527013\H,0,
 -3.2387905558,2.7066718845,0.9691712266\C,0,-2.8840768437,1.6403218482
 ,2.8478318657\H,0,-2.0841522508,1.795233592,3.5760199063\C,0,-2.839036
 3234,0.1385884389,2.4044613184\C,0,-4.2192702612,2.1158914668,3.467952
 1308\H,0,-4.0391885228,3.1676193733,3.738412037\O,0,-3.8282975326,-0.5
 78672357,2.3923737311\C,0,-4.5484138724,1.3621623222,4.7765819563\H,0,
 -4.7639520327,0.3145410241,4.5446140536\H,0,-5.4815782733,1.7927244473
 ,5.1601291881\C,0,-5.4090441078,2.0744706804,2.4927794813\H,0,-5.62764
 80561,1.0517235559,2.1797460845\H,0,-6.2972701431,2.4821922284,2.98606
 17025\H,0,-5.2484838124,2.6867759398,1.5951230492\C,0,-3.4785866715,1.
 4534330316,5.8718391971\H,0,-3.8485389626,1.0098701884,6.8017161138\H,
 0,-2.5590354159,0.9153697331,5.610303271\H,0,-3.2094335819,2.494848505
 ,6.0891315193\N,0,-1.5984731874,-0.2586312146,2.0097158178\H,0,-0.7892
 133812,0.3142178306,2.2270413117\C,0,-1.2640431011,-1.5839937986,1.493
 0882591\H,0,-1.4106513541,-2.3357622167,2.2838689961\C,0,0.2458813639,
 -1.5206888213,1.168645431\C,0,-2.1176604936,-1.9751508427,0.2750859266
 \H,0,-1.9138548738,-3.0045737462,-0.0360809012\H,0,-3.172952791,-1.913
 2007447,0.5430808465\H,0,-1.9201118127,-1.3103551394,-0.5716787609\O,0
 ,0.9436190599,-0.5857111172,1.6037968147\N,0,0.7547365831,-2.491102841
 6,0.3959844256\H,0,0.2103474235,-3.3169876016,0.1705601092\C,0,2.15139
 38167,-2.5353818483,-0.0452792245\H,0,2.8063963387,-2.4736752435,0.834
 3432798\C,0,2.4050190208,-1.3423621223,-0.9987646648\C,0,2.3740559029,
 -3.8730328146,-0.8031809795\H,0,1.9119974965,-3.756392783,-1.787414277
 1\O,0,1.9934039508,-1.3518757695,-2.1565583568\C,0,3.85404089,-4.20118
 329,-0.9596862733\H,0,4.3855666965,-3.4026769091,-1.4887066063\H,0,3.9
 704695624,-5.1246248958,-1.5333183691\H,0,4.3358169663,-4.3373778981,0
 .017903872\O,0,1.6428240283,-4.9255164816,-0.1800611711\H,0,2.14377722
 25,-5.2420331682,0.5902553691\N,0,3.0615106593,-0.2754794023,-0.470627
 8318\H,0,3.3684920008,-0.3297177778,0.4923509991\C,0,2.9933209293,1.04
 65276885,-1.1032746069\H,0,2.0962641014,1.0379078951,-1.7332723115\C,0
 ,4.1909098524,1.3525664913,-2.019232923\C,0,2.8179753399,2.127904083,-
 0.0383774386\H,0,2.7245166082,3.0975530152,-0.5245281668\H,0,3.6738793
 599,2.1561194998,0.6470885596\O,0,4.9262525523,2.320096604,-1.80921255
 28\O,0,1.5967553298,1.897213213,0.6825985156\H,0,1.5236525405,0.955019
 7531,0.9591535148\N,0,4.32326788,0.5102161341,-3.0678364531\H,0,3.5977
 988513,-0.1866417266,-3.2150403909\C,0,5.3472775812,0.7041959405,-4.09
 40543918\H,0,6.2709623743,1.019876166,-3.5998234647\H,0,5.5154754275,-
 0.242289932,-4.6080265205\C,0,4.920915584,1.7398212216,-5.1540825768\O
 ,0,4.6685003296,1.4188437662,-6.3056614199\N,0,4.8338167566,3.01699006
 44,-4.6738424759\H,0,4.986029998,3.1613078287,-3.6782168156\C,0,4.2499
 496664,4.0878386675,-5.471831311\H,0,4.2998194235,3.7371557687,-6.5085
 237598\C,0,5.1385297314,5.3291066435,-5.353862569\C,0,2.7967324358,4.3
 940661102,-5.0811865988\H,0,2.2669253607,3.4381438887,-5.0016465671\H,
 0,2.7770092897,4.8352973667,-4.079416634\O,0,4.8164342583,6.3795124446
 ,-4.8293814191\C,0,2.0683733836,5.2931829582,-6.0998950253\H,0,2.75466
 5797,6.0548413969,-6.4927404724\H,0,1.7842571307,4.6757330539,-6.96071
 78946\C,0,0.8176947225,6.0000049742,-5.5304575456\H,0,0.3750615043,5.3
 895464795,-4.7321457784\H,0,0.0590219766,6.0868454177,-6.3181269254\C,
 0,1.0788115801,7.4186846536,-5.0101165735\H,0,1.4699764049,8.031102836
 7,-5.8384620781\H,0,0.1270660155,7.8709060427,-4.7043617511\N,0,1.9800
 187519,7.4477744385,-3.8365817623\H,0,2.1660954915,8.4217441639,-3.593
 1479298\H,0,2.89195074,7.0590658571,-4.0910140316\O,0,6.3537242593,5.1
 33722834,-5.891704549\H,0,6.8594812258,5.9591043142,-5.7629341542\H,0,
 0.5515733054,2.5882579573,1.608260505\\Version=ES64L-G16RevC.01\HF=-24
 18.4503449\RMSD=9.954e-10\Dipole=-1.3819016,0.8691536,3.2401765\Quadru
 pole=-10.6914597,44.8852094,-34.1937497,-15.369662,-8.7015073,-18.9099
 859\PG=C01 [X(C28H52N9O11)]\\@
 The archive entry for this job was punched.


 Ideas are like rabbits. You get a couple and learn
 how to handle them, and pretty soon you have a dozen.
                                    -- John Steinbeck
 Job cpu time:       0 days  0 hours  5 minutes  8.3 seconds.
 Elapsed time:       0 days  0 hours  1 minutes 17.8 seconds.
 File lengths (MBytes):  RWF=    472 Int=      0 D2E=      0 Chk=     72 Scr=     16
 Normal termination of Gaussian 16 at Fri May 27 02:50:41 2022.
