 Entering Gaussian System, Link 0=/opt/software/Gaussian/g16-AVX2-C.01/g16/g16
 Input=charge-conf-474.com
 Output=charge-conf-474.log
 Initial command:
 /opt/software/Gaussian/g16-AVX2-C.01/g16/l1.exe "/mnt/gs18/scratch/users/kengmith/Gau-29901.inp" -scrdir="/mnt/gs18/scratch/users/kengmith/"
 Entering Link 1 = /opt/software/Gaussian/g16-AVX2-C.01/g16/l1.exe PID=     29911.
  
 Copyright (c) 1988-2019, Gaussian, Inc.  All Rights Reserved.
  
 This is part of the Gaussian(R) 16 program.  It is based on
 the Gaussian(R) 09 system (copyright 2009, Gaussian, Inc.),
 the Gaussian(R) 03 system (copyright 2003, Gaussian, Inc.),
 the Gaussian(R) 98 system (copyright 1998, Gaussian, Inc.),
 the Gaussian(R) 94 system (copyright 1995, Gaussian, Inc.),
 the Gaussian 92(TM) system (copyright 1992, Gaussian, Inc.),
 the Gaussian 90(TM) system (copyright 1990, Gaussian, Inc.),
 the Gaussian 88(TM) system (copyright 1988, Gaussian, Inc.),
 the Gaussian 86(TM) system (copyright 1986, Carnegie Mellon
 University), and the Gaussian 82(TM) system (copyright 1983,
 Carnegie Mellon University). Gaussian is a federally registered
 trademark of Gaussian, Inc.
  
 This software contains proprietary and confidential information,
 including trade secrets, belonging to Gaussian, Inc.
  
 This software is provided under written license and may be
 used, copied, transmitted, or stored only in accord with that
 written license.
  
 The following legend is applicable only to US Government
 contracts under FAR:
  
                    RESTRICTED RIGHTS LEGEND
  
 Use, reproduction and disclosure by the US Government is
 subject to restrictions as set forth in subparagraphs (a)
 and (c) of the Commercial Computer Software - Restricted
 Rights clause in FAR 52.227-19.
  
 Gaussian, Inc.
 340 Quinnipiac St., Bldg. 40, Wallingford CT 06492
  
  
 ---------------------------------------------------------------
 Warning -- This program may not be used in any manner that
 competes with the business of Gaussian, Inc. or will provide
 assistance to any competitor of Gaussian, Inc.  The licensee
 of this program is prohibited from giving any competitor of
 Gaussian, Inc. access to this program.  By using this program,
 the user acknowledges that Gaussian, Inc. is engaged in the
 business of creating and licensing software in the field of
 computational chemistry and represents and warrants to the
 licensee that it is not a competitor of Gaussian, Inc. and that
 it will not use this program in any manner prohibited above.
 ---------------------------------------------------------------
  

 Cite this work as:
 Gaussian 16, Revision C.01,
 M. J. Frisch, G. W. Trucks, H. B. Schlegel, G. E. Scuseria, 
 M. A. Robb, J. R. Cheeseman, G. Scalmani, V. Barone, 
 G. A. Petersson, H. Nakatsuji, X. Li, M. Caricato, A. V. Marenich, 
 J. Bloino, B. G. Janesko, R. Gomperts, B. Mennucci, H. P. Hratchian, 
 J. V. Ortiz, A. F. Izmaylov, J. L. Sonnenberg, D. Williams-Young, 
 F. Ding, F. Lipparini, F. Egidi, J. Goings, B. Peng, A. Petrone, 
 T. Henderson, D. Ranasinghe, V. G. Zakrzewski, J. Gao, N. Rega, 
 G. Zheng, W. Liang, M. Hada, M. Ehara, K. Toyota, R. Fukuda, 
 J. Hasegawa, M. Ishida, T. Nakajima, Y. Honda, O. Kitao, H. Nakai, 
 T. Vreven, K. Throssell, J. A. Montgomery, Jr., J. E. Peralta, 
 F. Ogliaro, M. J. Bearpark, J. J. Heyd, E. N. Brothers, K. N. Kudin, 
 V. N. Staroverov, T. A. Keith, R. Kobayashi, J. Normand, 
 K. Raghavachari, A. P. Rendell, J. C. Burant, S. S. Iyengar, 
 J. Tomasi, M. Cossi, J. M. Millam, M. Klene, C. Adamo, R. Cammi, 
 J. W. Ochterski, R. L. Martin, K. Morokuma, O. Farkas, 
 J. B. Foresman, and D. J. Fox, Gaussian, Inc., Wallingford CT, 2019.
 
 ******************************************
 Gaussian 16:  ES64L-G16RevC.01  3-Jul-2019
                29-Jun-2022 
 ******************************************
 %mem=8gb
 %nproc=4
 Will use up to    4 processors via shared memory.
 %chk=conf-474.chk
 ----------------------------------------------------------------------
 # B3LYP/6-31G* empiricaldispersion=gd3bj guess=read geom=check nosymm 
 integral(ultrafinegrid)
 ----------------------------------------------------------------------
 1/29=2,38=1,172=1/1;
 2/12=2,15=1,40=1/2;
 3/5=1,6=6,7=1,11=2,14=-4,25=1,30=1,74=-5,75=-5,116=-2,124=41/1,2,3;
 4/5=1/1;
 5/5=2,38=6/2;
 6/7=2,8=2,9=2,10=2,28=1/1;
 99/5=1,9=1/99;
 ------------------------------------------------------
 Candidate Structure: Conf:474 Charge calc in gas phase
 ------------------------------------------------------
 Structure from the checkpoint file:  "conf-474.chk"
 Charge =  1 Multiplicity = 1
 Redundant internal coordinates found in file.  (old form).
 N,0,-5.1895067828,-2.633598416,-2.1361138448
 H,0,-5.0636153586,-3.6143465696,-2.3806137761
 H,0,-4.7136127558,-2.5269658042,-1.240925208
 C,0,-4.5010101385,-1.8062006913,-3.1151607981
 H,0,-4.7724366878,-2.1681486384,-4.1144942093
 C,0,-2.970622699,-1.8855599539,-2.9699456956
 C,0,-4.9754288126,-0.3292747541,-3.0190779343
 H,0,-4.663226143,0.2172016129,-3.9171390115
 H,0,-6.0688115956,-0.3624518583,-3.0321786568
 O,0,-2.4463485046,-2.5205388931,-2.0475871253
 C,0,-4.4817453163,0.4023233718,-1.791905118
 C,0,-5.0245585193,0.1316294133,-0.526893023
 H,0,-5.8270342119,-0.5949684773,-0.4402279291
 C,0,-3.4707981235,1.3662830278,-1.8923621804
 H,0,-3.0410011606,1.5984141259,-2.8632320789
 C,0,-4.5579794686,0.798508744,0.6063455319
 H,0,-4.9898693744,0.5763180465,1.5779096445
 C,0,-3.0206661838,2.0529570962,-0.7633922239
 H,0,-2.2599997335,2.8216185227,-0.8715242604
 C,0,-3.5552580786,1.7641009179,0.4929285819
 H,0,-3.1936988521,2.282793416,1.3748294121
 N,0,-2.2324746844,-1.2010753148,-3.881106532
 H,0,-2.7058884538,-0.6265116696,-4.5653576118
 C,0,-0.7723860253,-1.148806283,-3.8356566609
 H,0,-0.4074258074,-2.1563275574,-3.6158163089
 C,0,-0.3255159575,-0.2025378919,-2.7065399876
 C,0,-0.1913432102,-0.7046053144,-5.182166733
 H,0,-0.4795442539,0.3402551665,-5.3729067335
 H,0,-0.6227507381,-1.3318012086,-5.9685371046
 O,0,0.0773061747,0.946541354,-2.9328061892
 O,0,1.2010872246,-0.8944205391,-5.2266550522
 H,0,1.6346968314,-0.2710162173,-4.6170590886
 N,0,-0.4148444728,-0.7326639071,-1.4656424897
 H,0,-0.9434996097,-1.6084323439,-1.40856855
 C,0,-0.2987026697,0.0808463865,-0.2604917581
 H,0,-0.7603431226,1.0563823569,-0.4425854016
 C,0,1.1795373392,0.3232000812,0.081760871
 C,0,-1.0456786489,-0.5968306344,0.8900454275
 H,0,-0.6450651758,-1.614528705,1.0345468728
 H,0,-2.0991744702,-0.6844853725,0.6179960685
 O,0,1.7146521939,-0.1357363293,1.1217509306
 O,0,-0.9852927497,0.1679961273,2.0783737282
 H,0,-0.0430234979,0.3326318813,2.2421138075
 N,0,1.8430069482,1.0595493714,-0.8020502366
 H,0,1.3272219333,1.304227113,-1.6558630092
 C,0,3.2744482232,1.2900711498,-0.7236761354
 H,0,3.7922627407,0.3255284091,-0.7854889043
 C,0,3.6219193958,2.0055853082,0.5932290968
 C,0,3.7155269055,2.1864283454,-1.8851050716
 H,0,3.1883405946,3.1460179934,-1.8383347336
 H,0,4.7830852247,2.4176732516,-1.7960933007
 O,0,2.9606889905,2.9523645528,0.9995126528
 C,0,3.4738922116,1.5488069426,-3.2376650052
 O,0,3.0265010408,0.4304005491,-3.4007301247
 O,0,3.8134662273,2.3714357291,-4.2378621492
 N,0,4.7300902003,1.5275826435,1.217313809
 H,0,5.2445112675,0.7710994244,0.7879148015
 C,0,5.3615748441,2.2059840696,2.3422410992
 H,0,5.0897411674,3.2665075461,2.2704379667
 C,0,6.8851845316,2.1450176911,2.2519407898
 C,0,4.8875162752,1.6591281061,3.7040834577
 H,0,5.6248567731,1.9336021236,4.4626868079
 H,0,4.8873985022,0.5636499749,3.6365033655
 O,0,7.6186360278,2.4908445085,3.1451511083
 C,0,3.4918162707,2.1812011672,4.1033247549
 H,0,2.9398263476,2.5271220782,3.2231887796
 H,0,3.5963304841,3.0536589794,4.7559952086
 C,0,2.648248271,1.1399561173,4.8349530233
 H,0,3.2312619976,0.6731197629,5.6398433024
 H,0,1.7619573291,1.6116813151,5.2777045386
 N,0,2.2278308521,0.1026818615,3.8846306362
 H,0,2.3327270279,0.2871062645,2.8851456546
 N,0,1.3401867072,-1.3207579127,5.4908529003
 H,0,0.9879558865,-2.2277716942,5.7578205289
 H,0,1.552395373,-0.6687841548,6.2299343405
 N,0,1.3333392356,-1.9295905798,3.2459996214
 H,0,1.4033632395,-1.5938236882,2.2816787996
 H,0,0.6418462967,-2.6424801689,3.4315347285
 C,0,1.6252078985,-1.0386857104,4.2092057522
 O,0,7.3261100645,1.6665752991,1.0644812094
 H,0,8.3021036575,1.6766841141,1.1055381873
 H,0,3.6398578099,1.9061375318,-5.0792663721
 Recover connectivity data from disk.
                           ----------------------------
                           !    Current Parameters    !
                           ! (Angstroms and Degrees)  !
 --------------------------                            --------------------------
 ! Name  Definition              Value                                          !
 --------------------------------------------------------------------------------
 ! R1    R(1,2)                  1.0186                                         !
 ! R2    R(1,3)                  1.0194                                         !
 ! R3    R(1,4)                  1.455                                          !
 ! R4    R(4,5)                  1.097                                          !
 ! R5    R(4,6)                  1.5393                                         !
 ! R6    R(4,7)                  1.5542                                         !
 ! R7    R(6,10)                 1.2364                                         !
 ! R8    R(6,22)                 1.3578                                         !
 ! R9    R(7,8)                  1.0966                                         !
 ! R10   R(7,9)                  1.094                                          !
 ! R11   R(7,11)                 1.5116                                         !
 ! R12   R(11,12)                1.4029                                         !
 ! R13   R(11,14)                1.4005                                         !
 ! R14   R(12,13)                1.086                                          !
 ! R15   R(12,16)                1.3952                                         !
 ! R16   R(14,15)                1.0868                                         !
 ! R17   R(14,18)                1.396                                          !
 ! R18   R(16,17)                1.0862                                         !
 ! R19   R(16,20)                1.3967                                         !
 ! R20   R(18,19)                1.0868                                         !
 ! R21   R(18,20)                1.3956                                         !
 ! R22   R(20,21)                1.0851                                         !
 ! R23   R(22,23)                1.0112                                         !
 ! R24   R(22,24)                1.4617                                         !
 ! R25   R(24,25)                1.0939                                         !
 ! R26   R(24,26)                1.5395                                         !
 ! R27   R(24,27)                1.5323                                         !
 ! R28   R(26,30)                1.2385                                         !
 ! R29   R(26,33)                1.3523                                         !
 ! R30   R(27,28)                1.1005                                         !
 ! R31   R(27,29)                1.0945                                         !
 ! R32   R(27,31)                1.406                                          !
 ! R33   R(31,32)                0.9738                                         !
 ! R34   R(33,34)                1.0246                                         !
 ! R35   R(33,35)                1.4587                                         !
 ! R36   R(35,36)                1.0945                                         !
 ! R37   R(35,37)                1.5366                                         !
 ! R38   R(35,38)                1.53                                           !
 ! R39   R(37,41)                1.2564                                         !
 ! R40   R(37,44)                1.328                                          !
 ! R41   R(38,39)                1.1032                                         !
 ! R42   R(38,40)                1.0916                                         !
 ! R43   R(38,42)                1.4145                                         !
 ! R44   R(42,43)                0.9705                                         !
 ! R45   R(44,45)                1.0271                                         !
 ! R46   R(44,46)                1.452                                          !
 ! R47   R(46,47)                1.0965                                         !
 ! R48   R(46,48)                1.5385                                         !
 ! R49   R(46,49)                1.532                                          !
 ! R50   R(48,52)                1.2242                                         !
 ! R51   R(48,56)                1.3587                                         !
 ! R52   R(49,50)                1.0959                                         !
 ! R53   R(49,51)                1.0959                                         !
 ! R54   R(49,53)                1.5147                                         !
 ! R55   R(53,54)                1.2156                                         !
 ! R56   R(53,55)                1.3388                                         !
 ! R57   R(55,82)                0.977                                          !
 ! R58   R(56,57)                1.0106                                         !
 ! R59   R(56,58)                1.4576                                         !
 ! R60   R(58,59)                1.0972                                         !
 ! R61   R(58,60)                1.5275                                         !
 ! R62   R(58,61)                1.5422                                         !
 ! R63   R(60,64)                1.2064                                         !
 ! R64   R(60,80)                1.354                                          !
 ! R65   R(61,62)                1.0929                                         !
 ! R66   R(61,63)                1.0976                                         !
 ! R67   R(61,65)                1.5427                                         !
 ! R68   R(65,66)                1.095                                          !
 ! R69   R(65,67)                1.0946                                         !
 ! R70   R(65,68)                1.5268                                         !
 ! R71   R(68,69)                1.098                                          !
 ! R72   R(68,70)                1.0973                                         !
 ! R73   R(68,71)                1.4683                                         !
 ! R74   R(71,72)                1.0218                                         !
 ! R75   R(71,79)                1.3309                                         !
 ! R76   R(73,74)                1.009                                          !
 ! R77   R(73,75)                1.0081                                         !
 ! R78   R(73,79)                1.3429                                         !
 ! R79   R(76,77)                1.0235                                         !
 ! R80   R(76,78)                1.0103                                         !
 ! R81   R(76,79)                1.3441                                         !
 ! R82   R(80,81)                0.9769                                         !
 ! A1    A(2,1,3)              104.703                                          !
 ! A2    A(2,1,4)              109.1187                                         !
 ! A3    A(3,1,4)              108.089                                          !
 ! A4    A(1,4,5)              107.9551                                         !
 ! A5    A(1,4,6)              112.1879                                         !
 ! A6    A(1,4,7)              110.7523                                         !
 ! A7    A(5,4,6)              108.3565                                         !
 ! A8    A(5,4,7)              107.1175                                         !
 ! A9    A(6,4,7)              110.2816                                         !
 ! A10   A(4,6,10)             121.2255                                         !
 ! A11   A(4,6,22)             116.8202                                         !
 ! A12   A(10,6,22)            121.936                                          !
 ! A13   A(4,7,8)              109.6339                                         !
 ! A14   A(4,7,9)              105.9932                                         !
 ! A15   A(4,7,11)             114.231                                          !
 ! A16   A(8,7,9)              106.8486                                         !
 ! A17   A(8,7,11)             109.3095                                         !
 ! A18   A(9,7,11)             110.5378                                         !
 ! A19   A(7,11,12)            120.8161                                         !
 ! A20   A(7,11,14)            120.7079                                         !
 ! A21   A(12,11,14)           118.476                                          !
 ! A22   A(11,12,13)           119.1404                                         !
 ! A23   A(11,12,16)           120.7152                                         !
 ! A24   A(13,12,16)           120.1373                                         !
 ! A25   A(11,14,15)           119.7725                                         !
 ! A26   A(11,14,18)           120.8862                                         !
 ! A27   A(15,14,18)           119.3321                                         !
 ! A28   A(12,16,17)           119.7202                                         !
 ! A29   A(12,16,20)           120.3033                                         !
 ! A30   A(17,16,20)           119.9682                                         !
 ! A31   A(14,18,19)           119.5463                                         !
 ! A32   A(14,18,20)           120.1799                                         !
 ! A33   A(19,18,20)           120.2699                                         !
 ! A34   A(16,20,18)           119.4209                                         !
 ! A35   A(16,20,21)           120.2439                                         !
 ! A36   A(18,20,21)           120.335                                          !
 ! A37   A(6,22,23)            119.0801                                         !
 ! A38   A(6,22,24)            122.6965                                         !
 ! A39   A(23,22,24)           117.9295                                         !
 ! A40   A(22,24,25)           107.8527                                         !
 ! A41   A(22,24,26)           109.5561                                         !
 ! A42   A(22,24,27)           111.2113                                         !
 ! A43   A(25,24,26)           108.7769                                         !
 ! A44   A(25,24,27)           108.4867                                         !
 ! A45   A(26,24,27)           110.8699                                         !
 ! A46   A(24,26,30)           122.0533                                         !
 ! A47   A(24,26,33)           114.3851                                         !
 ! A48   A(30,26,33)           123.5614                                         !
 ! A49   A(24,27,28)           109.1609                                         !
 ! A50   A(24,27,29)           108.4079                                         !
 ! A51   A(24,27,31)           111.3582                                         !
 ! A52   A(28,27,29)           108.4405                                         !
 ! A53   A(28,27,31)           112.4597                                         !
 ! A54   A(29,27,31)           106.8738                                         !
 ! A55   A(27,31,32)           109.5571                                         !
 ! A56   A(26,33,34)           114.8521                                         !
 ! A57   A(26,33,35)           122.2919                                         !
 ! A58   A(34,33,35)           118.1501                                         !
 ! A59   A(33,35,36)           109.0293                                         !
 ! A60   A(33,35,37)           110.4011                                         !
 ! A61   A(33,35,38)           109.5964                                         !
 ! A62   A(36,35,37)           107.5925                                         !
 ! A63   A(36,35,38)           108.2983                                         !
 ! A64   A(37,35,38)           111.8418                                         !
 ! A65   A(35,37,41)           122.4456                                         !
 ! A66   A(35,37,44)           114.8257                                         !
 ! A67   A(41,37,44)           122.7278                                         !
 ! A68   A(35,38,39)           109.2564                                         !
 ! A69   A(35,38,40)           108.6228                                         !
 ! A70   A(35,38,42)           111.8029                                         !
 ! A71   A(39,38,40)           108.0009                                         !
 ! A72   A(39,38,42)           111.9167                                         !
 ! A73   A(40,38,42)           107.0977                                         !
 ! A74   A(38,42,43)           105.958                                          !
 ! A75   A(37,44,45)           115.7505                                         !
 ! A76   A(37,44,46)           123.0003                                         !
 ! A77   A(45,44,46)           120.1406                                         !
 ! A78   A(44,46,47)           108.836                                          !
 ! A79   A(44,46,48)           110.0411                                         !
 ! A80   A(44,46,49)           109.6218                                         !
 ! A81   A(47,46,48)           110.5305                                         !
 ! A82   A(47,46,49)           109.6325                                         !
 ! A83   A(48,46,49)           108.1675                                         !
 ! A84   A(46,48,52)           121.451                                          !
 ! A85   A(46,48,56)           114.4417                                         !
 ! A86   A(52,48,56)           124.0688                                         !
 ! A87   A(46,49,50)           109.9669                                         !
 ! A88   A(46,49,51)           110.0197                                         !
 ! A89   A(46,49,53)           112.6275                                         !
 ! A90   A(50,49,51)           106.283                                          !
 ! A91   A(50,49,53)           109.267                                          !
 ! A92   A(51,49,53)           108.4659                                         !
 ! A93   A(49,53,54)           124.4584                                         !
 ! A94   A(49,53,55)           111.5915                                         !
 ! A95   A(54,53,55)           123.9501                                         !
 ! A96   A(53,55,82)           107.799                                          !
 ! A97   A(48,56,57)           118.9053                                         !
 ! A98   A(48,56,58)           122.9652                                         !
 ! A99   A(57,56,58)           117.1168                                         !
 ! A100  A(56,58,59)           106.9804                                         !
 ! A101  A(56,58,60)           111.5889                                         !
 ! A102  A(56,58,61)           112.5389                                         !
 ! A103  A(59,58,60)           106.3701                                         !
 ! A104  A(59,58,61)           108.9283                                         !
 ! A105  A(60,58,61)           110.1609                                         !
 ! A106  A(58,60,64)           123.4503                                         !
 ! A107  A(58,60,80)           113.0017                                         !
 ! A108  A(64,60,80)           123.5477                                         !
 ! A109  A(58,61,62)           108.4511                                         !
 ! A110  A(58,61,63)           107.4325                                         !
 ! A111  A(58,61,65)           112.7448                                         !
 ! A112  A(62,61,63)           107.0659                                         !
 ! A113  A(62,61,65)           110.2272                                         !
 ! A114  A(63,61,65)           110.7083                                         !
 ! A115  A(61,65,66)           110.7914                                         !
 ! A116  A(61,65,67)           109.735                                          !
 ! A117  A(61,65,68)           113.1464                                         !
 ! A118  A(66,65,67)           105.9983                                         !
 ! A119  A(66,65,68)           108.7896                                         !
 ! A120  A(67,65,68)           108.0964                                         !
 ! A121  A(65,68,69)           110.3558                                         !
 ! A122  A(65,68,70)           110.2693                                         !
 ! A123  A(65,68,71)           109.2594                                         !
 ! A124  A(69,68,70)           108.4127                                         !
 ! A125  A(69,68,71)           109.0335                                         !
 ! A126  A(70,68,71)           109.4867                                         !
 ! A127  A(68,71,72)           118.439                                          !
 ! A128  A(68,71,79)           125.287                                          !
 ! A129  A(72,71,79)           116.0941                                         !
 ! A130  A(74,73,75)           117.4431                                         !
 ! A131  A(74,73,79)           121.0267                                         !
 ! A132  A(75,73,79)           121.2755                                         !
 ! A133  A(77,76,78)           116.8281                                         !
 ! A134  A(77,76,79)           116.2873                                         !
 ! A135  A(78,76,79)           118.9927                                         !
 ! A136  A(71,79,73)           120.5968                                         !
 ! A137  A(71,79,76)           119.4716                                         !
 ! A138  A(73,79,76)           119.9077                                         !
 ! A139  A(60,80,81)           106.5482                                         !
 ! D1    D(2,1,4,5)             47.5414                                         !
 ! D2    D(2,1,4,6)            -71.7787                                         !
 ! D3    D(2,1,4,7)            164.5198                                         !
 ! D4    D(3,1,4,5)            160.8585                                         !
 ! D5    D(3,1,4,6)             41.5384                                         !
 ! D6    D(3,1,4,7)            -82.1631                                         !
 ! D7    D(1,4,6,10)            -4.7394                                         !
 ! D8    D(1,4,6,22)           176.7868                                         !
 ! D9    D(5,4,6,10)          -123.824                                          !
 ! D10   D(5,4,6,22)            57.7022                                         !
 ! D11   D(7,4,6,10)           119.2248                                         !
 ! D12   D(7,4,6,22)           -59.249                                          !
 ! D13   D(1,4,7,8)           -164.8247                                         !
 ! D14   D(1,4,7,9)            -49.8399                                         !
 ! D15   D(1,4,7,11)            72.112                                          !
 ! D16   D(5,4,7,8)            -47.3321                                         !
 ! D17   D(5,4,7,9)             67.6527                                         !
 ! D18   D(5,4,7,11)          -170.3954                                         !
 ! D19   D(6,4,7,8)             70.3858                                         !
 ! D20   D(6,4,7,9)           -174.6294                                         !
 ! D21   D(6,4,7,11)           -52.6776                                         !
 ! D22   D(4,6,22,23)            4.1313                                         !
 ! D23   D(4,6,22,24)          177.7717                                         !
 ! D24   D(10,6,22,23)        -174.3308                                         !
 ! D25   D(10,6,22,24)          -0.6903                                         !
 ! D26   D(4,7,11,12)          -73.7037                                         !
 ! D27   D(4,7,11,14)          106.2743                                         !
 ! D28   D(8,7,11,12)          163.0574                                         !
 ! D29   D(8,7,11,14)          -16.9646                                         !
 ! D30   D(9,7,11,12)           45.7198                                         !
 ! D31   D(9,7,11,14)         -134.3022                                         !
 ! D32   D(7,11,12,13)          -1.6133                                         !
 ! D33   D(7,11,12,16)         179.3524                                         !
 ! D34   D(14,11,12,13)        178.4082                                         !
 ! D35   D(14,11,12,16)         -0.6261                                         !
 ! D36   D(7,11,14,15)           0.5178                                         !
 ! D37   D(7,11,14,18)         179.4047                                         !
 ! D38   D(12,11,14,15)       -179.5037                                         !
 ! D39   D(12,11,14,18)         -0.6168                                         !
 ! D40   D(11,12,16,17)        179.9991                                         !
 ! D41   D(11,12,16,20)          1.0482                                         !
 ! D42   D(13,12,16,17)          0.9745                                         !
 ! D43   D(13,12,16,20)       -177.9765                                         !
 ! D44   D(11,14,18,19)       -177.8357                                         !
 ! D45   D(11,14,18,20)          1.446                                          !
 ! D46   D(15,14,18,19)          1.0561                                         !
 ! D47   D(15,14,18,20)       -179.6623                                         !
 ! D48   D(12,16,20,18)         -0.2185                                         !
 ! D49   D(12,16,20,21)        179.9468                                         !
 ! D50   D(17,16,20,18)       -179.1668                                         !
 ! D51   D(17,16,20,21)          0.9984                                         !
 ! D52   D(14,18,20,16)         -1.0157                                         !
 ! D53   D(14,18,20,21)        178.8189                                         !
 ! D54   D(19,18,20,16)        178.2607                                         !
 ! D55   D(19,18,20,21)         -1.9047                                         !
 ! D56   D(6,22,24,25)          43.2541                                         !
 ! D57   D(6,22,24,26)         -74.9933                                         !
 ! D58   D(6,22,24,27)         162.092                                          !
 ! D59   D(23,22,24,25)       -143.0362                                         !
 ! D60   D(23,22,24,26)         98.7164                                         !
 ! D61   D(23,22,24,27)        -24.1983                                         !
 ! D62   D(22,24,26,30)       -102.6381                                         !
 ! D63   D(22,24,26,33)         77.2327                                         !
 ! D64   D(25,24,26,30)        139.6909                                         !
 ! D65   D(25,24,26,33)        -40.4383                                         !
 ! D66   D(27,24,26,30)         20.4788                                         !
 ! D67   D(27,24,26,33)       -159.6505                                         !
 ! D68   D(22,24,27,28)         66.4552                                         !
 ! D69   D(22,24,27,29)        -51.4864                                         !
 ! D70   D(22,24,27,31)       -168.7846                                         !
 ! D71   D(25,24,27,28)       -175.0878                                         !
 ! D72   D(25,24,27,29)         66.9706                                         !
 ! D73   D(25,24,27,31)        -50.3276                                         !
 ! D74   D(26,24,27,28)        -55.7013                                         !
 ! D75   D(26,24,27,29)       -173.6429                                         !
 ! D76   D(26,24,27,31)         69.0589                                         !
 ! D77   D(24,26,33,34)        -12.18                                           !
 ! D78   D(24,26,33,35)       -167.3787                                         !
 ! D79   D(30,26,33,34)        167.6885                                         !
 ! D80   D(30,26,33,35)         12.4899                                         !
 ! D81   D(24,27,31,32)        -68.7845                                         !
 ! D82   D(28,27,31,32)         54.1042                                         !
 ! D83   D(29,27,31,32)        172.9904                                         !
 ! D84   D(26,33,35,36)         35.7722                                         !
 ! D85   D(26,33,35,37)        -82.2224                                         !
 ! D86   D(26,33,35,38)        154.1525                                         !
 ! D87   D(34,33,35,36)       -118.6529                                         !
 ! D88   D(34,33,35,37)        123.3525                                         !
 ! D89   D(34,33,35,38)         -0.2726                                         !
 ! D90   D(33,35,37,41)       -114.4251                                         !
 ! D91   D(33,35,37,44)         65.9111                                         !
 ! D92   D(36,35,37,41)        126.7022                                         !
 ! D93   D(36,35,37,44)        -52.9616                                         !
 ! D94   D(38,35,37,41)          7.8906                                         !
 ! D95   D(38,35,37,44)       -171.7732                                         !
 ! D96   D(33,35,38,39)         56.725                                          !
 ! D97   D(33,35,38,40)        -60.8657                                         !
 ! D98   D(33,35,38,42)       -178.8319                                         !
 ! D99   D(36,35,38,39)        175.5581                                         !
 ! D100  D(36,35,38,40)         57.9673                                         !
 ! D101  D(36,35,38,42)        -59.9988                                         !
 ! D102  D(37,35,38,39)        -66.0496                                         !
 ! D103  D(37,35,38,40)        176.3596                                         !
 ! D104  D(37,35,38,42)         58.3935                                         !
 ! D105  D(35,37,44,45)         -5.9096                                         !
 ! D106  D(35,37,44,46)       -173.8622                                         !
 ! D107  D(41,37,44,45)        174.4276                                         !
 ! D108  D(41,37,44,46)          6.4751                                         !
 ! D109  D(35,38,42,43)        -54.0236                                         !
 ! D110  D(39,38,42,43)         68.9207                                         !
 ! D111  D(40,38,42,43)       -172.8979                                         !
 ! D112  D(37,44,46,47)         60.5591                                         !
 ! D113  D(37,44,46,48)        -60.6975                                         !
 ! D114  D(37,44,46,49)       -179.54                                           !
 ! D115  D(45,44,46,47)       -106.8854                                         !
 ! D116  D(45,44,46,48)        131.858                                          !
 ! D117  D(45,44,46,49)         13.0155                                         !
 ! D118  D(44,46,48,52)        -44.6048                                         !
 ! D119  D(44,46,48,56)        137.5651                                         !
 ! D120  D(47,46,48,52)       -164.8424                                         !
 ! D121  D(47,46,48,56)         17.3275                                         !
 ! D122  D(49,46,48,52)         75.1253                                         !
 ! D123  D(49,46,48,56)       -102.7048                                         !
 ! D124  D(44,46,49,50)         59.6294                                         !
 ! D125  D(44,46,49,51)        176.3651                                         !
 ! D126  D(44,46,49,53)        -62.4971                                         !
 ! D127  D(47,46,49,50)        179.0421                                         !
 ! D128  D(47,46,49,51)        -64.2222                                         !
 ! D129  D(47,46,49,53)         56.9156                                         !
 ! D130  D(48,46,49,50)        -60.3641                                         !
 ! D131  D(48,46,49,51)         56.3717                                         !
 ! D132  D(48,46,49,53)        177.5094                                         !
 ! D133  D(46,48,56,57)          0.8642                                         !
 ! D134  D(46,48,56,58)        169.011                                          !
 ! D135  D(52,48,56,57)       -176.9011                                         !
 ! D136  D(52,48,56,58)         -8.7543                                         !
 ! D137  D(46,49,53,54)         -2.5853                                         !
 ! D138  D(46,49,53,55)        177.3532                                         !
 ! D139  D(50,49,53,54)       -125.106                                          !
 ! D140  D(50,49,53,55)         54.8324                                         !
 ! D141  D(51,49,53,54)        119.4349                                         !
 ! D142  D(51,49,53,55)        -60.6267                                         !
 ! D143  D(49,53,55,82)        179.76                                           !
 ! D144  D(54,53,55,82)         -0.3012                                         !
 ! D145  D(48,56,58,59)        -24.3375                                         !
 ! D146  D(48,56,58,60)       -140.298                                          !
 ! D147  D(48,56,58,61)         95.2628                                         !
 ! D148  D(57,56,58,59)        144.0073                                         !
 ! D149  D(57,56,58,60)         28.0468                                         !
 ! D150  D(57,56,58,61)        -96.3925                                         !
 ! D151  D(56,58,60,64)       -170.6149                                         !
 ! D152  D(56,58,60,80)          9.5709                                         !
 ! D153  D(59,58,60,64)         73.0522                                         !
 ! D154  D(59,58,60,80)       -106.762                                          !
 ! D155  D(61,58,60,64)        -44.8529                                         !
 ! D156  D(61,58,60,80)        135.333                                          !
 ! D157  D(56,58,61,62)        160.0507                                         !
 ! D158  D(56,58,61,63)         44.6444                                         !
 ! D159  D(56,58,61,65)        -77.5995                                         !
 ! D160  D(59,58,61,62)        -81.4864                                         !
 ! D161  D(59,58,61,63)        163.1073                                         !
 ! D162  D(59,58,61,65)         40.8635                                         !
 ! D163  D(60,58,61,62)         34.8287                                         !
 ! D164  D(60,58,61,63)        -80.5776                                         !
 ! D165  D(60,58,61,65)        157.1786                                         !
 ! D166  D(58,60,80,81)        179.4359                                         !
 ! D167  D(64,60,80,81)         -0.378                                          !
 ! D168  D(58,61,65,66)         21.153                                          !
 ! D169  D(58,61,65,67)        -95.5532                                         !
 ! D170  D(58,61,65,68)        143.6331                                         !
 ! D171  D(62,61,65,66)        142.4993                                         !
 ! D172  D(62,61,65,67)         25.7932                                         !
 ! D173  D(62,61,65,68)        -95.0206                                         !
 ! D174  D(63,61,65,66)        -99.229                                          !
 ! D175  D(63,61,65,67)        144.0649                                         !
 ! D176  D(63,61,65,68)         23.2512                                         !
 ! D177  D(61,65,68,69)         48.4962                                         !
 ! D178  D(61,65,68,70)        168.2423                                         !
 ! D179  D(61,65,68,71)        -71.3781                                         !
 ! D180  D(66,65,68,69)        172.0842                                         !
 ! D181  D(66,65,68,70)        -68.1697                                         !
 ! D182  D(66,65,68,71)         52.2098                                         !
 ! D183  D(67,65,68,69)        -73.242                                          !
 ! D184  D(67,65,68,70)         46.5041                                         !
 ! D185  D(67,65,68,71)        166.8837                                         !
 ! D186  D(65,68,71,72)        -13.9446                                         !
 ! D187  D(65,68,71,79)        171.1336                                         !
 ! D188  D(69,68,71,72)       -134.6296                                         !
 ! D189  D(69,68,71,79)         50.4486                                         !
 ! D190  D(70,68,71,72)        106.9131                                         !
 ! D191  D(70,68,71,79)        -68.0087                                         !
 ! D192  D(68,71,79,73)          0.5887                                         !
 ! D193  D(68,71,79,76)       -177.6343                                         !
 ! D194  D(72,71,79,73)       -174.4394                                         !
 ! D195  D(72,71,79,76)          7.3376                                         !
 ! D196  D(74,73,79,71)       -172.4361                                         !
 ! D197  D(74,73,79,76)          5.7791                                         !
 ! D198  D(75,73,79,71)          1.6185                                         !
 ! D199  D(75,73,79,76)        179.8337                                         !
 ! D200  D(77,76,79,71)        -13.1839                                         !
 ! D201  D(77,76,79,73)        168.5806                                         !
 ! D202  D(78,76,79,71)       -161.3101                                         !
 ! D203  D(78,76,79,73)         20.4544                                         !
 --------------------------------------------------------------------------------
 Symmetry turned off by external request.
 Stoichiometry    C25H39N8O10(1+)
 Framework group  C1[X(C25H39N8O10)]
 Deg. of freedom   240
 Full point group                 C1      NOp   1
                          Input orientation:                          
 ---------------------------------------------------------------------
 Center     Atomic      Atomic             Coordinates (Angstroms)
 Number     Number       Type             X           Y           Z
 ---------------------------------------------------------------------
      1          7           0       -5.189507   -2.633598   -2.136114
      2          1           0       -5.063615   -3.614347   -2.380614
      3          1           0       -4.713613   -2.526966   -1.240925
      4          6           0       -4.501010   -1.806201   -3.115161
      5          1           0       -4.772437   -2.168149   -4.114494
      6          6           0       -2.970623   -1.885560   -2.969946
      7          6           0       -4.975429   -0.329275   -3.019078
      8          1           0       -4.663226    0.217202   -3.917139
      9          1           0       -6.068812   -0.362452   -3.032179
     10          8           0       -2.446349   -2.520539   -2.047587
     11          6           0       -4.481745    0.402323   -1.791905
     12          6           0       -5.024559    0.131629   -0.526893
     13          1           0       -5.827034   -0.594968   -0.440228
     14          6           0       -3.470798    1.366283   -1.892362
     15          1           0       -3.041001    1.598414   -2.863232
     16          6           0       -4.557979    0.798509    0.606346
     17          1           0       -4.989869    0.576318    1.577910
     18          6           0       -3.020666    2.052957   -0.763392
     19          1           0       -2.260000    2.821619   -0.871524
     20          6           0       -3.555258    1.764101    0.492929
     21          1           0       -3.193699    2.282793    1.374829
     22          7           0       -2.232475   -1.201075   -3.881107
     23          1           0       -2.705888   -0.626512   -4.565358
     24          6           0       -0.772386   -1.148806   -3.835657
     25          1           0       -0.407426   -2.156328   -3.615816
     26          6           0       -0.325516   -0.202538   -2.706540
     27          6           0       -0.191343   -0.704605   -5.182167
     28          1           0       -0.479544    0.340255   -5.372907
     29          1           0       -0.622751   -1.331801   -5.968537
     30          8           0        0.077306    0.946541   -2.932806
     31          8           0        1.201087   -0.894421   -5.226655
     32          1           0        1.634697   -0.271016   -4.617059
     33          7           0       -0.414844   -0.732664   -1.465642
     34          1           0       -0.943500   -1.608432   -1.408569
     35          6           0       -0.298703    0.080846   -0.260492
     36          1           0       -0.760343    1.056382   -0.442585
     37          6           0        1.179537    0.323200    0.081761
     38          6           0       -1.045679   -0.596831    0.890045
     39          1           0       -0.645065   -1.614529    1.034547
     40          1           0       -2.099174   -0.684485    0.617996
     41          8           0        1.714652   -0.135736    1.121751
     42          8           0       -0.985293    0.167996    2.078374
     43          1           0       -0.043023    0.332632    2.242114
     44          7           0        1.843007    1.059549   -0.802050
     45          1           0        1.327222    1.304227   -1.655863
     46          6           0        3.274448    1.290071   -0.723676
     47          1           0        3.792263    0.325528   -0.785489
     48          6           0        3.621919    2.005585    0.593229
     49          6           0        3.715527    2.186428   -1.885105
     50          1           0        3.188341    3.146018   -1.838335
     51          1           0        4.783085    2.417673   -1.796093
     52          8           0        2.960689    2.952365    0.999513
     53          6           0        3.473892    1.548807   -3.237665
     54          8           0        3.026501    0.430401   -3.400730
     55          8           0        3.813466    2.371436   -4.237862
     56          7           0        4.730090    1.527583    1.217314
     57          1           0        5.244511    0.771099    0.787915
     58          6           0        5.361575    2.205984    2.342241
     59          1           0        5.089741    3.266508    2.270438
     60          6           0        6.885185    2.145018    2.251941
     61          6           0        4.887516    1.659128    3.704083
     62          1           0        5.624857    1.933602    4.462687
     63          1           0        4.887399    0.563650    3.636503
     64          8           0        7.618636    2.490845    3.145151
     65          6           0        3.491816    2.181201    4.103325
     66          1           0        2.939826    2.527122    3.223189
     67          1           0        3.596330    3.053659    4.755995
     68          6           0        2.648248    1.139956    4.834953
     69          1           0        3.231262    0.673120    5.639843
     70          1           0        1.761957    1.611681    5.277705
     71          7           0        2.227831    0.102682    3.884631
     72          1           0        2.332727    0.287106    2.885146
     73          7           0        1.340187   -1.320758    5.490853
     74          1           0        0.987956   -2.227772    5.757821
     75          1           0        1.552395   -0.668784    6.229934
     76          7           0        1.333339   -1.929591    3.246000
     77          1           0        1.403363   -1.593824    2.281679
     78          1           0        0.641846   -2.642480    3.431535
     79          6           0        1.625208   -1.038686    4.209206
     80          8           0        7.326110    1.666575    1.064481
     81          1           0        8.302104    1.676684    1.105538
     82          1           0        3.639858    1.906138   -5.079266
 ---------------------------------------------------------------------
 Rotational constants (GHZ):           0.1121190           0.0485077           0.0383402
 Standard basis: 6-31G(d) (6D, 7F)
   723 basis functions,  1360 primitive gaussians,   723 cartesian basis functions
   162 alpha electrons      162 beta electrons
       nuclear repulsion energy      5749.4829757584 Hartrees.
 NAtoms=   82 NActive=   82 NUniq=   82 SFac= 1.00D+00 NAtFMM=   60 NAOKFM=T Big=T
 Integral buffers will be    131072 words long.
 Raffenetti 2 integral format.
 Two-electron integral symmetry is turned off.
 Nuclear repulsion after empirical dispersion term =     5749.2932995156 Hartrees.
 One-electron integrals computed using PRISM.
 NBasis=   723 RedAO= T EigKep=  4.64D-04  NBF=   723
 NBsUse=   723 1.00D-06 EigRej= -1.00D+00 NBFU=   723
 Initial guess from the checkpoint file:  "conf-474.chk"
 B after Tr=     0.000000    0.000000    0.000000
         Rot=    1.000000    0.000000    0.000000    0.000000 Ang=   0.00 deg.
 Requested convergence on RMS density matrix=1.00D-08 within 128 cycles.
 Requested convergence on MAX density matrix=1.00D-06.
 Requested convergence on             energy=1.00D-06.
 No special actions if energy rises.
 SCF Done:  E(RB3LYP) =  -2166.48735041     A.U. after    3 cycles
            NFock=  3  Conv=0.92D-09     -V/T= 2.0092

 **********************************************************************

            Population analysis using the SCF Density.

 **********************************************************************

 Alpha  occ. eigenvalues --  -19.30178 -19.29829 -19.25192 -19.24756 -19.24067
 Alpha  occ. eigenvalues --  -19.23931 -19.22385 -19.22202 -19.21322 -19.20656
 Alpha  occ. eigenvalues --  -14.51873 -14.50624 -14.49879 -14.47194 -14.47060
 Alpha  occ. eigenvalues --  -14.45850 -14.45533 -14.38521 -10.47317 -10.42989
 Alpha  occ. eigenvalues --  -10.42365 -10.40830 -10.39648 -10.38621 -10.37608
 Alpha  occ. eigenvalues --  -10.35617 -10.35057 -10.34689 -10.33242 -10.33115
 Alpha  occ. eigenvalues --  -10.31946 -10.31500 -10.31069 -10.30505 -10.29783
 Alpha  occ. eigenvalues --  -10.29605 -10.26928 -10.26820 -10.26214 -10.26154
 Alpha  occ. eigenvalues --  -10.26044 -10.25968 -10.25817  -1.21110  -1.20890
 Alpha  occ. eigenvalues --   -1.16514  -1.15857  -1.14303  -1.14012  -1.12779
 Alpha  occ. eigenvalues --   -1.12218  -1.11867  -1.11578  -1.08464  -1.05355
 Alpha  occ. eigenvalues --   -1.04535  -1.04009  -1.03776  -1.02548  -1.01727
 Alpha  occ. eigenvalues --   -0.96512  -0.92584  -0.91959  -0.90612  -0.87130
 Alpha  occ. eigenvalues --   -0.86851  -0.85399  -0.83469  -0.81533  -0.81242
 Alpha  occ. eigenvalues --   -0.79888  -0.78841  -0.78038  -0.75239  -0.73961
 Alpha  occ. eigenvalues --   -0.73545  -0.72549  -0.72441  -0.71736  -0.70357
 Alpha  occ. eigenvalues --   -0.69584  -0.69322  -0.68585  -0.67704  -0.67663
 Alpha  occ. eigenvalues --   -0.67213  -0.65041  -0.64754  -0.64380  -0.63606
 Alpha  occ. eigenvalues --   -0.63400  -0.62824  -0.61860  -0.60931  -0.60767
 Alpha  occ. eigenvalues --   -0.60024  -0.59821  -0.59478  -0.58782  -0.58595
 Alpha  occ. eigenvalues --   -0.58495  -0.58190  -0.57389  -0.57281  -0.56789
 Alpha  occ. eigenvalues --   -0.56431  -0.56094  -0.55610  -0.55146  -0.54453
 Alpha  occ. eigenvalues --   -0.54073  -0.53592  -0.53383  -0.52856  -0.52724
 Alpha  occ. eigenvalues --   -0.52200  -0.51693  -0.51494  -0.51045  -0.50741
 Alpha  occ. eigenvalues --   -0.50355  -0.49923  -0.49551  -0.49286  -0.49011
 Alpha  occ. eigenvalues --   -0.48789  -0.48747  -0.48556  -0.47876  -0.47464
 Alpha  occ. eigenvalues --   -0.47215  -0.46577  -0.46343  -0.46277  -0.45705
 Alpha  occ. eigenvalues --   -0.45256  -0.44969  -0.44559  -0.43768  -0.42477
 Alpha  occ. eigenvalues --   -0.42429  -0.42270  -0.41839  -0.41010  -0.40488
 Alpha  occ. eigenvalues --   -0.40219  -0.39923  -0.39572  -0.38856  -0.38554
 Alpha  occ. eigenvalues --   -0.37922  -0.37664  -0.37066  -0.36094  -0.35641
 Alpha  occ. eigenvalues --   -0.35504  -0.34895  -0.34648  -0.33276  -0.32198
 Alpha  occ. eigenvalues --   -0.32120  -0.30999
 Alpha virt. eigenvalues --   -0.11297  -0.10753  -0.09734  -0.09326  -0.08581
 Alpha virt. eigenvalues --   -0.08514  -0.07722  -0.07423  -0.07189  -0.06701
 Alpha virt. eigenvalues --   -0.03864  -0.03149  -0.01998  -0.01796  -0.01515
 Alpha virt. eigenvalues --   -0.01324  -0.00449   0.00312   0.01233   0.01783
 Alpha virt. eigenvalues --    0.02002   0.02498   0.02715   0.03074   0.03495
 Alpha virt. eigenvalues --    0.03807   0.04209   0.04781   0.04983   0.05525
 Alpha virt. eigenvalues --    0.05680   0.06037   0.06193   0.06536   0.07008
 Alpha virt. eigenvalues --    0.07370   0.07489   0.08213   0.08315   0.08562
 Alpha virt. eigenvalues --    0.08762   0.09124   0.09685   0.09700   0.10151
 Alpha virt. eigenvalues --    0.10294   0.10473   0.11144   0.11312   0.11862
 Alpha virt. eigenvalues --    0.12124   0.12305   0.12350   0.12689   0.12853
 Alpha virt. eigenvalues --    0.13463   0.13804   0.14532   0.14683   0.15265
 Alpha virt. eigenvalues --    0.15755   0.16340   0.16487   0.16948   0.17300
 Alpha virt. eigenvalues --    0.17938   0.18019   0.18490   0.19617   0.19714
 Alpha virt. eigenvalues --    0.20189   0.21413   0.22235   0.22671   0.23549
 Alpha virt. eigenvalues --    0.24214   0.24911   0.25108   0.25309   0.26004
 Alpha virt. eigenvalues --    0.26525   0.26895   0.28388   0.28613   0.29489
 Alpha virt. eigenvalues --    0.30664   0.31975   0.32603   0.33349   0.35193
 Alpha virt. eigenvalues --    0.36545   0.37740   0.38401   0.38648   0.39571
 Alpha virt. eigenvalues --    0.40311   0.40926   0.41449   0.42416   0.42838
 Alpha virt. eigenvalues --    0.43403   0.43872   0.44683   0.45032   0.45250
 Alpha virt. eigenvalues --    0.45633   0.45916   0.46217   0.46612   0.46949
 Alpha virt. eigenvalues --    0.47965   0.48096   0.48256   0.48579   0.48939
 Alpha virt. eigenvalues --    0.49106   0.49781   0.50055   0.50102   0.50494
 Alpha virt. eigenvalues --    0.50853   0.51394   0.52100   0.52427   0.52564
 Alpha virt. eigenvalues --    0.52876   0.53189   0.53486   0.53610   0.53999
 Alpha virt. eigenvalues --    0.54427   0.54711   0.54993   0.55373   0.55861
 Alpha virt. eigenvalues --    0.56057   0.56334   0.56551   0.57079   0.57485
 Alpha virt. eigenvalues --    0.57685   0.58051   0.58566   0.58882   0.59379
 Alpha virt. eigenvalues --    0.60223   0.60629   0.60841   0.61775   0.62392
 Alpha virt. eigenvalues --    0.62859   0.64184   0.64769   0.65269   0.65630
 Alpha virt. eigenvalues --    0.66093   0.66189   0.66728   0.67789   0.68176
 Alpha virt. eigenvalues --    0.68587   0.69180   0.69962   0.70504   0.70788
 Alpha virt. eigenvalues --    0.71011   0.71351   0.71731   0.72110   0.72520
 Alpha virt. eigenvalues --    0.72833   0.73261   0.73313   0.73855   0.74007
 Alpha virt. eigenvalues --    0.74385   0.74766   0.75031   0.75669   0.75725
 Alpha virt. eigenvalues --    0.76130   0.76572   0.76962   0.77277   0.77510
 Alpha virt. eigenvalues --    0.77943   0.78054   0.78235   0.78570   0.78804
 Alpha virt. eigenvalues --    0.79004   0.79508   0.79752   0.80181   0.80305
 Alpha virt. eigenvalues --    0.80572   0.81007   0.81512   0.81898   0.82162
 Alpha virt. eigenvalues --    0.82457   0.83031   0.83240   0.83779   0.84109
 Alpha virt. eigenvalues --    0.84753   0.84824   0.85101   0.85585   0.86039
 Alpha virt. eigenvalues --    0.86738   0.86880   0.86958   0.87466   0.87911
 Alpha virt. eigenvalues --    0.88350   0.88467   0.88944   0.89540   0.89851
 Alpha virt. eigenvalues --    0.90657   0.90952   0.91545   0.92278   0.92585
 Alpha virt. eigenvalues --    0.93339   0.93879   0.94371   0.95553   0.95929
 Alpha virt. eigenvalues --    0.96496   0.96830   0.97200   0.98073   0.98986
 Alpha virt. eigenvalues --    0.99332   0.99839   1.00626   1.01345   1.01660
 Alpha virt. eigenvalues --    1.01969   1.02585   1.03302   1.03509   1.05062
 Alpha virt. eigenvalues --    1.05330   1.05755   1.06512   1.07398   1.07471
 Alpha virt. eigenvalues --    1.07911   1.08482   1.09598   1.10783   1.11220
 Alpha virt. eigenvalues --    1.11581   1.12508   1.13816   1.14917   1.15118
 Alpha virt. eigenvalues --    1.15657   1.16282   1.17267   1.17436   1.18322
 Alpha virt. eigenvalues --    1.19104   1.19347   1.19573   1.21034   1.21349
 Alpha virt. eigenvalues --    1.21912   1.22867   1.24104   1.24248   1.25071
 Alpha virt. eigenvalues --    1.25810   1.26337   1.26814   1.28456   1.29082
 Alpha virt. eigenvalues --    1.30110   1.31581   1.32296   1.32871   1.33321
 Alpha virt. eigenvalues --    1.33659   1.34634   1.35182   1.35351   1.36164
 Alpha virt. eigenvalues --    1.37468   1.38336   1.38729   1.39569   1.40218
 Alpha virt. eigenvalues --    1.40474   1.41259   1.41439   1.42221   1.43031
 Alpha virt. eigenvalues --    1.43410   1.44466   1.44697   1.45042   1.46157
 Alpha virt. eigenvalues --    1.46925   1.47263   1.48038   1.48282   1.50082
 Alpha virt. eigenvalues --    1.51072   1.51290   1.52700   1.53330   1.53794
 Alpha virt. eigenvalues --    1.54333   1.55776   1.56940   1.57197   1.57704
 Alpha virt. eigenvalues --    1.58639   1.59329   1.60063   1.60733   1.61383
 Alpha virt. eigenvalues --    1.61995   1.62594   1.63311   1.63584   1.64143
 Alpha virt. eigenvalues --    1.64496   1.65473   1.65891   1.66367   1.67169
 Alpha virt. eigenvalues --    1.67888   1.68247   1.69151   1.69762   1.70260
 Alpha virt. eigenvalues --    1.71035   1.71201   1.72065   1.72896   1.73186
 Alpha virt. eigenvalues --    1.73448   1.73719   1.74121   1.74744   1.75110
 Alpha virt. eigenvalues --    1.75687   1.76239   1.76502   1.77286   1.77555
 Alpha virt. eigenvalues --    1.77776   1.78765   1.79381   1.79838   1.80863
 Alpha virt. eigenvalues --    1.81242   1.81581   1.82185   1.82348   1.82621
 Alpha virt. eigenvalues --    1.83467   1.83726   1.84118   1.84615   1.84986
 Alpha virt. eigenvalues --    1.85582   1.86150   1.86318   1.86867   1.87194
 Alpha virt. eigenvalues --    1.87607   1.87807   1.87993   1.88795   1.89174
 Alpha virt. eigenvalues --    1.90591   1.91070   1.92042   1.92552   1.92813
 Alpha virt. eigenvalues --    1.93374   1.94860   1.95578   1.95948   1.96568
 Alpha virt. eigenvalues --    1.97461   1.98262   1.98885   1.99661   2.00081
 Alpha virt. eigenvalues --    2.00457   2.00756   2.01003   2.01503   2.02263
 Alpha virt. eigenvalues --    2.02865   2.03374   2.04111   2.04590   2.05658
 Alpha virt. eigenvalues --    2.07117   2.07428   2.08221   2.08430   2.09411
 Alpha virt. eigenvalues --    2.10075   2.10431   2.11351   2.12394   2.12828
 Alpha virt. eigenvalues --    2.13464   2.14633   2.14959   2.16130   2.16501
 Alpha virt. eigenvalues --    2.16830   2.19615   2.20080   2.20267   2.20833
 Alpha virt. eigenvalues --    2.21700   2.22188   2.22690   2.23096   2.24139
 Alpha virt. eigenvalues --    2.24459   2.24951   2.25857   2.26218   2.27876
 Alpha virt. eigenvalues --    2.28760   2.28936   2.29212   2.30839   2.30977
 Alpha virt. eigenvalues --    2.32233   2.33061   2.33806   2.33937   2.34953
 Alpha virt. eigenvalues --    2.35147   2.35699   2.37316   2.37725   2.39211
 Alpha virt. eigenvalues --    2.39453   2.40000   2.40846   2.41373   2.41829
 Alpha virt. eigenvalues --    2.42376   2.43921   2.44693   2.45125   2.46251
 Alpha virt. eigenvalues --    2.46850   2.47176   2.49010   2.50100   2.51639
 Alpha virt. eigenvalues --    2.51760   2.52518   2.53375   2.54141   2.54294
 Alpha virt. eigenvalues --    2.55865   2.56101   2.56713   2.57128   2.58595
 Alpha virt. eigenvalues --    2.59087   2.59378   2.59623   2.60665   2.61983
 Alpha virt. eigenvalues --    2.62693   2.63329   2.64452   2.64950   2.66185
 Alpha virt. eigenvalues --    2.66947   2.67772   2.68337   2.68382   2.70453
 Alpha virt. eigenvalues --    2.71047   2.73441   2.74396   2.77101   2.79313
 Alpha virt. eigenvalues --    2.80003   2.81490   2.82465   2.83449   2.85589
 Alpha virt. eigenvalues --    2.88894   2.89415   2.90313   2.92119   2.92627
 Alpha virt. eigenvalues --    2.93405   2.95071   2.95673   2.97010   2.98598
 Alpha virt. eigenvalues --    3.00097   3.01153   3.02605   3.07224   3.07454
 Alpha virt. eigenvalues --    3.09178   3.10992   3.34238   3.66963   3.73843
 Alpha virt. eigenvalues --    3.74357   3.75893   3.77827   3.78956   3.83868
 Alpha virt. eigenvalues --    3.87577   3.92917   3.95779   3.96799   3.98242
 Alpha virt. eigenvalues --    4.00105   4.02762   4.04635   4.08588   4.09843
 Alpha virt. eigenvalues --    4.10962   4.11150   4.13489   4.14255   4.15165
 Alpha virt. eigenvalues --    4.16485   4.19307   4.22725   4.23823   4.27027
 Alpha virt. eigenvalues --    4.28647   4.29550   4.32077   4.35996   4.36789
 Alpha virt. eigenvalues --    4.39185   4.40830   4.44798   4.45409   4.48350
 Alpha virt. eigenvalues --    4.51066   4.54081   4.56390   4.59539   4.62651
 Alpha virt. eigenvalues --    4.67078
          Condensed to atoms (all electrons):
 Mulliken charges:
               1
     1  N   -0.689266
     2  H    0.313935
     3  H    0.311469
     4  C   -0.094337
     5  H    0.167492
     6  C    0.616682
     7  C   -0.348388
     8  H    0.136015
     9  H    0.191092
    10  O   -0.553870
    11  C    0.154760
    12  C   -0.191835
    13  H    0.161265
    14  C   -0.186942
    15  H    0.128147
    16  C   -0.137472
    17  H    0.143449
    18  C   -0.153676
    19  H    0.143439
    20  C   -0.119521
    21  H    0.145219
    22  N   -0.601413
    23  H    0.344381
    24  C   -0.072500
    25  H    0.196632
    26  C    0.644430
    27  C   -0.046176
    28  H    0.140164
    29  H    0.158768
    30  O   -0.568740
    31  O   -0.644444
    32  H    0.430419
    33  N   -0.627966
    34  H    0.395592
    35  C   -0.090349
    36  H    0.207385
    37  C    0.658500
    38  C   -0.061609
    39  H    0.109621
    40  H    0.195951
    41  O   -0.624752
    42  O   -0.631788
    43  H    0.395633
    44  N   -0.598609
    45  H    0.411736
    46  C   -0.027222
    47  H    0.176926
    48  C    0.630432
    49  C   -0.402828
    50  H    0.228754
    51  H    0.212467
    52  O   -0.520921
    53  C    0.596828
    54  O   -0.464034
    55  O   -0.543078
    56  N   -0.611844
    57  H    0.350777
    58  C   -0.062691
    59  H    0.222709
    60  C    0.586972
    61  C   -0.276792
    62  H    0.198736
    63  H    0.147459
    64  O   -0.436012
    65  C   -0.339612
    66  H    0.212796
    67  H    0.181558
    68  C   -0.159405
    69  H    0.172483
    70  H    0.186553
    71  N   -0.634946
    72  H    0.415910
    73  N   -0.765868
    74  H    0.381144
    75  H    0.388440
    76  N   -0.775951
    77  H    0.413038
    78  H    0.366199
    79  C    0.807468
    80  O   -0.578878
    81  H    0.431974
    82  H    0.431933
 Sum of Mulliken charges =   1.00000
 Mulliken charges with hydrogens summed into heavy atoms:
               1
     1  N   -0.063863
     4  C    0.073155
     6  C    0.616682
     7  C   -0.021281
    10  O   -0.553870
    11  C    0.154760
    12  C   -0.030570
    14  C   -0.058795
    16  C    0.005977
    18  C   -0.010237
    20  C    0.025699
    22  N   -0.257032
    24  C    0.124132
    26  C    0.644430
    27  C    0.252756
    30  O   -0.568740
    31  O   -0.214025
    33  N   -0.232374
    35  C    0.117036
    37  C    0.658500
    38  C    0.243962
    41  O   -0.624752
    42  O   -0.236156
    44  N   -0.186873
    46  C    0.149704
    48  C    0.630432
    49  C    0.038392
    52  O   -0.520921
    53  C    0.596828
    54  O   -0.464034
    55  O   -0.111144
    56  N   -0.261067
    58  C    0.160019
    60  C    0.586972
    61  C    0.069404
    64  O   -0.436012
    65  C    0.054742
    68  C    0.199631
    71  N   -0.219035
    73  N    0.003716
    76  N    0.003286
    79  C    0.807468
    80  O   -0.146905
 Electronic spatial extent (au):  <R**2>=          28349.5823
 Charge=              1.0000 electrons
 Dipole moment (field-independent basis, Debye):
    X=              8.2914    Y=             -2.0170    Z=              8.3876  Tot=             11.9653
 Quadrupole moment (field-independent basis, Debye-Ang):
   XX=           -186.2177   YY=           -238.4634   ZZ=           -143.1070
   XY=             14.2655   XZ=             27.6064   YZ=            -22.5628
 Traceless Quadrupole moment (field-independent basis, Debye-Ang):
   XX=              3.0450   YY=            -49.2007   ZZ=             46.1557
   XY=             14.2655   XZ=             27.6064   YZ=            -22.5628
 Octapole moment (field-independent basis, Debye-Ang**2):
  XXX=           -138.7675  YYY=           -349.1050  ZZZ=            498.1184  XYY=           -163.0388
  XXY=            -66.1899  XXZ=            -34.1436  XZZ=           -127.7384  YZZ=           -148.4906
  YYZ=            101.8431  XYZ=            -73.6110
 Hexadecapole moment (field-independent basis, Debye-Ang**3):
 XXXX=         -17048.6437 YYYY=          -3778.2315 ZZZZ=          -9411.4784 XXXY=          -2222.2415
 XXXZ=          -3600.4902 YYYX=          -2370.7817 YYYZ=           -820.1163 ZZZX=          -2178.4724
 ZZZY=          -1343.6943 XXYY=          -3914.1397 XXZZ=          -5049.3329 YYZZ=          -2471.5455
 XXYZ=           -477.6697 YYXZ=          -1014.1927 ZZXY=           -650.4532
 N-N= 5.749293299516D+03 E-N=-1.652329026530D+04  KE= 2.146823783359D+03
 Unable to Open any file for archive entry.
 1\1\GINC-LAC-313\SP\RB3LYP\6-31G(d)\C25H39N8O10(1+)\KENGMITH\29-Jun-20
 22\0\\# B3LYP/6-31G* empiricaldispersion=gd3bj guess=read geom=check n
 osymm integral(ultrafinegrid)\\Candidate Structure: Conf:474 Charge ca
 lc in gas phase\\1,1\N,0,-5.1895067828,-2.633598416,-2.1361138448\H,0,
 -5.0636153586,-3.6143465696,-2.3806137761\H,0,-4.7136127558,-2.5269658
 042,-1.240925208\C,0,-4.5010101385,-1.8062006913,-3.1151607981\H,0,-4.
 7724366878,-2.1681486384,-4.1144942093\C,0,-2.970622699,-1.8855599539,
 -2.9699456956\C,0,-4.9754288126,-0.3292747541,-3.0190779343\H,0,-4.663
 226143,0.2172016129,-3.9171390115\H,0,-6.0688115956,-0.3624518583,-3.0
 321786568\O,0,-2.4463485046,-2.5205388931,-2.0475871253\C,0,-4.4817453
 163,0.4023233718,-1.791905118\C,0,-5.0245585193,0.1316294133,-0.526893
 023\H,0,-5.8270342119,-0.5949684773,-0.4402279291\C,0,-3.4707981235,1.
 3662830278,-1.8923621804\H,0,-3.0410011606,1.5984141259,-2.8632320789\
 C,0,-4.5579794686,0.798508744,0.6063455319\H,0,-4.9898693744,0.5763180
 465,1.5779096445\C,0,-3.0206661838,2.0529570962,-0.7633922239\H,0,-2.2
 599997335,2.8216185227,-0.8715242604\C,0,-3.5552580786,1.7641009179,0.
 4929285819\H,0,-3.1936988521,2.282793416,1.3748294121\N,0,-2.232474684
 4,-1.2010753148,-3.881106532\H,0,-2.7058884538,-0.6265116696,-4.565357
 6118\C,0,-0.7723860253,-1.148806283,-3.8356566609\H,0,-0.4074258074,-2
 .1563275574,-3.6158163089\C,0,-0.3255159575,-0.2025378919,-2.706539987
 6\C,0,-0.1913432102,-0.7046053144,-5.182166733\H,0,-0.4795442539,0.340
 2551665,-5.3729067335\H,0,-0.6227507381,-1.3318012086,-5.9685371046\O,
 0,0.0773061747,0.946541354,-2.9328061892\O,0,1.2010872246,-0.894420539
 1,-5.2266550522\H,0,1.6346968314,-0.2710162173,-4.6170590886\N,0,-0.41
 48444728,-0.7326639071,-1.4656424897\H,0,-0.9434996097,-1.6084323439,-
 1.40856855\C,0,-0.2987026697,0.0808463865,-0.2604917581\H,0,-0.7603431
 226,1.0563823569,-0.4425854016\C,0,1.1795373392,0.3232000812,0.0817608
 71\C,0,-1.0456786489,-0.5968306344,0.8900454275\H,0,-0.6450651758,-1.6
 14528705,1.0345468728\H,0,-2.0991744702,-0.6844853725,0.6179960685\O,0
 ,1.7146521939,-0.1357363293,1.1217509306\O,0,-0.9852927497,0.167996127
 3,2.0783737282\H,0,-0.0430234979,0.3326318813,2.2421138075\N,0,1.84300
 69482,1.0595493714,-0.8020502366\H,0,1.3272219333,1.304227113,-1.65586
 30092\C,0,3.2744482232,1.2900711498,-0.7236761354\H,0,3.7922627407,0.3
 255284091,-0.7854889043\C,0,3.6219193958,2.0055853082,0.5932290968\C,0
 ,3.7155269055,2.1864283454,-1.8851050716\H,0,3.1883405946,3.1460179934
 ,-1.8383347336\H,0,4.7830852247,2.4176732516,-1.7960933007\O,0,2.96068
 89905,2.9523645528,0.9995126528\C,0,3.4738922116,1.5488069426,-3.23766
 50052\O,0,3.0265010408,0.4304005491,-3.4007301247\O,0,3.8134662273,2.3
 714357291,-4.2378621492\N,0,4.7300902003,1.5275826435,1.217313809\H,0,
 5.2445112675,0.7710994244,0.7879148015\C,0,5.3615748441,2.2059840696,2
 .3422410992\H,0,5.0897411674,3.2665075461,2.2704379667\C,0,6.885184531
 6,2.1450176911,2.2519407898\C,0,4.8875162752,1.6591281061,3.7040834577
 \H,0,5.6248567731,1.9336021236,4.4626868079\H,0,4.8873985022,0.5636499
 749,3.6365033655\O,0,7.6186360278,2.4908445085,3.1451511083\C,0,3.4918
 162707,2.1812011672,4.1033247549\H,0,2.9398263476,2.5271220782,3.22318
 87796\H,0,3.5963304841,3.0536589794,4.7559952086\C,0,2.648248271,1.139
 9561173,4.8349530233\H,0,3.2312619976,0.6731197629,5.6398433024\H,0,1.
 7619573291,1.6116813151,5.2777045386\N,0,2.2278308521,0.1026818615,3.8
 846306362\H,0,2.3327270279,0.2871062645,2.8851456546\N,0,1.3401867072,
 -1.3207579127,5.4908529003\H,0,0.9879558865,-2.2277716942,5.7578205289
 \H,0,1.552395373,-0.6687841548,6.2299343405\N,0,1.3333392356,-1.929590
 5798,3.2459996214\H,0,1.4033632395,-1.5938236882,2.2816787996\H,0,0.64
 18462967,-2.6424801689,3.4315347285\C,0,1.6252078985,-1.0386857104,4.2
 092057522\O,0,7.3261100645,1.6665752991,1.0644812094\H,0,8.3021036575,
 1.6766841141,1.1055381873\H,0,3.6398578099,1.9061375318,-5.0792663721\
 \Version=ES64L-G16RevC.01\HF=-2166.4873504\RMSD=9.218e-10\Dipole=1.875
 7974,-1.5338606,3.769919\Quadrupole=2.2638524,-36.5795014,34.3156491,1
 0.6060508,20.5246732,-16.7749009\PG=C01 [X(C25H39N8O10)]\\@
 The archive entry for this job was punched.


 "MATHEMATICS IS THE ART OF GIVING THE SAME NAME
 TO DIFFERENT THINGS."
                    - H. POINCARE
 Job cpu time:       0 days  0 hours  5 minutes 36.5 seconds.
 Elapsed time:       0 days  0 hours  1 minutes 24.7 seconds.
 File lengths (MBytes):  RWF=    384 Int=      0 D2E=      0 Chk=     56 Scr=     16
 Normal termination of Gaussian 16 at Wed Jun 29 02:14:40 2022.
