 Entering Gaussian System, Link 0=/opt/software/Gaussian/g16-AVX2-C.01/g16/g16
 Input=charge-conf-472.com
 Output=charge-conf-472.log
 Initial command:
 /opt/software/Gaussian/g16-AVX2-C.01/g16/l1.exe "/mnt/gs18/scratch/users/kengmith/Gau-76922.inp" -scrdir="/mnt/gs18/scratch/users/kengmith/"
 Entering Link 1 = /opt/software/Gaussian/g16-AVX2-C.01/g16/l1.exe PID=     76957.
  
 Copyright (c) 1988-2019, Gaussian, Inc.  All Rights Reserved.
  
 This is part of the Gaussian(R) 16 program.  It is based on
 the Gaussian(R) 09 system (copyright 2009, Gaussian, Inc.),
 the Gaussian(R) 03 system (copyright 2003, Gaussian, Inc.),
 the Gaussian(R) 98 system (copyright 1998, Gaussian, Inc.),
 the Gaussian(R) 94 system (copyright 1995, Gaussian, Inc.),
 the Gaussian 92(TM) system (copyright 1992, Gaussian, Inc.),
 the Gaussian 90(TM) system (copyright 1990, Gaussian, Inc.),
 the Gaussian 88(TM) system (copyright 1988, Gaussian, Inc.),
 the Gaussian 86(TM) system (copyright 1986, Carnegie Mellon
 University), and the Gaussian 82(TM) system (copyright 1983,
 Carnegie Mellon University). Gaussian is a federally registered
 trademark of Gaussian, Inc.
  
 This software contains proprietary and confidential information,
 including trade secrets, belonging to Gaussian, Inc.
  
 This software is provided under written license and may be
 used, copied, transmitted, or stored only in accord with that
 written license.
  
 The following legend is applicable only to US Government
 contracts under FAR:
  
                    RESTRICTED RIGHTS LEGEND
  
 Use, reproduction and disclosure by the US Government is
 subject to restrictions as set forth in subparagraphs (a)
 and (c) of the Commercial Computer Software - Restricted
 Rights clause in FAR 52.227-19.
  
 Gaussian, Inc.
 340 Quinnipiac St., Bldg. 40, Wallingford CT 06492
  
  
 ---------------------------------------------------------------
 Warning -- This program may not be used in any manner that
 competes with the business of Gaussian, Inc. or will provide
 assistance to any competitor of Gaussian, Inc.  The licensee
 of this program is prohibited from giving any competitor of
 Gaussian, Inc. access to this program.  By using this program,
 the user acknowledges that Gaussian, Inc. is engaged in the
 business of creating and licensing software in the field of
 computational chemistry and represents and warrants to the
 licensee that it is not a competitor of Gaussian, Inc. and that
 it will not use this program in any manner prohibited above.
 ---------------------------------------------------------------
  

 Cite this work as:
 Gaussian 16, Revision C.01,
 M. J. Frisch, G. W. Trucks, H. B. Schlegel, G. E. Scuseria, 
 M. A. Robb, J. R. Cheeseman, G. Scalmani, V. Barone, 
 G. A. Petersson, H. Nakatsuji, X. Li, M. Caricato, A. V. Marenich, 
 J. Bloino, B. G. Janesko, R. Gomperts, B. Mennucci, H. P. Hratchian, 
 J. V. Ortiz, A. F. Izmaylov, J. L. Sonnenberg, D. Williams-Young, 
 F. Ding, F. Lipparini, F. Egidi, J. Goings, B. Peng, A. Petrone, 
 T. Henderson, D. Ranasinghe, V. G. Zakrzewski, J. Gao, N. Rega, 
 G. Zheng, W. Liang, M. Hada, M. Ehara, K. Toyota, R. Fukuda, 
 J. Hasegawa, M. Ishida, T. Nakajima, Y. Honda, O. Kitao, H. Nakai, 
 T. Vreven, K. Throssell, J. A. Montgomery, Jr., J. E. Peralta, 
 F. Ogliaro, M. J. Bearpark, J. J. Heyd, E. N. Brothers, K. N. Kudin, 
 V. N. Staroverov, T. A. Keith, R. Kobayashi, J. Normand, 
 K. Raghavachari, A. P. Rendell, J. C. Burant, S. S. Iyengar, 
 J. Tomasi, M. Cossi, J. M. Millam, M. Klene, C. Adamo, R. Cammi, 
 J. W. Ochterski, R. L. Martin, K. Morokuma, O. Farkas, 
 J. B. Foresman, and D. J. Fox, Gaussian, Inc., Wallingford CT, 2019.
 
 ******************************************
 Gaussian 16:  ES64L-G16RevC.01  3-Jul-2019
                24-May-2022 
 ******************************************
 %mem=8gb
 %nproc=4
 Will use up to    4 processors via shared memory.
 %chk=conf-472.chk
 -------------------------------------------------------------------
 # B3LYP/6-31G* guess=read geom=check nosymm integral(ultrafinegrid)
 -------------------------------------------------------------------
 1/29=2,38=1,172=1/1;
 2/12=2,15=1,40=1/2;
 3/5=1,6=6,7=1,11=2,14=-4,25=1,30=1,74=-5,75=-5,116=-2/1,2,3;
 4/5=1/1;
 5/5=2,38=6/2;
 6/7=2,8=2,9=2,10=2,28=1/1;
 99/5=1,9=1/99;
 ------------------------------------------------------
 Candidate Structure: Conf:472 Charge calc in gas phase
 ------------------------------------------------------
 Structure from the checkpoint file:  "conf-472.chk"
 Charge =  1 Multiplicity = 1
 Redundant internal coordinates found in file.  (old form).
 N,0,0.139188525,-3.8980102797,2.4960753344
 H,0,1.1130784301,-3.6678008667,2.7220848288
 H,0,-0.1929282841,-4.5993830662,3.1625054393
 H,0,0.1121888905,-4.2602581437,1.493224194
 C,0,-0.7234031405,-2.658210273,2.360971915
 H,0,-0.3149624344,-1.8850681859,3.0169130112
 C,0,-0.526145996,-2.3248367046,0.8390908647
 C,0,-2.1958224657,-2.9605452272,2.677184008
 H,0,-2.5231559252,-3.8432634429,2.1172962163
 H,0,-2.7793003209,-2.119835341,2.2894473175
 O,0,-0.2827726484,-3.2930100793,0.1089352815
 C,0,-2.4930370738,-3.1157150759,4.1943774269
 H,0,-2.2672755281,-2.1866532221,4.7321103586
 H,0,-1.8840136507,-3.9125024599,4.6460934
 C,0,-3.8784331015,-3.5214836712,4.481599441
 O,0,-4.5959136273,-4.3170987219,4.9440869731
 O,0,-4.8795080619,-1.850707655,4.2494369367
 N,0,-0.6469366423,-1.0382423215,0.510778186
 H,0,-0.7873374505,-0.4023411202,1.2886892223
 C,0,-0.0086313734,-0.3467564725,-0.6530158988
 H,0,-0.5189217925,0.6187515987,-0.7080238604
 C,0,1.4717125048,-0.1412742827,-0.2138006774
 C,0,-0.1303865607,-1.0507604025,-2.0184676967
 H,0,0.3070609314,-2.0465139413,-1.9436596117
 H,0,-1.196019785,-1.1653980668,-2.2510476596
 O,0,2.2990837764,-1.0394981502,-0.3590418195
 C,0,0.5744958566,-0.2509823118,-3.0978606943
 C,0,-0.0271510373,0.8548046313,-3.7273470135
 H,0,-1.0544496335,1.1193391464,-3.4808659873
 C,0,1.8847636742,-0.5898571873,-3.4851158887
 H,0,2.3619119555,-1.4531559221,-3.0305503563
 C,0,0.6651770157,1.6326035352,-4.6457661431
 H,0,0.2005348713,2.4971126165,-5.1097855918
 C,0,2.5863573832,0.1704186243,-4.4069092307
 H,0,3.5920142247,-0.1147246949,-4.7024333749
 O,0,2.7046174006,2.1479012495,-5.7584659083
 C,0,2.02253473,1.3474207609,-4.9788995724
 N,0,1.6585406663,1.0362082896,0.3983821164
 H,0,0.9004870895,1.716109346,0.5454167093
 C,0,2.9095569677,1.7305542988,0.6873402692
 H,0,3.631031345,1.0711905476,1.1770704911
 C,0,2.5035935719,2.9273976354,1.6405444105
 C,0,3.4370601739,2.2461868951,-0.663770639
 H,0,3.3934016212,1.390519816,-1.3458395335
 H,0,2.6914886776,2.9725410643,-1.021135068
 O,0,3.468752884,3.4791033127,2.2015549859
 C,0,4.8266809914,2.8900163262,-0.7448568716
 H,0,5.6004925608,2.121692017,-0.6126818035
 H,0,4.9559639473,3.617165405,0.0624503528
 C,0,5.0187740913,3.5738236021,-2.1243517776
 H,0,4.4611887396,4.520235287,-2.1466742384
 H,0,6.0782398703,3.8132382147,-2.2819190526
 C,0,4.5045366882,2.6606732849,-3.2356296308
 H,0,4.9804962086,1.6769142999,-3.1775600332
 H,0,3.4342839853,2.5011832376,-3.1288029829
 N,0,4.6802492772,3.1274100498,-4.6453880119
 H,0,3.8131320979,2.532030174,-5.2926664138
 H,0,5.6317730278,2.9855914902,-4.9872480681
 H,0,4.4685235427,4.1235551893,-4.736575653
 O,0,1.2738257337,3.181972289,1.6674141278
 H,0,-4.960520508,-1.4219967145,3.3663296245
 H,0,-5.7922137675,-2.0684269807,4.5182050005
 Recover connectivity data from disk.
                           ----------------------------
                           !    Current Parameters    !
                           ! (Angstroms and Degrees)  !
 --------------------------                            --------------------------
 ! Name  Definition              Value                                          !
 --------------------------------------------------------------------------------
 ! R1    R(1,2)                  1.0259                                         !
 ! R2    R(1,3)                  1.0229                                         !
 ! R3    R(1,4)                  1.0666                                         !
 ! R4    R(1,5)                  1.5164                                         !
 ! R5    R(5,6)                  1.0931                                         !
 ! R6    R(5,7)                  1.5704                                         !
 ! R7    R(5,8)                  1.536                                          !
 ! R8    R(7,11)                 1.2368                                         !
 ! R9    R(7,18)                 1.3333                                         !
 ! R10   R(8,9)                  1.0954                                         !
 ! R11   R(8,10)                 1.0943                                         !
 ! R12   R(8,12)                 1.5538                                         !
 ! R13   R(12,13)                1.0969                                         !
 ! R14   R(12,14)                1.0999                                         !
 ! R15   R(12,15)                1.4719                                         !
 ! R16   R(15,16)                1.1669                                         !
 ! R17   R(15,17)                1.9615                                         !
 ! R18   R(17,61)                0.985                                          !
 ! R19   R(17,62)                0.976                                          !
 ! R20   R(18,19)                1.0145                                         !
 ! R21   R(18,20)                1.4967                                         !
 ! R22   R(20,21)                1.0934                                         !
 ! R23   R(20,22)                1.5577                                         !
 ! R24   R(20,23)                1.5411                                         !
 ! R25   R(22,26)                1.2298                                         !
 ! R26   R(22,38)                1.3402                                         !
 ! R27   R(23,24)                1.0902                                         !
 ! R28   R(23,25)                1.0967                                         !
 ! R29   R(23,27)                1.5171                                         !
 ! R30   R(27,28)                1.4075                                         !
 ! R31   R(27,30)                1.4077                                         !
 ! R32   R(28,29)                1.0891                                         !
 ! R33   R(28,32)                1.3884                                         !
 ! R34   R(30,31)                1.0861                                         !
 ! R35   R(30,34)                1.3856                                         !
 ! R36   R(32,33)                1.0856                                         !
 ! R37   R(32,37)                1.4264                                         !
 ! R38   R(34,35)                1.0863                                         !
 ! R39   R(34,37)                1.4249                                         !
 ! R40   R(36,37)                1.3091                                         !
 ! R41   R(38,39)                1.0288                                         !
 ! R42   R(38,40)                1.4597                                         !
 ! R43   R(40,41)                1.0932                                         !
 ! R44   R(40,42)                1.583                                          !
 ! R45   R(40,43)                1.5394                                         !
 ! R46   R(42,46)                1.2452                                         !
 ! R47   R(42,60)                1.2561                                         !
 ! R48   R(43,44)                1.0951                                         !
 ! R49   R(43,45)                1.1005                                         !
 ! R50   R(43,47)                1.5337                                         !
 ! R51   R(47,48)                1.0984                                         !
 ! R52   R(47,49)                1.0942                                         !
 ! R53   R(47,50)                1.5516                                         !
 ! R54   R(50,51)                1.0987                                         !
 ! R55   R(50,52)                1.0975                                         !
 ! R56   R(50,53)                1.5275                                         !
 ! R57   R(53,54)                1.0944                                         !
 ! R58   R(53,55)                1.0873                                         !
 ! R59   R(53,56)                1.4954                                         !
 ! R60   R(56,57)                1.235                                          !
 ! R61   R(56,58)                1.021                                          !
 ! R62   R(56,59)                1.0225                                         !
 ! A1    A(2,1,3)              108.5746                                         !
 ! A2    A(2,1,4)              107.9005                                         !
 ! A3    A(2,1,5)              112.0958                                         !
 ! A4    A(3,1,4)              111.8062                                         !
 ! A5    A(3,1,5)              115.7187                                         !
 ! A6    A(4,1,5)              100.3412                                         !
 ! A7    A(1,5,6)              108.1963                                         !
 ! A8    A(1,5,7)              100.8627                                         !
 ! A9    A(1,5,8)              111.4703                                         !
 ! A10   A(6,5,7)              112.61                                           !
 ! A11   A(6,5,8)              111.9542                                         !
 ! A12   A(7,5,8)              111.2041                                         !
 ! A13   A(5,7,11)             115.5088                                         !
 ! A14   A(5,7,18)             115.6009                                         !
 ! A15   A(11,7,18)            128.8901                                         !
 ! A16   A(5,8,9)              109.8678                                         !
 ! A17   A(5,8,10)             106.6752                                         !
 ! A18   A(5,8,12)             113.8303                                         !
 ! A19   A(9,8,10)             106.1803                                         !
 ! A20   A(9,8,12)             111.1901                                         !
 ! A21   A(10,8,12)            108.705                                          !
 ! A22   A(8,12,13)            110.7759                                         !
 ! A23   A(8,12,14)            111.5575                                         !
 ! A24   A(8,12,15)            113.4603                                         !
 ! A25   A(13,12,14)           107.3533                                         !
 ! A26   A(13,12,15)           109.3625                                         !
 ! A27   A(14,12,15)           103.9643                                         !
 ! A28   A(12,15,16)           147.5676                                         !
 ! A29   A(12,15,17)           102.8532                                         !
 ! A30   A(16,15,17)           108.2925                                         !
 ! A31   A(15,17,61)           121.2528                                         !
 ! A32   A(15,17,62)           104.7526                                         !
 ! A33   A(61,17,62)           105.4891                                         !
 ! A34   A(7,18,19)            115.377                                          !
 ! A35   A(7,18,20)            126.7746                                         !
 ! A36   A(19,18,20)           111.449                                          !
 ! A37   A(18,20,21)           104.3619                                         !
 ! A38   A(18,20,22)           104.2997                                         !
 ! A39   A(18,20,23)           116.3734                                         !
 ! A40   A(21,20,22)           109.9501                                         !
 ! A41   A(21,20,23)           108.7797                                         !
 ! A42   A(22,20,23)           112.6541                                         !
 ! A43   A(20,22,26)           120.6433                                         !
 ! A44   A(20,22,38)           112.1582                                         !
 ! A45   A(26,22,38)           127.0031                                         !
 ! A46   A(20,23,24)           108.9509                                         !
 ! A47   A(20,23,25)           108.205                                          !
 ! A48   A(20,23,27)           110.6628                                         !
 ! A49   A(24,23,25)           107.9969                                         !
 ! A50   A(24,23,27)           110.1147                                         !
 ! A51   A(25,23,27)           110.8347                                         !
 ! A52   A(23,27,28)           122.2607                                         !
 ! A53   A(23,27,30)           120.0853                                         !
 ! A54   A(28,27,30)           117.6438                                         !
 ! A55   A(27,28,29)           119.5269                                         !
 ! A56   A(27,28,32)           121.5208                                         !
 ! A57   A(29,28,32)           118.9462                                         !
 ! A58   A(27,30,31)           119.0212                                         !
 ! A59   A(27,30,34)           121.4812                                         !
 ! A60   A(31,30,34)           119.48                                           !
 ! A61   A(28,32,33)           121.0248                                         !
 ! A62   A(28,32,37)           121.1293                                         !
 ! A63   A(33,32,37)           117.8172                                         !
 ! A64   A(30,34,35)           120.3789                                         !
 ! A65   A(30,34,37)           121.3267                                         !
 ! A66   A(35,34,37)           118.2904                                         !
 ! A67   A(32,37,34)           116.6101                                         !
 ! A68   A(32,37,36)           120.8388                                         !
 ! A69   A(34,37,36)           122.5452                                         !
 ! A70   A(22,38,39)           122.8997                                         !
 ! A71   A(22,38,40)           128.8903                                         !
 ! A72   A(39,38,40)           106.788                                          !
 ! A73   A(38,40,41)           111.5548                                         !
 ! A74   A(38,40,42)           105.0142                                         !
 ! A75   A(38,40,43)           106.2171                                         !
 ! A76   A(41,40,42)           110.825                                          !
 ! A77   A(41,40,43)           111.6582                                         !
 ! A78   A(42,40,43)           111.2933                                         !
 ! A79   A(40,42,46)           114.0471                                         !
 ! A80   A(40,42,60)           114.6568                                         !
 ! A81   A(46,42,60)           131.2526                                         !
 ! A82   A(40,43,44)           105.7401                                         !
 ! A83   A(40,43,45)           105.8986                                         !
 ! A84   A(40,43,47)           119.8356                                         !
 ! A85   A(44,43,45)           106.6448                                         !
 ! A86   A(44,43,47)           109.3416                                         !
 ! A87   A(45,43,47)           108.6387                                         !
 ! A88   A(43,47,48)           109.7734                                         !
 ! A89   A(43,47,49)           110.3059                                         !
 ! A90   A(43,47,50)           110.1322                                         !
 ! A91   A(48,47,49)           107.0271                                         !
 ! A92   A(48,47,50)           109.1491                                         !
 ! A93   A(49,47,50)           110.394                                          !
 ! A94   A(47,50,51)           109.5642                                         !
 ! A95   A(47,50,52)           110.0767                                         !
 ! A96   A(47,50,53)           109.9792                                         !
 ! A97   A(51,50,52)           107.402                                          !
 ! A98   A(51,50,53)           109.2278                                         !
 ! A99   A(52,50,53)           110.5444                                         !
 ! A100  A(50,53,54)           110.6318                                         !
 ! A101  A(50,53,55)           110.3393                                         !
 ! A102  A(50,53,56)           117.369                                          !
 ! A103  A(54,53,55)           106.9185                                         !
 ! A104  A(54,53,56)           106.2297                                         !
 ! A105  A(55,53,56)           104.718                                          !
 ! A106  A(53,56,57)           105.1367                                         !
 ! A107  A(53,56,58)           112.4468                                         !
 ! A108  A(53,56,59)           111.3356                                         !
 ! A109  A(57,56,58)           114.3235                                         !
 ! A110  A(57,56,59)           106.1131                                         !
 ! A111  A(58,56,59)           107.3648                                         !
 ! D1    D(2,1,5,6)            -29.8979                                         !
 ! D2    D(2,1,5,7)             88.4716                                         !
 ! D3    D(2,1,5,8)           -153.4145                                         !
 ! D4    D(3,1,5,6)             95.3514                                         !
 ! D5    D(3,1,5,7)           -146.2791                                         !
 ! D6    D(3,1,5,8)            -28.1652                                         !
 ! D7    D(4,1,5,6)           -144.1835                                         !
 ! D8    D(4,1,5,7)            -25.814                                          !
 ! D9    D(4,1,5,8)             92.3                                            !
 ! D10   D(1,5,7,11)            28.2863                                         !
 ! D11   D(1,5,7,18)          -151.863                                          !
 ! D12   D(6,5,7,11)           143.3965                                         !
 ! D13   D(6,5,7,18)           -36.7528                                         !
 ! D14   D(8,5,7,11)           -90.0216                                         !
 ! D15   D(8,5,7,18)            89.8292                                         !
 ! D16   D(1,5,8,9)            -49.5574                                         !
 ! D17   D(1,5,8,10)          -164.2372                                         !
 ! D18   D(1,5,8,12)            75.8767                                         !
 ! D19   D(6,5,8,9)           -170.9123                                         !
 ! D20   D(6,5,8,10)            74.4079                                         !
 ! D21   D(6,5,8,12)           -45.4782                                         !
 ! D22   D(7,5,8,9)             62.146                                          !
 ! D23   D(7,5,8,10)           -52.5338                                         !
 ! D24   D(7,5,8,12)          -172.4199                                         !
 ! D25   D(5,7,18,19)            4.2174                                         !
 ! D26   D(5,7,18,20)          153.5118                                         !
 ! D27   D(11,7,18,19)        -175.9556                                         !
 ! D28   D(11,7,18,20)         -26.6612                                         !
 ! D29   D(5,8,12,13)           61.6302                                         !
 ! D30   D(5,8,12,14)          -57.9                                            !
 ! D31   D(5,8,12,15)         -174.9202                                         !
 ! D32   D(9,8,12,13)         -173.6407                                         !
 ! D33   D(9,8,12,14)           66.8291                                         !
 ! D34   D(9,8,12,15)          -50.1911                                         !
 ! D35   D(10,8,12,13)         -57.1027                                         !
 ! D36   D(10,8,12,14)        -176.6328                                         !
 ! D37   D(10,8,12,15)          66.347                                          !
 ! D38   D(8,12,15,16)         118.7565                                         !
 ! D39   D(8,12,15,17)         -77.6313                                         !
 ! D40   D(13,12,15,16)       -117.0235                                         !
 ! D41   D(13,12,15,17)         46.5887                                         !
 ! D42   D(14,12,15,16)         -2.6202                                         !
 ! D43   D(14,12,15,17)        160.9921                                         !
 ! D44   D(12,15,17,61)         66.4556                                         !
 ! D45   D(12,15,17,62)       -174.6732                                         !
 ! D46   D(16,15,17,61)       -122.7144                                         !
 ! D47   D(16,15,17,62)         -3.8432                                         !
 ! D48   D(7,18,20,21)         167.7263                                         !
 ! D49   D(7,18,20,22)         -76.8865                                         !
 ! D50   D(7,18,20,23)          47.8666                                         !
 ! D51   D(19,18,20,21)        -41.9886                                         !
 ! D52   D(19,18,20,22)         73.3986                                         !
 ! D53   D(19,18,20,23)       -161.8483                                         !
 ! D54   D(18,20,22,26)         84.1773                                         !
 ! D55   D(18,20,22,38)        -91.0871                                         !
 ! D56   D(21,20,22,26)       -164.4251                                         !
 ! D57   D(21,20,22,38)         20.3106                                         !
 ! D58   D(23,20,22,26)        -42.9173                                         !
 ! D59   D(23,20,22,38)        141.8183                                         !
 ! D60   D(18,20,23,24)        -58.043                                          !
 ! D61   D(18,20,23,25)         59.1387                                         !
 ! D62   D(18,20,23,27)       -179.2479                                         !
 ! D63   D(21,20,23,24)       -175.4964                                         !
 ! D64   D(21,20,23,25)        -58.3147                                         !
 ! D65   D(21,20,23,27)         63.2986                                         !
 ! D66   D(22,20,23,24)         62.3334                                         !
 ! D67   D(22,20,23,25)        179.5151                                         !
 ! D68   D(22,20,23,27)        -58.8716                                         !
 ! D69   D(20,22,38,39)         -0.447                                          !
 ! D70   D(20,22,38,40)       -164.9798                                         !
 ! D71   D(26,22,38,39)       -175.3443                                         !
 ! D72   D(26,22,38,40)         20.123                                          !
 ! D73   D(20,23,27,28)        -81.4812                                         !
 ! D74   D(20,23,27,30)         97.3299                                         !
 ! D75   D(24,23,27,28)        158.0049                                         !
 ! D76   D(24,23,27,30)        -23.184                                          !
 ! D77   D(25,23,27,28)         38.5702                                         !
 ! D78   D(25,23,27,30)       -142.6187                                         !
 ! D79   D(23,27,28,29)         -3.6549                                         !
 ! D80   D(23,27,28,32)        175.4311                                         !
 ! D81   D(30,27,28,29)        177.5064                                         !
 ! D82   D(30,27,28,32)         -3.4076                                         !
 ! D83   D(23,27,30,31)          2.5493                                         !
 ! D84   D(23,27,30,34)       -175.9166                                         !
 ! D85   D(28,27,30,31)       -178.5856                                         !
 ! D86   D(28,27,30,34)          2.9485                                         !
 ! D87   D(27,28,32,33)       -178.6063                                         !
 ! D88   D(27,28,32,37)         -0.595                                          !
 ! D89   D(29,28,32,33)          0.4849                                         !
 ! D90   D(29,28,32,37)        178.4962                                         !
 ! D91   D(27,30,34,35)       -179.2153                                         !
 ! D92   D(27,30,34,37)          1.5249                                         !
 ! D93   D(31,30,34,35)          2.3257                                         !
 ! D94   D(31,30,34,37)       -176.9342                                         !
 ! D95   D(28,32,37,34)          4.9199                                         !
 ! D96   D(28,32,37,36)       -174.2258                                         !
 ! D97   D(33,32,37,34)       -177.0069                                         !
 ! D98   D(33,32,37,36)          3.8473                                         !
 ! D99   D(30,34,37,32)         -5.3843                                         !
 ! D100  D(30,34,37,36)        173.7456                                         !
 ! D101  D(35,34,37,32)        175.3408                                         !
 ! D102  D(35,34,37,36)         -5.5292                                         !
 ! D103  D(22,38,40,41)        -50.1424                                         !
 ! D104  D(22,38,40,42)       -170.2554                                         !
 ! D105  D(22,38,40,43)         71.7384                                         !
 ! D106  D(39,38,40,41)        143.3835                                         !
 ! D107  D(39,38,40,42)         23.2705                                         !
 ! D108  D(39,38,40,43)        -94.7358                                         !
 ! D109  D(38,40,42,46)        166.7772                                         !
 ! D110  D(38,40,42,60)        -15.3459                                         !
 ! D111  D(41,40,42,46)         46.1812                                         !
 ! D112  D(41,40,42,60)       -135.942                                          !
 ! D113  D(43,40,42,46)        -78.7116                                         !
 ! D114  D(43,40,42,60)         99.1653                                         !
 ! D115  D(38,40,43,44)        -49.1178                                         !
 ! D116  D(38,40,43,45)         63.8186                                         !
 ! D117  D(38,40,43,47)       -173.0579                                         !
 ! D118  D(41,40,43,44)         72.697                                          !
 ! D119  D(41,40,43,45)       -174.3665                                         !
 ! D120  D(41,40,43,47)        -51.243                                          !
 ! D121  D(42,40,43,44)       -162.8787                                         !
 ! D122  D(42,40,43,45)        -49.9422                                         !
 ! D123  D(42,40,43,47)         73.1813                                         !
 ! D124  D(40,43,47,48)         70.9218                                         !
 ! D125  D(40,43,47,49)        -46.7765                                         !
 ! D126  D(40,43,47,50)       -168.8761                                         !
 ! D127  D(44,43,47,48)        -51.2693                                         !
 ! D128  D(44,43,47,49)       -168.9676                                         !
 ! D129  D(44,43,47,50)         68.9328                                         !
 ! D130  D(45,43,47,48)       -167.2944                                         !
 ! D131  D(45,43,47,49)         75.0073                                         !
 ! D132  D(45,43,47,50)        -47.0923                                         !
 ! D133  D(43,47,50,51)         76.1083                                         !
 ! D134  D(43,47,50,52)       -165.9987                                         !
 ! D135  D(43,47,50,53)        -43.9635                                         !
 ! D136  D(48,47,50,51)       -163.3134                                         !
 ! D137  D(48,47,50,52)        -45.4204                                         !
 ! D138  D(48,47,50,53)         76.6148                                         !
 ! D139  D(49,47,50,51)        -45.9391                                         !
 ! D140  D(49,47,50,52)         71.9538                                         !
 ! D141  D(49,47,50,53)       -166.0109                                         !
 ! D142  D(47,50,53,54)        -54.5694                                         !
 ! D143  D(47,50,53,55)         63.5428                                         !
 ! D144  D(47,50,53,56)       -176.6553                                         !
 ! D145  D(51,50,53,54)       -174.845                                          !
 ! D146  D(51,50,53,55)        -56.7327                                         !
 ! D147  D(51,50,53,56)         63.0691                                         !
 ! D148  D(52,50,53,54)         67.1877                                         !
 ! D149  D(52,50,53,55)       -174.7001                                         !
 ! D150  D(52,50,53,56)        -54.8982                                         !
 ! D151  D(50,53,56,57)       -156.4401                                         !
 ! D152  D(50,53,56,58)         78.5705                                         !
 ! D153  D(50,53,56,59)        -41.9634                                         !
 ! D154  D(54,53,56,57)         79.2319                                         !
 ! D155  D(54,53,56,58)        -45.7575                                         !
 ! D156  D(54,53,56,59)       -166.2913                                         !
 ! D157  D(55,53,56,57)        -33.7124                                         !
 ! D158  D(55,53,56,58)       -158.7018                                         !
 ! D159  D(55,53,56,59)         80.7644                                         !
 --------------------------------------------------------------------------------
 Symmetry turned off by external request.
 Stoichiometry    C20H31N4O7(1+)
 Framework group  C1[X(C20H31N4O7)]
 Deg. of freedom   180
 Full point group                 C1      NOp   1
                          Input orientation:                          
 ---------------------------------------------------------------------
 Center     Atomic      Atomic             Coordinates (Angstroms)
 Number     Number       Type             X           Y           Z
 ---------------------------------------------------------------------
      1          7           0        0.139189   -3.898010    2.496075
      2          1           0        1.113078   -3.667801    2.722085
      3          1           0       -0.192928   -4.599383    3.162505
      4          1           0        0.112189   -4.260258    1.493224
      5          6           0       -0.723403   -2.658210    2.360972
      6          1           0       -0.314962   -1.885068    3.016913
      7          6           0       -0.526146   -2.324837    0.839091
      8          6           0       -2.195822   -2.960545    2.677184
      9          1           0       -2.523156   -3.843263    2.117296
     10          1           0       -2.779300   -2.119835    2.289447
     11          8           0       -0.282773   -3.293010    0.108935
     12          6           0       -2.493037   -3.115715    4.194377
     13          1           0       -2.267276   -2.186653    4.732110
     14          1           0       -1.884014   -3.912502    4.646093
     15          6           0       -3.878433   -3.521484    4.481599
     16          8           0       -4.595914   -4.317099    4.944087
     17          8           0       -4.879508   -1.850708    4.249437
     18          7           0       -0.646937   -1.038242    0.510778
     19          1           0       -0.787337   -0.402341    1.288689
     20          6           0       -0.008631   -0.346756   -0.653016
     21          1           0       -0.518922    0.618752   -0.708024
     22          6           0        1.471713   -0.141274   -0.213801
     23          6           0       -0.130387   -1.050760   -2.018468
     24          1           0        0.307061   -2.046514   -1.943660
     25          1           0       -1.196020   -1.165398   -2.251048
     26          8           0        2.299084   -1.039498   -0.359042
     27          6           0        0.574496   -0.250982   -3.097861
     28          6           0       -0.027151    0.854805   -3.727347
     29          1           0       -1.054450    1.119339   -3.480866
     30          6           0        1.884764   -0.589857   -3.485116
     31          1           0        2.361912   -1.453156   -3.030550
     32          6           0        0.665177    1.632604   -4.645766
     33          1           0        0.200535    2.497113   -5.109786
     34          6           0        2.586357    0.170419   -4.406909
     35          1           0        3.592014   -0.114725   -4.702433
     36          8           0        2.704617    2.147901   -5.758466
     37          6           0        2.022535    1.347421   -4.978900
     38          7           0        1.658541    1.036208    0.398382
     39          1           0        0.900487    1.716109    0.545417
     40          6           0        2.909557    1.730554    0.687340
     41          1           0        3.631031    1.071191    1.177070
     42          6           0        2.503594    2.927398    1.640544
     43          6           0        3.437060    2.246187   -0.663771
     44          1           0        3.393402    1.390520   -1.345840
     45          1           0        2.691489    2.972541   -1.021135
     46          8           0        3.468753    3.479103    2.201555
     47          6           0        4.826681    2.890016   -0.744857
     48          1           0        5.600493    2.121692   -0.612682
     49          1           0        4.955964    3.617165    0.062450
     50          6           0        5.018774    3.573824   -2.124352
     51          1           0        4.461189    4.520235   -2.146674
     52          1           0        6.078240    3.813238   -2.281919
     53          6           0        4.504537    2.660673   -3.235630
     54          1           0        4.980496    1.676914   -3.177560
     55          1           0        3.434284    2.501183   -3.128803
     56          7           0        4.680249    3.127410   -4.645388
     57          1           0        3.813132    2.532030   -5.292666
     58          1           0        5.631773    2.985591   -4.987248
     59          1           0        4.468524    4.123555   -4.736576
     60          8           0        1.273826    3.181972    1.667414
     61          1           0       -4.960521   -1.421997    3.366330
     62          1           0       -5.792214   -2.068427    4.518205
 ---------------------------------------------------------------------
 Rotational constants (GHZ):           0.2242452           0.0609653           0.0532689
 Standard basis: 6-31G(d) (6D, 7F)
   527 basis functions,   992 primitive gaussians,   527 cartesian basis functions
   117 alpha electrons      117 beta electrons
       nuclear repulsion energy      3185.1142607781 Hartrees.
 NAtoms=   62 NActive=   62 NUniq=   62 SFac= 1.00D+00 NAtFMM=   60 NAOKFM=T Big=T
 Integral buffers will be    131072 words long.
 Raffenetti 2 integral format.
 Two-electron integral symmetry is turned off.
 One-electron integrals computed using PRISM.
 NBasis=   527 RedAO= T EigKep=  4.50D-04  NBF=   527
 NBsUse=   527 1.00D-06 EigRej= -1.00D+00 NBFU=   527
 Initial guess from the checkpoint file:  "conf-472.chk"
 B after Tr=     0.000000    0.000000    0.000000
         Rot=    1.000000    0.000000    0.000000    0.000000 Ang=   0.00 deg.
 Requested convergence on RMS density matrix=1.00D-08 within 128 cycles.
 Requested convergence on MAX density matrix=1.00D-06.
 Requested convergence on             energy=1.00D-06.
 No special actions if energy rises.
 SCF Done:  E(RB3LYP) =  -1525.96713461     A.U. after    3 cycles
            NFock=  3  Conv=0.47D-08     -V/T= 2.0092

 **********************************************************************

            Population analysis using the SCF Density.

 **********************************************************************

 Alpha  occ. eigenvalues --  -19.39413 -19.38927 -19.28726 -19.18442 -19.16370
 Alpha  occ. eigenvalues --  -19.12548 -19.11877 -14.63480 -14.51822 -14.46655
 Alpha  occ. eigenvalues --  -14.41574 -10.51111 -10.45730 -10.44928 -10.42919
 Alpha  occ. eigenvalues --  -10.40827 -10.35887 -10.33857 -10.29924 -10.29687
 Alpha  occ. eigenvalues --  -10.29178 -10.27240 -10.26632 -10.25489 -10.25155
 Alpha  occ. eigenvalues --  -10.24611 -10.24158 -10.23574 -10.23442 -10.23164
 Alpha  occ. eigenvalues --  -10.23162  -1.29533  -1.23499  -1.21609  -1.16794
 Alpha  occ. eigenvalues --   -1.10475  -1.07714  -1.05360  -1.05333  -1.01727
 Alpha  occ. eigenvalues --   -1.01331  -0.98782  -0.96446  -0.94273  -0.90594
 Alpha  occ. eigenvalues --   -0.87286  -0.86084  -0.83912  -0.81223  -0.79495
 Alpha  occ. eigenvalues --   -0.78998  -0.77460  -0.76682  -0.75360  -0.74967
 Alpha  occ. eigenvalues --   -0.74640  -0.73757  -0.71007  -0.70450  -0.69352
 Alpha  occ. eigenvalues --   -0.68273  -0.66867  -0.66156  -0.65225  -0.64775
 Alpha  occ. eigenvalues --   -0.63908  -0.63320  -0.62977  -0.62631  -0.62158
 Alpha  occ. eigenvalues --   -0.61250  -0.59668  -0.58839  -0.58650  -0.58242
 Alpha  occ. eigenvalues --   -0.57672  -0.56623  -0.55692  -0.55064  -0.54754
 Alpha  occ. eigenvalues --   -0.53958  -0.53351  -0.52487  -0.51753  -0.51662
 Alpha  occ. eigenvalues --   -0.51375  -0.50077  -0.48682  -0.48570  -0.47380
 Alpha  occ. eigenvalues --   -0.47280  -0.46876  -0.46576  -0.45423  -0.44812
 Alpha  occ. eigenvalues --   -0.44463  -0.43990  -0.43206  -0.42799  -0.42455
 Alpha  occ. eigenvalues --   -0.41964  -0.40971  -0.40783  -0.40130  -0.39546
 Alpha  occ. eigenvalues --   -0.39217  -0.38235  -0.37883  -0.36272  -0.32214
 Alpha  occ. eigenvalues --   -0.31771  -0.30564  -0.30154  -0.27288  -0.26536
 Alpha  occ. eigenvalues --   -0.25002  -0.24628
 Alpha virt. eigenvalues --   -0.23532  -0.20119  -0.15477  -0.13852  -0.12842
 Alpha virt. eigenvalues --   -0.09877  -0.08744  -0.06470  -0.05656  -0.05385
 Alpha virt. eigenvalues --   -0.05196  -0.05012  -0.04152  -0.03629  -0.02681
 Alpha virt. eigenvalues --   -0.01787  -0.01646  -0.01245  -0.00691   0.01952
 Alpha virt. eigenvalues --    0.02439   0.02929   0.03417   0.04545   0.04851
 Alpha virt. eigenvalues --    0.04988   0.05969   0.06474   0.07270   0.07647
 Alpha virt. eigenvalues --    0.07964   0.08356   0.08441   0.09444   0.09903
 Alpha virt. eigenvalues --    0.10571   0.11212   0.11991   0.12249   0.12334
 Alpha virt. eigenvalues --    0.12671   0.13553   0.13888   0.14360   0.14937
 Alpha virt. eigenvalues --    0.15431   0.15890   0.16661   0.17089   0.17345
 Alpha virt. eigenvalues --    0.17650   0.18960   0.20294   0.21277   0.22252
 Alpha virt. eigenvalues --    0.23432   0.24367   0.24998   0.26393   0.27159
 Alpha virt. eigenvalues --    0.27195   0.28808   0.30056   0.30225   0.32374
 Alpha virt. eigenvalues --    0.33202   0.33461   0.33740   0.34337   0.35753
 Alpha virt. eigenvalues --    0.38230   0.39444   0.39796   0.41447   0.42118
 Alpha virt. eigenvalues --    0.42995   0.43641   0.44251   0.44502   0.45883
 Alpha virt. eigenvalues --    0.46299   0.47082   0.47669   0.48216   0.48469
 Alpha virt. eigenvalues --    0.49057   0.49670   0.49784   0.50071   0.50801
 Alpha virt. eigenvalues --    0.50968   0.51958   0.52594   0.53270   0.53558
 Alpha virt. eigenvalues --    0.54014   0.54252   0.54727   0.55235   0.55852
 Alpha virt. eigenvalues --    0.56619   0.56672   0.57336   0.57611   0.57996
 Alpha virt. eigenvalues --    0.59167   0.59467   0.59696   0.60015   0.60690
 Alpha virt. eigenvalues --    0.61631   0.62054   0.62501   0.62682   0.63659
 Alpha virt. eigenvalues --    0.64117   0.64284   0.64704   0.65262   0.66030
 Alpha virt. eigenvalues --    0.66224   0.66377   0.67604   0.69221   0.69390
 Alpha virt. eigenvalues --    0.69603   0.70510   0.71024   0.71728   0.71794
 Alpha virt. eigenvalues --    0.72233   0.72854   0.73849   0.74470   0.74630
 Alpha virt. eigenvalues --    0.74972   0.75639   0.75775   0.76465   0.77105
 Alpha virt. eigenvalues --    0.77784   0.78357   0.78929   0.79110   0.79354
 Alpha virt. eigenvalues --    0.80070   0.80530   0.80917   0.81568   0.81875
 Alpha virt. eigenvalues --    0.82048   0.82562   0.83643   0.84051   0.84492
 Alpha virt. eigenvalues --    0.85050   0.85400   0.85560   0.86627   0.87022
 Alpha virt. eigenvalues --    0.87930   0.88120   0.88570   0.89044   0.90079
 Alpha virt. eigenvalues --    0.90761   0.90882   0.91555   0.91639   0.92301
 Alpha virt. eigenvalues --    0.92834   0.93556   0.94050   0.95151   0.96013
 Alpha virt. eigenvalues --    0.96916   0.97307   0.98897   0.99839   0.99971
 Alpha virt. eigenvalues --    1.01528   1.02064   1.02631   1.04136   1.04579
 Alpha virt. eigenvalues --    1.05387   1.07100   1.07966   1.08221   1.09394
 Alpha virt. eigenvalues --    1.10139   1.11892   1.12361   1.13321   1.14278
 Alpha virt. eigenvalues --    1.15202   1.16029   1.16370   1.18420   1.19293
 Alpha virt. eigenvalues --    1.20736   1.21981   1.22851   1.24088   1.24821
 Alpha virt. eigenvalues --    1.25372   1.26873   1.27760   1.29291   1.30386
 Alpha virt. eigenvalues --    1.32083   1.33374   1.33773   1.34637   1.35482
 Alpha virt. eigenvalues --    1.36245   1.37372   1.39166   1.39863   1.40646
 Alpha virt. eigenvalues --    1.41363   1.42151   1.42820   1.42982   1.44603
 Alpha virt. eigenvalues --    1.45441   1.45942   1.46203   1.46855   1.47265
 Alpha virt. eigenvalues --    1.49452   1.50106   1.51108   1.51663   1.53059
 Alpha virt. eigenvalues --    1.54429   1.55457   1.56312   1.57681   1.58277
 Alpha virt. eigenvalues --    1.59482   1.60442   1.62504   1.62747   1.64115
 Alpha virt. eigenvalues --    1.65749   1.66471   1.67483   1.68597   1.69493
 Alpha virt. eigenvalues --    1.69861   1.70851   1.70885   1.72263   1.72871
 Alpha virt. eigenvalues --    1.73039   1.73449   1.74603   1.75805   1.76112
 Alpha virt. eigenvalues --    1.77049   1.77454   1.78064   1.78313   1.79237
 Alpha virt. eigenvalues --    1.80469   1.80957   1.82410   1.82956   1.83372
 Alpha virt. eigenvalues --    1.83681   1.83982   1.85299   1.86057   1.87038
 Alpha virt. eigenvalues --    1.87415   1.88771   1.89159   1.89825   1.90211
 Alpha virt. eigenvalues --    1.90908   1.91453   1.91607   1.92117   1.93089
 Alpha virt. eigenvalues --    1.94147   1.95054   1.95968   1.96049   1.96741
 Alpha virt. eigenvalues --    1.97004   1.98094   1.98450   1.98847   1.99768
 Alpha virt. eigenvalues --    1.99813   2.00374   2.01407   2.03048   2.04132
 Alpha virt. eigenvalues --    2.05823   2.08056   2.08301   2.08650   2.08857
 Alpha virt. eigenvalues --    2.10287   2.11215   2.12151   2.13185   2.13305
 Alpha virt. eigenvalues --    2.13831   2.14090   2.16390   2.19561   2.20562
 Alpha virt. eigenvalues --    2.21878   2.22368   2.23513   2.24371   2.24663
 Alpha virt. eigenvalues --    2.25335   2.26520   2.27259   2.27848   2.28735
 Alpha virt. eigenvalues --    2.30410   2.31181   2.31623   2.33721   2.34981
 Alpha virt. eigenvalues --    2.35926   2.36776   2.38150   2.39698   2.41130
 Alpha virt. eigenvalues --    2.41831   2.42371   2.43023   2.44175   2.46848
 Alpha virt. eigenvalues --    2.49281   2.49711   2.51633   2.52967   2.54032
 Alpha virt. eigenvalues --    2.55582   2.56660   2.57719   2.59063   2.59798
 Alpha virt. eigenvalues --    2.61039   2.61776   2.63833   2.65978   2.66918
 Alpha virt. eigenvalues --    2.68143   2.69717   2.70726   2.72473   2.72857
 Alpha virt. eigenvalues --    2.75071   2.75120   2.78297   2.78984   2.82070
 Alpha virt. eigenvalues --    2.83366   2.85837   2.87617   2.88337   2.89439
 Alpha virt. eigenvalues --    2.92798   2.93486   2.97980   2.98594   3.00453
 Alpha virt. eigenvalues --    3.09310   3.10823   3.17027   3.34019   3.49160
 Alpha virt. eigenvalues --    3.60766   3.79598   3.82181   3.90637   3.93597
 Alpha virt. eigenvalues --    3.96102   3.98399   4.05683   4.07811   4.08579
 Alpha virt. eigenvalues --    4.11355   4.11639   4.16038   4.17553   4.18394
 Alpha virt. eigenvalues --    4.19791   4.24755   4.26813   4.27987   4.31241
 Alpha virt. eigenvalues --    4.32937   4.35787   4.39287   4.43831   4.46248
 Alpha virt. eigenvalues --    4.47509   4.51850   4.56680   4.64787   4.72971
          Condensed to atoms (all electrons):
 Mulliken charges:
               1
     1  N   -0.750338
     2  H    0.437255
     3  H    0.407123
     4  H    0.440241
     5  C   -0.133877
     6  H    0.224169
     7  C    0.660545
     8  C   -0.298427
     9  H    0.214419
    10  H    0.198242
    11  O   -0.515235
    12  C   -0.363908
    13  H    0.250972
    14  H    0.212258
    15  C    0.501838
    16  O   -0.267237
    17  O   -0.715873
    18  N   -0.597951
    19  H    0.350829
    20  C   -0.074950
    21  H    0.176096
    22  C    0.630482
    23  C   -0.354750
    24  H    0.193827
    25  H    0.148300
    26  O   -0.548616
    27  C    0.132653
    28  C   -0.184779
    29  H    0.116223
    30  C   -0.163434
    31  H    0.146957
    32  C   -0.171612
    33  H    0.136725
    34  C   -0.204336
    35  H    0.121799
    36  O   -0.701940
    37  C    0.398183
    38  N   -0.602708
    39  H    0.342527
    40  C   -0.079587
    41  H    0.152672
    42  C    0.599288
    43  C   -0.279780
    44  H    0.161657
    45  H    0.143484
    46  O   -0.518184
    47  C   -0.268720
    48  H    0.137448
    49  H    0.194643
    50  C   -0.280691
    51  H    0.152979
    52  H    0.144504
    53  C   -0.168789
    54  H    0.176813
    55  H    0.207203
    56  N   -0.786318
    57  H    0.467221
    58  H    0.362638
    59  H    0.368985
    60  O   -0.593499
    61  H    0.451248
    62  H    0.463095
 Sum of Mulliken charges =   1.00000
 Mulliken charges with hydrogens summed into heavy atoms:
               1
     1  N    0.534282
     5  C    0.090292
     7  C    0.660545
     8  C    0.114234
    11  O   -0.515235
    12  C    0.099322
    15  C    0.501838
    16  O   -0.267237
    17  O    0.198469
    18  N   -0.247122
    20  C    0.101145
    22  C    0.630482
    23  C   -0.012623
    26  O   -0.548616
    27  C    0.132653
    28  C   -0.068557
    30  C   -0.016478
    32  C   -0.034887
    34  C   -0.082537
    36  O   -0.701940
    37  C    0.398183
    38  N   -0.260181
    40  C    0.073085
    42  C    0.599288
    43  C    0.025360
    46  O   -0.518184
    47  C    0.063371
    50  C    0.016793
    53  C    0.215226
    56  N    0.412525
    60  O   -0.593499
 Electronic spatial extent (au):  <R**2>=          20379.8369
 Charge=              1.0000 electrons
 Dipole moment (field-independent basis, Debye):
    X=            -10.9572    Y=            -18.4843    Z=             12.8463  Tot=             25.0351
 Quadrupole moment (field-independent basis, Debye-Ang):
   XX=            -87.0118   YY=           -132.2168   ZZ=           -121.7756
   XY=             34.0588   XZ=            -87.2417   YZ=           -100.7724
 Traceless Quadrupole moment (field-independent basis, Debye-Ang):
   XX=             26.6563   YY=            -18.5488   ZZ=             -8.1075
   XY=             34.0588   XZ=            -87.2417   YZ=           -100.7724
 Octapole moment (field-independent basis, Debye-Ang**2):
  XXX=           -633.5521  YYY=           -287.0121  ZZZ=            508.2362  XYY=           -169.0090
  XXY=             -7.8272  XXZ=             50.0590  XZZ=           -259.4794  YZZ=           -191.5332
  YYZ=            116.4964  XYZ=            -88.6289
 Hexadecapole moment (field-independent basis, Debye-Ang**3):
 XXXX=          -5598.8842 YYYY=          -5770.9893 ZZZZ=         -10053.6038 XXXY=          -1674.9161
 XXXZ=            320.1834 YYYX=          -2726.5865 YYYZ=            857.7386 ZZZX=           1801.8241
 ZZZY=           1257.4221 XXYY=          -2061.0760 XXZZ=          -1483.6932 YYZZ=          -2010.8177
 XXYZ=           -520.0863 YYXZ=            215.2123 ZZXY=           -300.4623
 N-N= 3.185114260778D+03 E-N=-9.906975159937D+03  KE= 1.512027062836D+03
 Unable to Open any file for archive entry.
 1\1\GINC-VIM-002\SP\RB3LYP\6-31G(d)\C20H31N4O7(1+)\KENGMITH\24-May-202
 2\0\\# B3LYP/6-31G* guess=read geom=check nosymm integral(ultrafinegri
 d)\\Candidate Structure: Conf:472 Charge calc in gas phase\\1,1\N,0,0.
 139188525,-3.8980102797,2.4960753344\H,0,1.1130784301,-3.6678008667,2.
 7220848288\H,0,-0.1929282841,-4.5993830662,3.1625054393\H,0,0.11218889
 05,-4.2602581437,1.493224194\C,0,-0.7234031405,-2.658210273,2.36097191
 5\H,0,-0.3149624344,-1.8850681859,3.0169130112\C,0,-0.526145996,-2.324
 8367046,0.8390908647\C,0,-2.1958224657,-2.9605452272,2.677184008\H,0,-
 2.5231559252,-3.8432634429,2.1172962163\H,0,-2.7793003209,-2.119835341
 ,2.2894473175\O,0,-0.2827726484,-3.2930100793,0.1089352815\C,0,-2.4930
 370738,-3.1157150759,4.1943774269\H,0,-2.2672755281,-2.1866532221,4.73
 21103586\H,0,-1.8840136507,-3.9125024599,4.6460934\C,0,-3.8784331015,-
 3.5214836712,4.481599441\O,0,-4.5959136273,-4.3170987219,4.9440869731\
 O,0,-4.8795080619,-1.850707655,4.2494369367\N,0,-0.6469366423,-1.03824
 23215,0.510778186\H,0,-0.7873374505,-0.4023411202,1.2886892223\C,0,-0.
 0086313734,-0.3467564725,-0.6530158988\H,0,-0.5189217925,0.6187515987,
 -0.7080238604\C,0,1.4717125048,-0.1412742827,-0.2138006774\C,0,-0.1303
 865607,-1.0507604025,-2.0184676967\H,0,0.3070609314,-2.0465139413,-1.9
 436596117\H,0,-1.196019785,-1.1653980668,-2.2510476596\O,0,2.299083776
 4,-1.0394981502,-0.3590418195\C,0,0.5744958566,-0.2509823118,-3.097860
 6943\C,0,-0.0271510373,0.8548046313,-3.7273470135\H,0,-1.0544496335,1.
 1193391464,-3.4808659873\C,0,1.8847636742,-0.5898571873,-3.4851158887\
 H,0,2.3619119555,-1.4531559221,-3.0305503563\C,0,0.6651770157,1.632603
 5352,-4.6457661431\H,0,0.2005348713,2.4971126165,-5.1097855918\C,0,2.5
 863573832,0.1704186243,-4.4069092307\H,0,3.5920142247,-0.1147246949,-4
 .7024333749\O,0,2.7046174006,2.1479012495,-5.7584659083\C,0,2.02253473
 ,1.3474207609,-4.9788995724\N,0,1.6585406663,1.0362082896,0.3983821164
 \H,0,0.9004870895,1.716109346,0.5454167093\C,0,2.9095569677,1.73055429
 88,0.6873402692\H,0,3.631031345,1.0711905476,1.1770704911\C,0,2.503593
 5719,2.9273976354,1.6405444105\C,0,3.4370601739,2.2461868951,-0.663770
 639\H,0,3.3934016212,1.390519816,-1.3458395335\H,0,2.6914886776,2.9725
 410643,-1.021135068\O,0,3.468752884,3.4791033127,2.2015549859\C,0,4.82
 66809914,2.8900163262,-0.7448568716\H,0,5.6004925608,2.121692017,-0.61
 26818035\H,0,4.9559639473,3.617165405,0.0624503528\C,0,5.0187740913,3.
 5738236021,-2.1243517776\H,0,4.4611887396,4.520235287,-2.1466742384\H,
 0,6.0782398703,3.8132382147,-2.2819190526\C,0,4.5045366882,2.660673284
 9,-3.2356296308\H,0,4.9804962086,1.6769142999,-3.1775600332\H,0,3.4342
 839853,2.5011832376,-3.1288029829\N,0,4.6802492772,3.1274100498,-4.645
 3880119\H,0,3.8131320979,2.532030174,-5.2926664138\H,0,5.6317730278,2.
 9855914902,-4.9872480681\H,0,4.4685235427,4.1235551893,-4.736575653\O,
 0,1.2738257337,3.181972289,1.6674141278\H,0,-4.960520508,-1.4219967145
 ,3.3663296245\H,0,-5.7922137675,-2.0684269807,4.5182050005\\Version=ES
 64L-G16RevC.01\HF=-1525.9671346\RMSD=4.680e-09\Dipole=-6.0214014,-7.30
 14759,5.615076\Quadrupole=19.8182705,-13.7905419,-6.0277286,25.3218736
 ,-64.8620356,-74.9218035\PG=C01 [X(C20H31N4O7)]\\@
 The archive entry for this job was punched.


 MODELS ARE TO BE USED, NOT BELIEVED.

    -- PARAPHRASED BY H. THIEL IN "PRINCIPLES OF ECONOMETRICS"
 Job cpu time:       0 days  0 hours  3 minutes 14.4 seconds.
 Elapsed time:       0 days  0 hours  0 minutes 49.3 seconds.
 File lengths (MBytes):  RWF=    264 Int=      0 D2E=      0 Chk=     40 Scr=     16
 Normal termination of Gaussian 16 at Tue May 24 03:32:58 2022.
