 Entering Gaussian System, Link 0=/opt/software/Gaussian/g16-AVX2-C.01/g16/g16
 Input=charge-conf-302.com
 Output=charge-conf-302.log
 Initial command:
 /opt/software/Gaussian/g16-AVX2-C.01/g16/l1.exe "/mnt/gs18/scratch/users/kengmith/Gau-20030.inp" -scrdir="/mnt/gs18/scratch/users/kengmith/"
 Entering Link 1 = /opt/software/Gaussian/g16-AVX2-C.01/g16/l1.exe PID=     20094.
  
 Copyright (c) 1988-2019, Gaussian, Inc.  All Rights Reserved.
  
 This is part of the Gaussian(R) 16 program.  It is based on
 the Gaussian(R) 09 system (copyright 2009, Gaussian, Inc.),
 the Gaussian(R) 03 system (copyright 2003, Gaussian, Inc.),
 the Gaussian(R) 98 system (copyright 1998, Gaussian, Inc.),
 the Gaussian(R) 94 system (copyright 1995, Gaussian, Inc.),
 the Gaussian 92(TM) system (copyright 1992, Gaussian, Inc.),
 the Gaussian 90(TM) system (copyright 1990, Gaussian, Inc.),
 the Gaussian 88(TM) system (copyright 1988, Gaussian, Inc.),
 the Gaussian 86(TM) system (copyright 1986, Carnegie Mellon
 University), and the Gaussian 82(TM) system (copyright 1983,
 Carnegie Mellon University). Gaussian is a federally registered
 trademark of Gaussian, Inc.
  
 This software contains proprietary and confidential information,
 including trade secrets, belonging to Gaussian, Inc.
  
 This software is provided under written license and may be
 used, copied, transmitted, or stored only in accord with that
 written license.
  
 The following legend is applicable only to US Government
 contracts under FAR:
  
                    RESTRICTED RIGHTS LEGEND
  
 Use, reproduction and disclosure by the US Government is
 subject to restrictions as set forth in subparagraphs (a)
 and (c) of the Commercial Computer Software - Restricted
 Rights clause in FAR 52.227-19.
  
 Gaussian, Inc.
 340 Quinnipiac St., Bldg. 40, Wallingford CT 06492
  
  
 ---------------------------------------------------------------
 Warning -- This program may not be used in any manner that
 competes with the business of Gaussian, Inc. or will provide
 assistance to any competitor of Gaussian, Inc.  The licensee
 of this program is prohibited from giving any competitor of
 Gaussian, Inc. access to this program.  By using this program,
 the user acknowledges that Gaussian, Inc. is engaged in the
 business of creating and licensing software in the field of
 computational chemistry and represents and warrants to the
 licensee that it is not a competitor of Gaussian, Inc. and that
 it will not use this program in any manner prohibited above.
 ---------------------------------------------------------------
  

 Cite this work as:
 Gaussian 16, Revision C.01,
 M. J. Frisch, G. W. Trucks, H. B. Schlegel, G. E. Scuseria, 
 M. A. Robb, J. R. Cheeseman, G. Scalmani, V. Barone, 
 G. A. Petersson, H. Nakatsuji, X. Li, M. Caricato, A. V. Marenich, 
 J. Bloino, B. G. Janesko, R. Gomperts, B. Mennucci, H. P. Hratchian, 
 J. V. Ortiz, A. F. Izmaylov, J. L. Sonnenberg, D. Williams-Young, 
 F. Ding, F. Lipparini, F. Egidi, J. Goings, B. Peng, A. Petrone, 
 T. Henderson, D. Ranasinghe, V. G. Zakrzewski, J. Gao, N. Rega, 
 G. Zheng, W. Liang, M. Hada, M. Ehara, K. Toyota, R. Fukuda, 
 J. Hasegawa, M. Ishida, T. Nakajima, Y. Honda, O. Kitao, H. Nakai, 
 T. Vreven, K. Throssell, J. A. Montgomery, Jr., J. E. Peralta, 
 F. Ogliaro, M. J. Bearpark, J. J. Heyd, E. N. Brothers, K. N. Kudin, 
 V. N. Staroverov, T. A. Keith, R. Kobayashi, J. Normand, 
 K. Raghavachari, A. P. Rendell, J. C. Burant, S. S. Iyengar, 
 J. Tomasi, M. Cossi, J. M. Millam, M. Klene, C. Adamo, R. Cammi, 
 J. W. Ochterski, R. L. Martin, K. Morokuma, O. Farkas, 
 J. B. Foresman, and D. J. Fox, Gaussian, Inc., Wallingford CT, 2019.
 
 ******************************************
 Gaussian 16:  ES64L-G16RevC.01  3-Jul-2019
                26-May-2022 
 ******************************************
 %mem=8gb
 %nproc=4
 Will use up to    4 processors via shared memory.
 %chk=conf-302.chk
 -------------------------------------------------------------------
 # B3LYP/6-31G* guess=read geom=check nosymm integral(ultrafinegrid)
 -------------------------------------------------------------------
 1/29=2,38=1,172=1/1;
 2/12=2,15=1,40=1/2;
 3/5=1,6=6,7=1,11=2,14=-4,25=1,30=1,74=-5,75=-5,116=-2/1,2,3;
 4/5=1/1;
 5/5=2,38=6/2;
 6/7=2,8=2,9=2,10=2,28=1/1;
 99/5=1,9=1/99;
 ------------------------------------------------------
 Candidate Structure: Conf:302 Charge calc in gas phase
 ------------------------------------------------------
 Structure from the checkpoint file:  "conf-302.chk"
 Charge =  1 Multiplicity = 1
 Redundant internal coordinates found in file.  (old form).
 N,0,-3.1615040281,1.6089959578,4.4571594441
 H,0,-4.1045692162,1.4377765228,4.806595149
 H,0,-2.6523125154,2.1042329957,5.1830816541
 C,0,-2.4960106517,0.3388499611,4.1280031488
 H,0,-1.504045625,0.3220712539,4.5979882722
 C,0,-2.2146973842,0.24498996,2.6151544316
 C,0,-3.2202769621,-0.9495234863,4.6021331282
 H,0,-2.5117331126,-1.776208908,4.4940624401
 H,0,-3.4386088763,-0.8403195484,5.6697061227
 O,0,-1.5719710159,-0.7085307913,2.1366577719
 C,0,-4.4981666006,-1.3431181709,3.8466114519
 H,0,-4.7964369413,-2.3566385192,4.1471287425
 H,0,-4.3236639179,-1.4054101904,2.7667166218
 C,0,-5.6988040883,-0.4495529003,4.0884762242
 O,0,-5.781933206,0.4063345419,4.950827331
 O,0,-6.6943426713,-0.7215000967,3.2314830947
 N,0,-2.7129350885,1.2594010407,1.8849111497
 H,0,-3.165800172,1.9829065299,2.4470519899
 C,0,-2.6649207855,1.3291581572,0.425980347
 H,0,-2.8770399469,0.3229594663,0.0442758203
 C,0,-1.2375438408,1.710428534,-0.0248819165
 C,0,-3.709084789,2.3173516672,-0.1310666441
 H,0,-3.4532250424,2.4961100982,-1.180742978
 H,0,-3.5800262487,3.2861553109,0.3659641405
 O,0,-0.9093893828,2.8218411038,-0.4174983912
 C,0,-5.1317854035,1.8391272044,-0.0261591
 C,0,-5.777949943,1.051634487,-0.9504088368
 H,0,-5.4158279884,0.6532303759,-1.8890582236
 C,0,-6.0919849731,2.104615363,1.0190669052
 C,0,-7.2972313435,1.4368732381,0.6601776964
 C,0,-6.0667963888,2.8482900507,2.2138180797
 H,0,-5.1713773944,3.3838860043,2.5192885441
 N,0,-7.0697933938,0.8022256407,-0.5418920614
 H,0,-7.7503586357,0.266772454,-1.0588393925
 C,0,-8.3851898501,2.2185135883,2.6351156579
 H,0,-9.2647421014,2.2893505511,3.268874145
 C,0,-8.4486670887,1.4833831571,1.4542528616
 H,0,-9.3618608001,0.9752245272,1.1558809691
 C,0,-7.2043070491,2.8966304638,3.0087190057
 H,0,-7.1896423821,3.4633775051,3.9344426685
 N,0,-0.3485768356,0.6575736763,0.0475266774
 H,0,-0.6513310996,-0.1778766929,0.561446831
 C,0,1.0393877403,0.8755395106,-0.2486901126
 H,0,1.0832576716,1.8384319765,-0.7720426896
 C,0,1.6665723237,-0.2464156295,-1.0818071507
 C,0,1.8390279533,1.0073873908,1.0751730647
 H,0,1.5748767891,1.9427804463,1.5717491796
 O,0,1.5549935882,-1.4244871568,-0.782663616
 C,0,1.8555253956,-0.1635216908,2.0276545828
 H,0,0.8265612166,-0.3665120204,2.3466314788
 H,0,2.4524693317,0.0758613992,2.9118941851
 H,0,2.2295237934,-1.0723631825,1.5501931376
 O,0,3.3448703045,1.2674268553,0.7152293377
 H,0,3.7830283548,0.5056321714,0.1822655433
 N,0,2.5511932863,0.1902407606,-2.0401507495
 H,0,2.3916620557,1.0813460116,-2.4939906996
 C,0,3.4029254624,-0.7783238425,-2.7178036593
 H,0,2.8049681505,-1.6302412846,-3.0603942492
 C,0,4.4201440564,-1.3786131917,-1.7506429227
 C,0,4.1395560477,-0.1522420599,-3.9206210074
 H,0,4.8493454252,-0.9021764088,-4.2862244558
 H,0,4.737101628,0.7041483812,-3.5771271257
 O,0,5.0538896581,-2.3740515575,-1.9399865029
 C,0,3.2021518336,0.2681202777,-5.0621273843
 H,0,2.5866938456,-0.591445544,-5.3605672185
 H,0,2.5004110121,1.0513915799,-4.7436901953
 C,0,3.9824880411,0.7909347361,-6.2776338037
 H,0,4.5646436295,1.6751879382,-6.0060827765
 H,0,4.7026591739,0.024535831,-6.6056399062
 N,0,3.0837104294,1.1727487471,-7.3672607602
 H,0,2.7646093782,0.3822849501,-7.9162686845
 N,0,3.778194743,3.4092705871,-7.4628618481
 H,0,3.8912054299,4.1954231372,-8.0950352428
 H,0,3.1584170984,3.6473104441,-6.6939546625
 N,0,3.2405443962,2.3544984003,-9.4576624203
 H,0,3.077022616,1.4362987522,-9.875522652
 C,0,3.3570680805,2.2850628681,-8.1857480453
 O,0,4.6381282536,-0.6180468625,-0.5899989344
 H,0,3.4556968348,2.0932518729,0.2028833918
 H,0,5.3238027259,-1.0996219242,-0.0844761359
 H,0,-7.3966288846,-0.0511041145,3.3656681364
 Recover connectivity data from disk.
                           ----------------------------
                           !    Current Parameters    !
                           ! (Angstroms and Degrees)  !
 --------------------------                            --------------------------
 ! Name  Definition              Value                                          !
 --------------------------------------------------------------------------------
 ! R1    R(1,2)                  1.0202                                         !
 ! R2    R(1,3)                  1.0156                                         !
 ! R3    R(1,4)                  1.4712                                         !
 ! R4    R(4,5)                  1.0978                                         !
 ! R5    R(4,6)                  1.5416                                         !
 ! R6    R(4,7)                  1.5522                                         !
 ! R7    R(6,10)                 1.2455                                         !
 ! R8    R(6,17)                 1.3456                                         !
 ! R9    R(7,8)                  1.0941                                         !
 ! R10   R(7,9)                  1.0951                                         !
 ! R11   R(7,11)                 1.5358                                         !
 ! R12   R(11,12)                1.0984                                         !
 ! R13   R(11,13)                1.0957                                         !
 ! R14   R(11,14)                1.5161                                         !
 ! R15   R(14,15)                1.2178                                         !
 ! R16   R(14,16)                1.3415                                         !
 ! R17   R(16,81)                0.9801                                         !
 ! R18   R(17,18)                1.022                                          !
 ! R19   R(17,19)                1.4614                                         !
 ! R20   R(19,20)                1.0969                                         !
 ! R21   R(19,21)                1.5447                                         !
 ! R22   R(19,22)                1.5418                                         !
 ! R23   R(21,25)                1.2235                                         !
 ! R24   R(21,41)                1.3799                                         !
 ! R25   R(22,23)                1.0951                                         !
 ! R26   R(22,24)                1.0965                                         !
 ! R27   R(22,26)                1.5046                                         !
 ! R28   R(26,27)                1.3755                                         !
 ! R29   R(26,29)                1.4439                                         !
 ! R30   R(27,28)                1.0821                                         !
 ! R31   R(27,33)                1.3777                                         !
 ! R32   R(29,30)                1.4238                                         !
 ! R33   R(29,31)                1.4075                                         !
 ! R34   R(30,33)                1.3782                                         !
 ! R35   R(30,37)                1.3995                                         !
 ! R36   R(31,32)                1.0872                                         !
 ! R37   R(31,39)                1.3886                                         !
 ! R38   R(33,34)                1.0085                                         !
 ! R39   R(35,36)                1.0864                                         !
 ! R40   R(35,37)                1.3924                                         !
 ! R41   R(35,39)                1.4121                                         !
 ! R42   R(37,38)                1.0868                                         !
 ! R43   R(39,40)                1.0855                                         !
 ! R44   R(41,42)                1.0265                                         !
 ! R45   R(41,43)                1.4359                                         !
 ! R46   R(43,44)                1.0968                                         !
 ! R47   R(43,45)                1.5317                                         !
 ! R48   R(43,46)                1.5522                                         !
 ! R49   R(45,48)                1.2206                                         !
 ! R50   R(45,55)                1.3754                                         !
 ! R51   R(46,47)                1.0915                                         !
 ! R52   R(46,49)                1.5095                                         !
 ! R53   R(46,53)                1.5699                                         !
 ! R54   R(49,50)                1.0962                                         !
 ! R55   R(49,51)                1.0934                                         !
 ! R56   R(49,52)                1.0926                                         !
 ! R57   R(53,54)                1.0278                                         !
 ! R58   R(53,79)                0.9781                                         !
 ! R59   R(55,56)                1.0127                                         !
 ! R60   R(55,57)                1.457                                          !
 ! R61   R(57,58)                1.0958                                         !
 ! R62   R(57,59)                1.5266                                         !
 ! R63   R(57,60)                1.5432                                         !
 ! R64   R(59,63)                1.1951                                         !
 ! R65   R(59,78)                1.4047                                         !
 ! R66   R(60,61)                1.0954                                         !
 ! R67   R(60,62)                1.0993                                         !
 ! R68   R(60,64)                1.5357                                         !
 ! R69   R(64,65)                1.0985                                         !
 ! R70   R(64,66)                1.0988                                         !
 ! R71   R(64,67)                1.5361                                         !
 ! R72   R(67,68)                1.093                                          !
 ! R73   R(67,69)                1.1016                                         !
 ! R74   R(67,70)                1.4632                                         !
 ! R75   R(70,71)                1.0139                                         !
 ! R76   R(70,77)                1.4078                                         !
 ! R77   R(72,73)                1.0151                                         !
 ! R78   R(72,74)                1.0159                                         !
 ! R79   R(72,77)                1.4013                                         !
 ! R80   R(75,76)                1.022                                          !
 ! R81   R(75,77)                1.2791                                         !
 ! R82   R(78,80)                0.9786                                         !
 ! A1    A(2,1,3)              107.4861                                         !
 ! A2    A(2,1,4)              110.4801                                         !
 ! A3    A(3,1,4)              110.7383                                         !
 ! A4    A(1,4,5)              109.035                                          !
 ! A5    A(1,4,6)              110.7723                                         !
 ! A6    A(1,4,7)              115.9246                                         !
 ! A7    A(5,4,6)              104.7324                                         !
 ! A8    A(5,4,7)              106.151                                          !
 ! A9    A(6,4,7)              109.534                                          !
 ! A10   A(4,6,10)             121.1836                                         !
 ! A11   A(4,6,17)             114.778                                          !
 ! A12   A(10,6,17)            124.0384                                         !
 ! A13   A(4,7,8)              107.1459                                         !
 ! A14   A(4,7,9)              107.9406                                         !
 ! A15   A(4,7,11)             116.7888                                         !
 ! A16   A(8,7,9)              107.5019                                         !
 ! A17   A(8,7,11)             107.2539                                         !
 ! A18   A(9,7,11)             109.8298                                         !
 ! A19   A(7,11,12)            109.1368                                         !
 ! A20   A(7,11,13)            111.5247                                         !
 ! A21   A(7,11,14)            115.4301                                         !
 ! A22   A(12,11,13)           105.0963                                         !
 ! A23   A(12,11,14)           106.5677                                         !
 ! A24   A(13,11,14)           108.4739                                         !
 ! A25   A(11,14,15)           125.5385                                         !
 ! A26   A(11,14,16)           111.4889                                         !
 ! A27   A(15,14,16)           122.9697                                         !
 ! A28   A(14,16,81)           107.7964                                         !
 ! A29   A(6,17,18)            113.5321                                         !
 ! A30   A(6,17,19)            124.445                                          !
 ! A31   A(18,17,19)           121.9964                                         !
 ! A32   A(17,19,20)           107.2936                                         !
 ! A33   A(17,19,21)           109.4833                                         !
 ! A34   A(17,19,22)           111.6562                                         !
 ! A35   A(20,19,21)           107.671                                          !
 ! A36   A(20,19,22)           109.3451                                         !
 ! A37   A(21,19,22)           111.2325                                         !
 ! A38   A(19,21,25)           124.4507                                         !
 ! A39   A(19,21,41)           113.0584                                         !
 ! A40   A(25,21,41)           122.4892                                         !
 ! A41   A(19,22,23)           107.02                                           !
 ! A42   A(19,22,24)           108.8334                                         !
 ! A43   A(19,22,26)           114.2974                                         !
 ! A44   A(23,22,24)           105.2343                                         !
 ! A45   A(23,22,26)           109.8551                                         !
 ! A46   A(24,22,26)           111.1323                                         !
 ! A47   A(22,26,27)           125.4037                                         !
 ! A48   A(22,26,29)           128.3765                                         !
 ! A49   A(27,26,29)           106.2171                                         !
 ! A50   A(26,27,28)           129.5284                                         !
 ! A51   A(26,27,33)           110.1763                                         !
 ! A52   A(28,27,33)           120.2896                                         !
 ! A53   A(26,29,30)           107.1103                                         !
 ! A54   A(26,29,31)           134.4022                                         !
 ! A55   A(30,29,31)           118.4825                                         !
 ! A56   A(29,30,33)           107.2241                                         !
 ! A57   A(29,30,37)           122.5372                                         !
 ! A58   A(33,30,37)           130.2385                                         !
 ! A59   A(29,31,32)           120.8997                                         !
 ! A60   A(29,31,39)           119.318                                          !
 ! A61   A(32,31,39)           119.7823                                         !
 ! A62   A(27,33,30)           109.2693                                         !
 ! A63   A(27,33,34)           125.233                                          !
 ! A64   A(30,33,34)           125.4641                                         !
 ! A65   A(36,35,37)           119.4873                                         !
 ! A66   A(36,35,39)           119.4325                                         !
 ! A67   A(37,35,39)           121.067                                          !
 ! A68   A(30,37,35)           117.4667                                         !
 ! A69   A(30,37,38)           121.3329                                         !
 ! A70   A(35,37,38)           121.1965                                         !
 ! A71   A(31,39,35)           121.1245                                         !
 ! A72   A(31,39,40)           119.689                                          !
 ! A73   A(35,39,40)           119.1864                                         !
 ! A74   A(21,41,42)           117.2101                                         !
 ! A75   A(21,41,43)           119.7424                                         !
 ! A76   A(42,41,43)           120.7918                                         !
 ! A77   A(41,43,44)           105.6862                                         !
 ! A78   A(41,43,45)           113.3793                                         !
 ! A79   A(41,43,46)           109.5675                                         !
 ! A80   A(44,43,45)           111.539                                          !
 ! A81   A(44,43,46)           108.1668                                         !
 ! A82   A(45,43,46)           108.3707                                         !
 ! A83   A(43,45,48)           122.4277                                         !
 ! A84   A(43,45,55)           114.1921                                         !
 ! A85   A(48,45,55)           122.4116                                         !
 ! A86   A(43,46,47)           109.6421                                         !
 ! A87   A(43,46,49)           118.5488                                         !
 ! A88   A(43,46,53)           108.2189                                         !
 ! A89   A(47,46,49)           112.3549                                         !
 ! A90   A(47,46,53)           101.2149                                         !
 ! A91   A(49,46,53)           105.2286                                         !
 ! A92   A(46,49,50)           108.4808                                         !
 ! A93   A(46,49,51)           110.2693                                         !
 ! A94   A(46,49,52)           111.915                                          !
 ! A95   A(50,49,51)           108.5225                                         !
 ! A96   A(50,49,52)           107.1226                                         !
 ! A97   A(51,49,52)           110.4032                                         !
 ! A98   A(46,53,54)           113.8925                                         !
 ! A99   A(46,53,79)           111.6299                                         !
 ! A100  A(54,53,79)           107.8097                                         !
 ! A101  A(45,55,56)           119.3618                                         !
 ! A102  A(45,55,57)           119.2767                                         !
 ! A103  A(56,55,57)           117.9452                                         !
 ! A104  A(55,57,58)           110.075                                          !
 ! A105  A(55,57,59)           110.8713                                         !
 ! A106  A(55,57,60)           111.8312                                         !
 ! A107  A(58,57,59)           104.8317                                         !
 ! A108  A(58,57,60)           109.4038                                         !
 ! A109  A(59,57,60)           109.5892                                         !
 ! A110  A(57,59,63)           125.4841                                         !
 ! A111  A(57,59,78)           114.4549                                         !
 ! A112  A(63,59,78)           119.9732                                         !
 ! A113  A(57,60,61)           106.96                                           !
 ! A114  A(57,60,62)           109.3893                                         !
 ! A115  A(57,60,64)           113.5182                                         !
 ! A116  A(61,60,62)           106.5839                                         !
 ! A117  A(61,60,64)           109.5625                                         !
 ! A118  A(62,60,64)           110.5369                                         !
 ! A119  A(60,64,65)           109.2531                                         !
 ! A120  A(60,64,66)           111.6869                                         !
 ! A121  A(60,64,67)           111.7921                                         !
 ! A122  A(65,64,66)           106.1834                                         !
 ! A123  A(65,64,67)           109.6304                                         !
 ! A124  A(66,64,67)           108.1271                                         !
 ! A125  A(64,67,68)           110.4466                                         !
 ! A126  A(64,67,69)           109.3239                                         !
 ! A127  A(64,67,70)           111.4715                                         !
 ! A128  A(68,67,69)           106.7754                                         !
 ! A129  A(68,67,70)           107.5231                                         !
 ! A130  A(69,67,70)           111.1846                                         !
 ! A131  A(67,70,71)           113.1482                                         !
 ! A132  A(67,70,77)           121.3236                                         !
 ! A133  A(71,70,77)           111.24                                           !
 ! A134  A(73,72,74)           110.9661                                         !
 ! A135  A(73,72,77)           109.481                                          !
 ! A136  A(74,72,77)           113.2711                                         !
 ! A137  A(76,75,77)           111.8621                                         !
 ! A138  A(70,77,72)           113.0973                                         !
 ! A139  A(70,77,75)           127.108                                          !
 ! A140  A(72,77,75)           119.7867                                         !
 ! A141  A(59,78,80)           105.6121                                         !
 ! D1    D(2,1,4,5)           -130.2312                                         !
 ! D2    D(2,1,4,6)            115.0236                                         !
 ! D3    D(2,1,4,7)            -10.5684                                         !
 ! D4    D(3,1,4,5)            -11.2591                                         !
 ! D5    D(3,1,4,6)           -126.0043                                         !
 ! D6    D(3,1,4,7)            108.4037                                         !
 ! D7    D(1,4,6,10)           174.8615                                         !
 ! D8    D(1,4,6,17)            -5.0917                                         !
 ! D9    D(5,4,6,10)            57.4476                                         !
 ! D10   D(5,4,6,17)          -122.5056                                         !
 ! D11   D(7,4,6,10)           -56.0357                                         !
 ! D12   D(7,4,6,17)           124.0111                                         !
 ! D13   D(1,4,7,8)           -167.3202                                         !
 ! D14   D(1,4,7,9)            -51.8082                                         !
 ! D15   D(1,4,7,11)            72.4488                                         !
 ! D16   D(5,4,7,8)            -46.101                                          !
 ! D17   D(5,4,7,9)             69.411                                          !
 ! D18   D(5,4,7,11)          -166.332                                          !
 ! D19   D(6,4,7,8)             66.4601                                         !
 ! D20   D(6,4,7,9)           -178.0279                                         !
 ! D21   D(6,4,7,11)           -53.7709                                         !
 ! D22   D(4,6,17,18)            3.3158                                         !
 ! D23   D(4,6,17,19)         -174.838                                          !
 ! D24   D(10,6,17,18)        -176.6359                                         !
 ! D25   D(10,6,17,19)           5.2103                                         !
 ! D26   D(4,7,11,12)          169.2056                                         !
 ! D27   D(4,7,11,13)           53.5345                                         !
 ! D28   D(4,7,11,14)          -70.8473                                         !
 ! D29   D(8,7,11,12)           49.032                                          !
 ! D30   D(8,7,11,13)          -66.6391                                         !
 ! D31   D(8,7,11,14)          168.9791                                         !
 ! D32   D(9,7,11,12)          -67.5039                                         !
 ! D33   D(9,7,11,13)          176.8251                                         !
 ! D34   D(9,7,11,14)           52.4433                                         !
 ! D35   D(7,11,14,15)         -11.053                                          !
 ! D36   D(7,11,14,16)         169.5625                                         !
 ! D37   D(12,11,14,15)        110.2909                                         !
 ! D38   D(12,11,14,16)        -69.0936                                         !
 ! D39   D(13,11,14,15)       -137.0109                                         !
 ! D40   D(13,11,14,16)         43.6046                                         !
 ! D41   D(11,14,16,81)       -173.6138                                         !
 ! D42   D(15,14,16,81)          6.9832                                         !
 ! D43   D(6,17,19,20)          40.4426                                         !
 ! D44   D(6,17,19,21)         -76.1333                                         !
 ! D45   D(6,17,19,22)         160.2385                                         !
 ! D46   D(18,17,19,20)       -137.5615                                         !
 ! D47   D(18,17,19,21)        105.8627                                         !
 ! D48   D(18,17,19,22)        -17.7655                                         !
 ! D49   D(17,19,21,25)       -103.6788                                         !
 ! D50   D(17,19,21,41)         76.7864                                         !
 ! D51   D(20,19,21,25)        139.9842                                         !
 ! D52   D(20,19,21,41)        -39.5505                                         !
 ! D53   D(22,19,21,25)         20.1985                                         !
 ! D54   D(22,19,21,41)       -159.3363                                         !
 ! D55   D(17,19,22,23)        166.5574                                         !
 ! D56   D(17,19,22,24)         53.3066                                         !
 ! D57   D(17,19,22,26)        -71.5777                                         !
 ! D58   D(20,19,22,23)        -74.8628                                         !
 ! D59   D(20,19,22,24)        171.8865                                         !
 ! D60   D(20,19,22,26)         47.0021                                         !
 ! D61   D(21,19,22,23)         43.9237                                         !
 ! D62   D(21,19,22,24)        -69.327                                          !
 ! D63   D(21,19,22,26)        165.7886                                         !
 ! D64   D(19,21,41,42)        -12.5804                                         !
 ! D65   D(19,21,41,43)       -175.6637                                         !
 ! D66   D(25,21,41,42)        167.8744                                         !
 ! D67   D(25,21,41,43)          4.7911                                         !
 ! D68   D(19,22,26,27)        -86.5731                                         !
 ! D69   D(19,22,26,29)         94.1104                                         !
 ! D70   D(23,22,26,27)         33.7236                                         !
 ! D71   D(23,22,26,29)       -145.5929                                         !
 ! D72   D(24,22,26,27)        149.7694                                         !
 ! D73   D(24,22,26,29)        -29.547                                          !
 ! D74   D(22,26,27,28)         -0.8434                                         !
 ! D75   D(22,26,27,33)       -179.9631                                         !
 ! D76   D(29,26,27,28)        178.5986                                         !
 ! D77   D(29,26,27,33)         -0.5212                                         !
 ! D78   D(22,26,29,30)        179.7362                                         !
 ! D79   D(22,26,29,31)          0.595                                          !
 ! D80   D(27,26,29,30)          0.3165                                         !
 ! D81   D(27,26,29,31)       -178.8248                                         !
 ! D82   D(26,27,33,30)          0.5378                                         !
 ! D83   D(26,27,33,34)        178.5239                                         !
 ! D84   D(28,27,33,30)       -178.6759                                         !
 ! D85   D(28,27,33,34)         -0.6898                                         !
 ! D86   D(26,29,30,33)         -0.002                                          !
 ! D87   D(26,29,30,37)       -179.8684                                         !
 ! D88   D(31,29,30,33)        179.3                                            !
 ! D89   D(31,29,30,37)         -0.5664                                         !
 ! D90   D(26,29,31,32)         -0.1536                                         !
 ! D91   D(26,29,31,39)        179.766                                          !
 ! D92   D(30,29,31,32)       -179.2199                                         !
 ! D93   D(30,29,31,39)          0.6997                                         !
 ! D94   D(29,30,33,27)         -0.3181                                         !
 ! D95   D(29,30,33,34)       -178.2983                                         !
 ! D96   D(37,30,33,27)        179.5344                                         !
 ! D97   D(37,30,33,34)          1.5541                                         !
 ! D98   D(29,30,37,35)          0.0174                                         !
 ! D99   D(29,30,37,38)        179.3103                                         !
 ! D100  D(33,30,37,35)       -179.8154                                         !
 ! D101  D(33,30,37,38)         -0.5226                                         !
 ! D102  D(29,31,39,35)         -0.3117                                         !
 ! D103  D(29,31,39,40)        179.6266                                         !
 ! D104  D(32,31,39,35)        179.6088                                         !
 ! D105  D(32,31,39,40)         -0.4529                                         !
 ! D106  D(36,35,37,30)        179.0644                                         !
 ! D107  D(36,35,37,38)         -0.2294                                         !
 ! D108  D(39,35,37,30)          0.3941                                         !
 ! D109  D(39,35,37,38)       -178.8998                                         !
 ! D110  D(36,35,39,31)       -178.9254                                         !
 ! D111  D(36,35,39,40)          1.136                                          !
 ! D112  D(37,35,39,31)         -0.2543                                         !
 ! D113  D(37,35,39,40)        179.8071                                         !
 ! D114  D(21,41,43,44)        -16.0713                                         !
 ! D115  D(21,41,43,45)       -138.5407                                         !
 ! D116  D(21,41,43,46)        100.257                                          !
 ! D117  D(42,41,43,44)       -178.5389                                         !
 ! D118  D(42,41,43,45)         58.9917                                         !
 ! D119  D(42,41,43,46)        -62.2106                                         !
 ! D120  D(41,43,45,48)        -49.979                                          !
 ! D121  D(41,43,45,55)        141.0398                                         !
 ! D122  D(44,43,45,48)       -169.1421                                         !
 ! D123  D(44,43,45,55)         21.8768                                         !
 ! D124  D(46,43,45,48)         71.8936                                         !
 ! D125  D(46,43,45,55)        -97.0876                                         !
 ! D126  D(41,43,46,47)        -69.5343                                         !
 ! D127  D(41,43,46,49)         61.3038                                         !
 ! D128  D(41,43,46,53)       -179.0996                                         !
 ! D129  D(44,43,46,47)         45.2138                                         !
 ! D130  D(44,43,46,49)        176.0519                                         !
 ! D131  D(44,43,46,53)        -64.3515                                         !
 ! D132  D(45,43,46,47)        166.2859                                         !
 ! D133  D(45,43,46,49)        -62.876                                          !
 ! D134  D(45,43,46,53)         56.7205                                         !
 ! D135  D(43,45,55,56)        -33.0683                                         !
 ! D136  D(43,45,55,57)        168.2066                                         !
 ! D137  D(48,45,55,56)        157.9485                                         !
 ! D138  D(48,45,55,57)         -0.7765                                         !
 ! D139  D(43,46,49,50)        -61.1024                                         !
 ! D140  D(43,46,49,51)       -179.8199                                         !
 ! D141  D(43,46,49,52)         56.871                                          !
 ! D142  D(47,46,49,50)         68.5042                                         !
 ! D143  D(47,46,49,51)        -50.2132                                         !
 ! D144  D(47,46,49,52)       -173.5223                                         !
 ! D145  D(53,46,49,50)        177.7671                                         !
 ! D146  D(53,46,49,51)         59.0496                                         !
 ! D147  D(53,46,49,52)        -64.2595                                         !
 ! D148  D(43,46,53,54)        -61.6626                                         !
 ! D149  D(43,46,53,79)         60.7165                                         !
 ! D150  D(47,46,53,54)       -176.8788                                         !
 ! D151  D(47,46,53,79)        -54.4997                                         !
 ! D152  D(49,46,53,54)         66.0025                                         !
 ! D153  D(49,46,53,79)       -171.6184                                         !
 ! D154  D(45,55,57,58)         48.0351                                         !
 ! D155  D(45,55,57,59)        -67.4972                                         !
 ! D156  D(45,55,57,60)        169.8678                                         !
 ! D157  D(56,55,57,58)       -110.9891                                         !
 ! D158  D(56,55,57,59)        133.4786                                         !
 ! D159  D(56,55,57,60)         10.8437                                         !
 ! D160  D(55,57,59,63)        163.7791                                         !
 ! D161  D(55,57,59,78)        -19.6495                                         !
 ! D162  D(58,57,59,63)         45.0296                                         !
 ! D163  D(58,57,59,78)       -138.399                                          !
 ! D164  D(60,57,59,63)        -72.2945                                         !
 ! D165  D(60,57,59,78)        104.2769                                         !
 ! D166  D(55,57,60,61)        172.6884                                         !
 ! D167  D(55,57,60,62)         57.6219                                         !
 ! D168  D(55,57,60,64)        -66.3482                                         !
 ! D169  D(58,57,60,61)        -65.0938                                         !
 ! D170  D(58,57,60,62)        179.8397                                         !
 ! D171  D(58,57,60,64)         55.8696                                         !
 ! D172  D(59,57,60,61)         49.3258                                         !
 ! D173  D(59,57,60,62)        -65.7407                                         !
 ! D174  D(59,57,60,64)        170.2893                                         !
 ! D175  D(57,59,78,80)       -178.1991                                         !
 ! D176  D(63,59,78,80)         -1.4218                                         !
 ! D177  D(57,60,64,65)        -54.3336                                         !
 ! D178  D(57,60,64,66)         62.8353                                         !
 ! D179  D(57,60,64,67)       -175.8597                                         !
 ! D180  D(61,60,64,65)         65.1558                                         !
 ! D181  D(61,60,64,66)       -177.6753                                         !
 ! D182  D(61,60,64,67)        -56.3703                                         !
 ! D183  D(62,60,64,65)       -177.6775                                         !
 ! D184  D(62,60,64,66)        -60.5087                                         !
 ! D185  D(62,60,64,67)         60.7964                                         !
 ! D186  D(60,64,67,68)        -61.2834                                         !
 ! D187  D(60,64,67,69)         55.92                                           !
 ! D188  D(60,64,67,70)        179.2483                                         !
 ! D189  D(65,64,67,68)        177.4086                                         !
 ! D190  D(65,64,67,69)        -65.388                                          !
 ! D191  D(65,64,67,70)         57.9402                                         !
 ! D192  D(66,64,67,68)         62.0594                                         !
 ! D193  D(66,64,67,69)        179.2628                                         !
 ! D194  D(66,64,67,70)        -57.4089                                         !
 ! D195  D(64,67,70,71)        -80.5392                                         !
 ! D196  D(64,67,70,77)        143.2903                                         !
 ! D197  D(68,67,70,71)        158.273                                          !
 ! D198  D(68,67,70,77)         22.1025                                         !
 ! D199  D(69,67,70,71)         41.7235                                         !
 ! D200  D(69,67,70,77)        -94.4471                                         !
 ! D201  D(67,70,77,72)        -44.1971                                         !
 ! D202  D(67,70,77,75)        136.8443                                         !
 ! D203  D(71,70,77,72)        178.8945                                         !
 ! D204  D(71,70,77,75)         -0.0641                                         !
 ! D205  D(73,72,77,70)       -175.7196                                         !
 ! D206  D(73,72,77,75)          3.3234                                         !
 ! D207  D(74,72,77,70)        -51.2972                                         !
 ! D208  D(74,72,77,75)        127.7459                                         !
 ! D209  D(76,75,77,70)        -10.4415                                         !
 ! D210  D(76,75,77,72)        170.6623                                         !
 --------------------------------------------------------------------------------
 Symmetry turned off by external request.
 Stoichiometry    C26H39N8O8(1+)
 Framework group  C1[X(C26H39N8O8)]
 Deg. of freedom   237
 Full point group                 C1      NOp   1
                          Input orientation:                          
 ---------------------------------------------------------------------
 Center     Atomic      Atomic             Coordinates (Angstroms)
 Number     Number       Type             X           Y           Z
 ---------------------------------------------------------------------
      1          7           0       -3.161504    1.608996    4.457159
      2          1           0       -4.104569    1.437777    4.806595
      3          1           0       -2.652313    2.104233    5.183082
      4          6           0       -2.496011    0.338850    4.128003
      5          1           0       -1.504046    0.322071    4.597988
      6          6           0       -2.214697    0.244990    2.615154
      7          6           0       -3.220277   -0.949523    4.602133
      8          1           0       -2.511733   -1.776209    4.494062
      9          1           0       -3.438609   -0.840320    5.669706
     10          8           0       -1.571971   -0.708531    2.136658
     11          6           0       -4.498167   -1.343118    3.846611
     12          1           0       -4.796437   -2.356639    4.147129
     13          1           0       -4.323664   -1.405410    2.766717
     14          6           0       -5.698804   -0.449553    4.088476
     15          8           0       -5.781933    0.406335    4.950827
     16          8           0       -6.694343   -0.721500    3.231483
     17          7           0       -2.712935    1.259401    1.884911
     18          1           0       -3.165800    1.982907    2.447052
     19          6           0       -2.664921    1.329158    0.425980
     20          1           0       -2.877040    0.322959    0.044276
     21          6           0       -1.237544    1.710429   -0.024882
     22          6           0       -3.709085    2.317352   -0.131067
     23          1           0       -3.453225    2.496110   -1.180743
     24          1           0       -3.580026    3.286155    0.365964
     25          8           0       -0.909389    2.821841   -0.417498
     26          6           0       -5.131785    1.839127   -0.026159
     27          6           0       -5.777950    1.051634   -0.950409
     28          1           0       -5.415828    0.653230   -1.889058
     29          6           0       -6.091985    2.104615    1.019067
     30          6           0       -7.297231    1.436873    0.660178
     31          6           0       -6.066796    2.848290    2.213818
     32          1           0       -5.171377    3.383886    2.519289
     33          7           0       -7.069793    0.802226   -0.541892
     34          1           0       -7.750359    0.266772   -1.058839
     35          6           0       -8.385190    2.218514    2.635116
     36          1           0       -9.264742    2.289351    3.268874
     37          6           0       -8.448667    1.483383    1.454253
     38          1           0       -9.361861    0.975225    1.155881
     39          6           0       -7.204307    2.896630    3.008719
     40          1           0       -7.189642    3.463378    3.934443
     41          7           0       -0.348577    0.657574    0.047527
     42          1           0       -0.651331   -0.177877    0.561447
     43          6           0        1.039388    0.875540   -0.248690
     44          1           0        1.083258    1.838432   -0.772043
     45          6           0        1.666572   -0.246416   -1.081807
     46          6           0        1.839028    1.007387    1.075173
     47          1           0        1.574877    1.942780    1.571749
     48          8           0        1.554994   -1.424487   -0.782664
     49          6           0        1.855525   -0.163522    2.027655
     50          1           0        0.826561   -0.366512    2.346631
     51          1           0        2.452469    0.075861    2.911894
     52          1           0        2.229524   -1.072363    1.550193
     53          8           0        3.344870    1.267427    0.715229
     54          1           0        3.783028    0.505632    0.182266
     55          7           0        2.551193    0.190241   -2.040151
     56          1           0        2.391662    1.081346   -2.493991
     57          6           0        3.402925   -0.778324   -2.717804
     58          1           0        2.804968   -1.630241   -3.060394
     59          6           0        4.420144   -1.378613   -1.750643
     60          6           0        4.139556   -0.152242   -3.920621
     61          1           0        4.849345   -0.902176   -4.286224
     62          1           0        4.737102    0.704148   -3.577127
     63          8           0        5.053890   -2.374052   -1.939987
     64          6           0        3.202152    0.268120   -5.062127
     65          1           0        2.586694   -0.591446   -5.360567
     66          1           0        2.500411    1.051392   -4.743690
     67          6           0        3.982488    0.790935   -6.277634
     68          1           0        4.564644    1.675188   -6.006083
     69          1           0        4.702659    0.024536   -6.605640
     70          7           0        3.083710    1.172749   -7.367261
     71          1           0        2.764609    0.382285   -7.916269
     72          7           0        3.778195    3.409271   -7.462862
     73          1           0        3.891205    4.195423   -8.095035
     74          1           0        3.158417    3.647310   -6.693955
     75          7           0        3.240544    2.354498   -9.457662
     76          1           0        3.077023    1.436299   -9.875523
     77          6           0        3.357068    2.285063   -8.185748
     78          8           0        4.638128   -0.618047   -0.589999
     79          1           0        3.455697    2.093252    0.202883
     80          1           0        5.323803   -1.099622   -0.084476
     81          1           0       -7.396629   -0.051104    3.365668
 ---------------------------------------------------------------------
 Rotational constants (GHZ):           0.1207071           0.0314003           0.0267337
 Standard basis: 6-31G(d) (6D, 7F)
   708 basis functions,  1332 primitive gaussians,   708 cartesian basis functions
   157 alpha electrons      157 beta electrons
       nuclear repulsion energy      5063.6568976091 Hartrees.
 NAtoms=   81 NActive=   81 NUniq=   81 SFac= 1.00D+00 NAtFMM=   60 NAOKFM=T Big=T
 Integral buffers will be    131072 words long.
 Raffenetti 2 integral format.
 Two-electron integral symmetry is turned off.
 One-electron integrals computed using PRISM.
 NBasis=   708 RedAO= T EigKep=  3.71D-04  NBF=   708
 NBsUse=   708 1.00D-06 EigRej= -1.00D+00 NBFU=   708
 Initial guess from the checkpoint file:  "conf-302.chk"
 B after Tr=     0.000000    0.000000    0.000000
         Rot=    1.000000    0.000000    0.000000    0.000000 Ang=   0.00 deg.
 Requested convergence on RMS density matrix=1.00D-08 within 128 cycles.
 Requested convergence on MAX density matrix=1.00D-06.
 Requested convergence on             energy=1.00D-06.
 No special actions if energy rises.
 SCF Done:  E(RB3LYP) =  -2053.87023594     A.U. after    1 cycles
            NFock=  1  Conv=0.26D-08     -V/T= 2.0093

 **********************************************************************

            Population analysis using the SCF Density.

 **********************************************************************

 Alpha  occ. eigenvalues --  -19.43042 -19.35981 -19.28501 -19.26207 -19.25836
 Alpha  occ. eigenvalues --  -19.22729 -19.21102 -19.20866 -14.50844 -14.46945
 Alpha  occ. eigenvalues --  -14.44994 -14.44976 -14.42270 -14.40437 -14.39629
 Alpha  occ. eigenvalues --  -14.34967 -10.46493 -10.43301 -10.43061 -10.39440
 Alpha  occ. eigenvalues --  -10.39073 -10.38098 -10.37735 -10.37424 -10.34398
 Alpha  occ. eigenvalues --  -10.32949 -10.32029 -10.31751 -10.31114 -10.30898
 Alpha  occ. eigenvalues --  -10.29794 -10.29061 -10.28730 -10.27757 -10.27352
 Alpha  occ. eigenvalues --  -10.27067 -10.25808 -10.25546 -10.25432 -10.25336
 Alpha  occ. eigenvalues --  -10.25203 -10.24679  -1.28911  -1.25014  -1.18314
 Alpha  occ. eigenvalues --   -1.17095  -1.16559  -1.14684  -1.12326  -1.08154
 Alpha  occ. eigenvalues --   -1.07176  -1.04904  -1.04502  -1.04037  -1.01870
 Alpha  occ. eigenvalues --   -0.96763  -0.95792  -0.94569  -0.92562  -0.90641
 Alpha  occ. eigenvalues --   -0.90612  -0.88462  -0.86935  -0.86570  -0.85237
 Alpha  occ. eigenvalues --   -0.83465  -0.80441  -0.80222  -0.79521  -0.78610
 Alpha  occ. eigenvalues --   -0.78509  -0.77542  -0.75605  -0.74016  -0.73161
 Alpha  occ. eigenvalues --   -0.71896  -0.70650  -0.69484  -0.68985  -0.68837
 Alpha  occ. eigenvalues --   -0.67579  -0.66876  -0.66211  -0.65604  -0.65046
 Alpha  occ. eigenvalues --   -0.64922  -0.63395  -0.63269  -0.62236  -0.61180
 Alpha  occ. eigenvalues --   -0.60854  -0.60792  -0.59875  -0.59598  -0.59199
 Alpha  occ. eigenvalues --   -0.58417  -0.58255  -0.57541  -0.57303  -0.57210
 Alpha  occ. eigenvalues --   -0.55827  -0.55637  -0.55478  -0.55248  -0.54992
 Alpha  occ. eigenvalues --   -0.54705  -0.53925  -0.53734  -0.53563  -0.53107
 Alpha  occ. eigenvalues --   -0.52888  -0.52233  -0.51675  -0.51645  -0.51044
 Alpha  occ. eigenvalues --   -0.50850  -0.50707  -0.50307  -0.50221  -0.49919
 Alpha  occ. eigenvalues --   -0.49598  -0.48941  -0.48809  -0.48306  -0.48018
 Alpha  occ. eigenvalues --   -0.47662  -0.47172  -0.47057  -0.46747  -0.46641
 Alpha  occ. eigenvalues --   -0.46628  -0.45390  -0.44541  -0.44442  -0.43678
 Alpha  occ. eigenvalues --   -0.43294  -0.43222  -0.42626  -0.41991  -0.41864
 Alpha  occ. eigenvalues --   -0.40500  -0.40214  -0.40065  -0.39749  -0.38370
 Alpha  occ. eigenvalues --   -0.37895  -0.37074  -0.36130  -0.34597  -0.34400
 Alpha  occ. eigenvalues --   -0.33959  -0.33329  -0.32060  -0.31765  -0.29457
 Alpha  occ. eigenvalues --   -0.28998  -0.27260
 Alpha virt. eigenvalues --   -0.14889  -0.13377  -0.12480  -0.09550  -0.08067
 Alpha virt. eigenvalues --   -0.07601  -0.07011  -0.06786  -0.06191  -0.04892
 Alpha virt. eigenvalues --   -0.04186  -0.02293  -0.01944  -0.01313  -0.00683
 Alpha virt. eigenvalues --   -0.00089   0.00213   0.00632   0.01259   0.01313
 Alpha virt. eigenvalues --    0.02140   0.02460   0.02750   0.02905   0.03295
 Alpha virt. eigenvalues --    0.03887   0.04200   0.04467   0.04627   0.04959
 Alpha virt. eigenvalues --    0.05189   0.05460   0.05814   0.06524   0.07008
 Alpha virt. eigenvalues --    0.07181   0.07344   0.07512   0.07864   0.07987
 Alpha virt. eigenvalues --    0.08196   0.08752   0.09007   0.09388   0.09490
 Alpha virt. eigenvalues --    0.09614   0.10069   0.10460   0.10895   0.11068
 Alpha virt. eigenvalues --    0.11572   0.11771   0.11863   0.12093   0.12574
 Alpha virt. eigenvalues --    0.13099   0.13389   0.13716   0.14059   0.14233
 Alpha virt. eigenvalues --    0.15618   0.15752   0.15976   0.16912   0.17199
 Alpha virt. eigenvalues --    0.18275   0.18541   0.18720   0.20032   0.20196
 Alpha virt. eigenvalues --    0.20715   0.20879   0.21560   0.22312   0.22700
 Alpha virt. eigenvalues --    0.23435   0.24875   0.25000   0.25552   0.26196
 Alpha virt. eigenvalues --    0.27317   0.28186   0.28354   0.28872   0.30281
 Alpha virt. eigenvalues --    0.30596   0.33271   0.35138   0.36001   0.36628
 Alpha virt. eigenvalues --    0.37038   0.37470   0.37582   0.38850   0.39431
 Alpha virt. eigenvalues --    0.39499   0.40074   0.41271   0.42510   0.43186
 Alpha virt. eigenvalues --    0.43680   0.43792   0.44382   0.44744   0.44887
 Alpha virt. eigenvalues --    0.45154   0.46104   0.46475   0.46864   0.47563
 Alpha virt. eigenvalues --    0.47820   0.48181   0.48277   0.48801   0.49208
 Alpha virt. eigenvalues --    0.49434   0.50243   0.50363   0.50722   0.51262
 Alpha virt. eigenvalues --    0.52052   0.52292   0.52446   0.52932   0.53443
 Alpha virt. eigenvalues --    0.53736   0.53881   0.54337   0.54690   0.54782
 Alpha virt. eigenvalues --    0.55027   0.55273   0.55653   0.55810   0.56002
 Alpha virt. eigenvalues --    0.56540   0.57205   0.57387   0.57817   0.58081
 Alpha virt. eigenvalues --    0.58372   0.58761   0.59414   0.59987   0.60221
 Alpha virt. eigenvalues --    0.60687   0.61107   0.61870   0.62491   0.63044
 Alpha virt. eigenvalues --    0.63487   0.63826   0.64624   0.65213   0.65464
 Alpha virt. eigenvalues --    0.65619   0.66028   0.66135   0.66953   0.67121
 Alpha virt. eigenvalues --    0.67802   0.68379   0.68769   0.69331   0.69737
 Alpha virt. eigenvalues --    0.69968   0.70610   0.71047   0.71551   0.72334
 Alpha virt. eigenvalues --    0.72670   0.73028   0.73249   0.73547   0.73686
 Alpha virt. eigenvalues --    0.74074   0.74193   0.74869   0.75341   0.75544
 Alpha virt. eigenvalues --    0.75905   0.76108   0.76184   0.76770   0.77345
 Alpha virt. eigenvalues --    0.77559   0.78169   0.78379   0.78727   0.78855
 Alpha virt. eigenvalues --    0.79111   0.79480   0.79552   0.80026   0.80456
 Alpha virt. eigenvalues --    0.80924   0.81303   0.81793   0.81989   0.82133
 Alpha virt. eigenvalues --    0.82566   0.83095   0.83353   0.83587   0.83837
 Alpha virt. eigenvalues --    0.84072   0.84302   0.84728   0.85474   0.85673
 Alpha virt. eigenvalues --    0.85986   0.86390   0.86976   0.87547   0.87893
 Alpha virt. eigenvalues --    0.88259   0.88668   0.88974   0.89115   0.89504
 Alpha virt. eigenvalues --    0.90117   0.90510   0.90921   0.91318   0.91413
 Alpha virt. eigenvalues --    0.91788   0.92305   0.92696   0.93499   0.93745
 Alpha virt. eigenvalues --    0.94639   0.95251   0.96013   0.96389   0.96605
 Alpha virt. eigenvalues --    0.97730   0.98097   0.98866   0.99731   1.00224
 Alpha virt. eigenvalues --    1.00569   1.01200   1.02059   1.03231   1.04344
 Alpha virt. eigenvalues --    1.04952   1.05437   1.05924   1.07240   1.07738
 Alpha virt. eigenvalues --    1.08609   1.08739   1.09809   1.10813   1.11474
 Alpha virt. eigenvalues --    1.11871   1.14003   1.14014   1.15948   1.17134
 Alpha virt. eigenvalues --    1.17301   1.17804   1.18291   1.18544   1.19381
 Alpha virt. eigenvalues --    1.20145   1.20979   1.22618   1.23650   1.24194
 Alpha virt. eigenvalues --    1.24522   1.25130   1.25574   1.26396   1.27075
 Alpha virt. eigenvalues --    1.27994   1.28801   1.29059   1.29974   1.31033
 Alpha virt. eigenvalues --    1.31118   1.31262   1.32369   1.33576   1.33882
 Alpha virt. eigenvalues --    1.35037   1.35292   1.35799   1.36852   1.37200
 Alpha virt. eigenvalues --    1.37687   1.38695   1.38848   1.39206   1.40255
 Alpha virt. eigenvalues --    1.40745   1.41646   1.41943   1.42847   1.43493
 Alpha virt. eigenvalues --    1.44230   1.44572   1.45619   1.46153   1.48307
 Alpha virt. eigenvalues --    1.48661   1.49914   1.50635   1.51996   1.52407
 Alpha virt. eigenvalues --    1.52896   1.53538   1.54446   1.54824   1.55252
 Alpha virt. eigenvalues --    1.56247   1.56630   1.57415   1.59968   1.60600
 Alpha virt. eigenvalues --    1.60888   1.61588   1.62925   1.63350   1.63662
 Alpha virt. eigenvalues --    1.64460   1.64913   1.65339   1.65878   1.66296
 Alpha virt. eigenvalues --    1.66460   1.67218   1.67529   1.67776   1.69093
 Alpha virt. eigenvalues --    1.69619   1.71023   1.71478   1.71526   1.72228
 Alpha virt. eigenvalues --    1.73013   1.73485   1.73834   1.74037   1.74272
 Alpha virt. eigenvalues --    1.74744   1.75242   1.75781   1.76110   1.76755
 Alpha virt. eigenvalues --    1.77427   1.78212   1.78547   1.79122   1.79516
 Alpha virt. eigenvalues --    1.80092   1.80502   1.81277   1.81763   1.82129
 Alpha virt. eigenvalues --    1.82724   1.83078   1.83334   1.83725   1.84663
 Alpha virt. eigenvalues --    1.85226   1.85544   1.86065   1.86450   1.86900
 Alpha virt. eigenvalues --    1.87896   1.88566   1.88932   1.89175   1.90014
 Alpha virt. eigenvalues --    1.90294   1.90901   1.91709   1.92337   1.92868
 Alpha virt. eigenvalues --    1.93704   1.93903   1.94491   1.95200   1.95275
 Alpha virt. eigenvalues --    1.96656   1.96761   1.97263   1.97879   1.98977
 Alpha virt. eigenvalues --    1.99215   1.99534   2.00372   2.00915   2.01431
 Alpha virt. eigenvalues --    2.02148   2.03140   2.03722   2.04763   2.07117
 Alpha virt. eigenvalues --    2.07547   2.08180   2.08977   2.09532   2.10914
 Alpha virt. eigenvalues --    2.11314   2.11909   2.12430   2.12948   2.14227
 Alpha virt. eigenvalues --    2.14991   2.15634   2.16753   2.18275   2.18591
 Alpha virt. eigenvalues --    2.19087   2.19908   2.20049   2.20746   2.21096
 Alpha virt. eigenvalues --    2.21952   2.22863   2.23829   2.24048   2.24449
 Alpha virt. eigenvalues --    2.25778   2.26506   2.27081   2.28317   2.29109
 Alpha virt. eigenvalues --    2.30566   2.31041   2.31909   2.32559   2.32900
 Alpha virt. eigenvalues --    2.33204   2.34516   2.35150   2.36052   2.36215
 Alpha virt. eigenvalues --    2.36445   2.37099   2.37624   2.39817   2.40289
 Alpha virt. eigenvalues --    2.42227   2.42498   2.43223   2.43885   2.44238
 Alpha virt. eigenvalues --    2.45773   2.45859   2.47267   2.47437   2.48997
 Alpha virt. eigenvalues --    2.50315   2.50498   2.51139   2.51705   2.53025
 Alpha virt. eigenvalues --    2.54269   2.54598   2.55114   2.56099   2.57093
 Alpha virt. eigenvalues --    2.57493   2.57785   2.58442   2.59296   2.59781
 Alpha virt. eigenvalues --    2.60703   2.61599   2.62487   2.63471   2.64443
 Alpha virt. eigenvalues --    2.64786   2.66327   2.67611   2.68373   2.69010
 Alpha virt. eigenvalues --    2.69264   2.69810   2.71200   2.71585   2.73481
 Alpha virt. eigenvalues --    2.74643   2.75671   2.78744   2.80464   2.82292
 Alpha virt. eigenvalues --    2.85434   2.86087   2.87030   2.87732   2.90812
 Alpha virt. eigenvalues --    2.92077   2.92624   2.93455   2.94049   2.94586
 Alpha virt. eigenvalues --    2.95336   2.96082   3.02613   3.03455   3.04196
 Alpha virt. eigenvalues --    3.06837   3.09898   3.17981   3.37137   3.62820
 Alpha virt. eigenvalues --    3.75891   3.79219   3.81606   3.82333   3.82838
 Alpha virt. eigenvalues --    3.89638   3.92075   3.94900   3.96360   3.98546
 Alpha virt. eigenvalues --    4.03193   4.03936   4.05248   4.05925   4.07439
 Alpha virt. eigenvalues --    4.07597   4.08779   4.11652   4.12849   4.16182
 Alpha virt. eigenvalues --    4.18720   4.19023   4.20286   4.22123   4.22433
 Alpha virt. eigenvalues --    4.25036   4.26258   4.29705   4.30092   4.34899
 Alpha virt. eigenvalues --    4.35351   4.37191   4.40653   4.44852   4.49039
 Alpha virt. eigenvalues --    4.50571   4.52385   4.56672   4.59551   4.61059
 Alpha virt. eigenvalues --    4.74023
          Condensed to atoms (all electrons):
 Mulliken charges:
               1
     1  N   -0.799529
     2  H    0.373014
     3  H    0.316719
     4  C   -0.055647
     5  H    0.153076
     6  C    0.607642
     7  C   -0.276018
     8  H    0.168573
     9  H    0.169891
    10  O   -0.580781
    11  C   -0.372590
    12  H    0.197134
    13  H    0.191173
    14  C    0.600043
    15  O   -0.482647
    16  O   -0.564084
    17  N   -0.601726
    18  H    0.389068
    19  C   -0.036737
    20  H    0.181687
    21  C    0.615892
    22  C   -0.391088
    23  H    0.173944
    24  H    0.174365
    25  O   -0.512871
    26  C    0.066467
    27  C    0.008344
    28  H    0.155036
    29  C    0.081609
    30  C    0.330854
    31  C   -0.218229
    32  H    0.126490
    33  N   -0.684515
    34  H    0.338904
    35  C   -0.192073
    36  H    0.145819
    37  C   -0.182261
    38  H    0.141685
    39  C   -0.123391
    40  H    0.140853
    41  N   -0.625657
    42  H    0.398347
    43  C   -0.068150
    44  H    0.182706
    45  C    0.593583
    46  C    0.048428
    47  H    0.226955
    48  O   -0.474791
    49  C   -0.499478
    50  H    0.240419
    51  H    0.191017
    52  H    0.205426
    53  O   -0.654979
    54  H    0.518646
    55  N   -0.652131
    56  H    0.352570
    57  C   -0.014786
    58  H    0.226656
    59  C    0.636066
    60  C   -0.321185
    61  H    0.199481
    62  H    0.150787
    63  O   -0.399767
    64  C   -0.266644
    65  H    0.159718
    66  H    0.134837
    67  C   -0.143080
    68  H    0.183661
    69  H    0.153800
    70  N   -0.595415
    71  H    0.316432
    72  N   -0.733961
    73  H    0.346563
    74  H    0.313869
    75  N   -0.609334
    76  H    0.271395
    77  C    0.541640
    78  O   -0.657085
    79  H    0.473856
    80  H    0.449259
    81  H    0.426228
 Sum of Mulliken charges =   1.00000
 Mulliken charges with hydrogens summed into heavy atoms:
               1
     1  N   -0.109796
     4  C    0.097429
     6  C    0.607642
     7  C    0.062446
    10  O   -0.580781
    11  C    0.015716
    14  C    0.600043
    15  O   -0.482647
    16  O   -0.137856
    17  N   -0.212658
    19  C    0.144950
    21  C    0.615892
    22  C   -0.042778
    25  O   -0.512871
    26  C    0.066467
    27  C    0.163381
    29  C    0.081609
    30  C    0.330854
    31  C   -0.091739
    33  N   -0.345612
    35  C   -0.046254
    37  C   -0.040576
    39  C    0.017462
    41  N   -0.227310
    43  C    0.114557
    45  C    0.593583
    46  C    0.275383
    48  O   -0.474791
    49  C    0.137384
    53  O    0.337523
    55  N   -0.299561
    57  C    0.211870
    59  C    0.636066
    60  C    0.029083
    63  O   -0.399767
    64  C    0.027911
    67  C    0.194381
    70  N   -0.278983
    72  N   -0.073529
    75  N   -0.337939
    77  C    0.541640
    78  O   -0.207825
 Electronic spatial extent (au):  <R**2>=          40099.4173
 Charge=              1.0000 electrons
 Dipole moment (field-independent basis, Debye):
    X=              5.4238    Y=              3.3766    Z=              0.9499  Tot=              6.4592
 Quadrupole moment (field-independent basis, Debye-Ang):
   XX=           -136.0306   YY=           -244.8204   ZZ=           -219.5648
   XY=             15.4537   XZ=             -4.3593   YZ=             16.8780
 Traceless Quadrupole moment (field-independent basis, Debye-Ang):
   XX=             64.1080   YY=            -44.6818   ZZ=            -19.4262
   XY=             15.4537   XZ=             -4.3593   YZ=             16.8780
 Octapole moment (field-independent basis, Debye-Ang**2):
  XXX=            495.1875  YYY=           -522.4415  ZZZ=            474.6687  XYY=            313.6443
  XXY=           -177.3143  XXZ=             85.1830  XZZ=            212.6808  YZZ=           -346.9877
  YYZ=            110.3141  XYZ=             21.7766
 Hexadecapole moment (field-independent basis, Debye-Ang**3):
 XXXX=         -23011.0326 YYYY=          -3772.0765 ZZZZ=         -22507.2809 XXXY=           1926.2264
 XXXZ=           7298.7941 YYYX=           2120.7443 YYYZ=            716.4849 ZZZX=           8077.3399
 ZZZY=           2961.9818 XXYY=          -5580.5707 XXZZ=          -8050.9929 YYZZ=          -4022.0298
 XXYZ=            528.5709 YYXZ=           2346.7620 ZZXY=             -3.8131
 N-N= 5.063656897609D+03 E-N=-1.488512319396D+04  KE= 2.034888324872D+03
 Unable to Open any file for archive entry.
 1\1\GINC-VIM-002\SP\RB3LYP\6-31G(d)\C26H39N8O8(1+)\KENGMITH\26-May-202
 2\0\\# B3LYP/6-31G* guess=read geom=check nosymm integral(ultrafinegri
 d)\\Candidate Structure: Conf:302 Charge calc in gas phase\\1,1\N,0,-3
 .1615040281,1.6089959578,4.4571594441\H,0,-4.1045692162,1.4377765228,4
 .806595149\H,0,-2.6523125154,2.1042329957,5.1830816541\C,0,-2.49601065
 17,0.3388499611,4.1280031488\H,0,-1.504045625,0.3220712539,4.597988272
 2\C,0,-2.2146973842,0.24498996,2.6151544316\C,0,-3.2202769621,-0.94952
 34863,4.6021331282\H,0,-2.5117331126,-1.776208908,4.4940624401\H,0,-3.
 4386088763,-0.8403195484,5.6697061227\O,0,-1.5719710159,-0.7085307913,
 2.1366577719\C,0,-4.4981666006,-1.3431181709,3.8466114519\H,0,-4.79643
 69413,-2.3566385192,4.1471287425\H,0,-4.3236639179,-1.4054101904,2.766
 7166218\C,0,-5.6988040883,-0.4495529003,4.0884762242\O,0,-5.781933206,
 0.4063345419,4.950827331\O,0,-6.6943426713,-0.7215000967,3.2314830947\
 N,0,-2.7129350885,1.2594010407,1.8849111497\H,0,-3.165800172,1.9829065
 299,2.4470519899\C,0,-2.6649207855,1.3291581572,0.425980347\H,0,-2.877
 0399469,0.3229594663,0.0442758203\C,0,-1.2375438408,1.710428534,-0.024
 8819165\C,0,-3.709084789,2.3173516672,-0.1310666441\H,0,-3.4532250424,
 2.4961100982,-1.180742978\H,0,-3.5800262487,3.2861553109,0.3659641405\
 O,0,-0.9093893828,2.8218411038,-0.4174983912\C,0,-5.1317854035,1.83912
 72044,-0.0261591\C,0,-5.777949943,1.051634487,-0.9504088368\H,0,-5.415
 8279884,0.6532303759,-1.8890582236\C,0,-6.0919849731,2.104615363,1.019
 0669052\C,0,-7.2972313435,1.4368732381,0.6601776964\C,0,-6.0667963888,
 2.8482900507,2.2138180797\H,0,-5.1713773944,3.3838860043,2.5192885441\
 N,0,-7.0697933938,0.8022256407,-0.5418920614\H,0,-7.7503586357,0.26677
 2454,-1.0588393925\C,0,-8.3851898501,2.2185135883,2.6351156579\H,0,-9.
 2647421014,2.2893505511,3.268874145\C,0,-8.4486670887,1.4833831571,1.4
 542528616\H,0,-9.3618608001,0.9752245272,1.1558809691\C,0,-7.204307049
 1,2.8966304638,3.0087190057\H,0,-7.1896423821,3.4633775051,3.934442668
 5\N,0,-0.3485768356,0.6575736763,0.0475266774\H,0,-0.6513310996,-0.177
 8766929,0.561446831\C,0,1.0393877403,0.8755395106,-0.2486901126\H,0,1.
 0832576716,1.8384319765,-0.7720426896\C,0,1.6665723237,-0.2464156295,-
 1.0818071507\C,0,1.8390279533,1.0073873908,1.0751730647\H,0,1.57487678
 91,1.9427804463,1.5717491796\O,0,1.5549935882,-1.4244871568,-0.7826636
 16\C,0,1.8555253956,-0.1635216908,2.0276545828\H,0,0.8265612166,-0.366
 5120204,2.3466314788\H,0,2.4524693317,0.0758613992,2.9118941851\H,0,2.
 2295237934,-1.0723631825,1.5501931376\O,0,3.3448703045,1.2674268553,0.
 7152293377\H,0,3.7830283548,0.5056321714,0.1822655433\N,0,2.5511932863
 ,0.1902407606,-2.0401507495\H,0,2.3916620557,1.0813460116,-2.493990699
 6\C,0,3.4029254624,-0.7783238425,-2.7178036593\H,0,2.8049681505,-1.630
 2412846,-3.0603942492\C,0,4.4201440564,-1.3786131917,-1.7506429227\C,0
 ,4.1395560477,-0.1522420599,-3.9206210074\H,0,4.8493454252,-0.90217640
 88,-4.2862244558\H,0,4.737101628,0.7041483812,-3.5771271257\O,0,5.0538
 896581,-2.3740515575,-1.9399865029\C,0,3.2021518336,0.2681202777,-5.06
 21273843\H,0,2.5866938456,-0.591445544,-5.3605672185\H,0,2.5004110121,
 1.0513915799,-4.7436901953\C,0,3.9824880411,0.7909347361,-6.2776338037
 \H,0,4.5646436295,1.6751879382,-6.0060827765\H,0,4.7026591739,0.024535
 831,-6.6056399062\N,0,3.0837104294,1.1727487471,-7.3672607602\H,0,2.76
 46093782,0.3822849501,-7.9162686845\N,0,3.778194743,3.4092705871,-7.46
 28618481\H,0,3.8912054299,4.1954231372,-8.0950352428\H,0,3.1584170984,
 3.6473104441,-6.6939546625\N,0,3.2405443962,2.3544984003,-9.4576624203
 \H,0,3.077022616,1.4362987522,-9.875522652\C,0,3.3570680805,2.28506286
 81,-8.1857480453\O,0,4.6381282536,-0.6180468625,-0.5899989344\H,0,3.45
 56968348,2.0932518729,0.2028833918\H,0,5.3238027259,-1.0996219242,-0.0
 844761359\H,0,-7.3966288846,-0.0511041145,3.3656681364\\Version=ES64L-
 G16RevC.01\HF=-2053.8702359\RMSD=2.599e-09\Dipole=4.1777053,-0.0529029
 ,0.8536531\Quadrupole=47.6627157,-33.2198071,-14.4429086,11.4894412,-3
 .2410343,12.5483861\PG=C01 [X(C26H39N8O8)]\\@
 The archive entry for this job was punched.


 OUR LITTLE SYSTEMS HAVE THEIR DAY,    
   THEY HAVE THEIR DAY AND CEASE TO BE.
   THEY ARE BUT BROKEN LIGHTS OF THEE, 
 AND THOU, OH LORD, ART MORE THAN THEY.
          -------------------          
 LET KNOWLEDGE GROW FROM MORE TO MORE, 
   BUT MORE OF REVERENCE IN US DWELL.  
   THAT MIND AND SOUL, ACCORDING WELL, 
 MAY MAKE ONE MUSIC AS BEFORE.....     
          -------------------          
                    LORD TENNYSON      
 Job cpu time:       0 days  0 hours  2 minutes 18.0 seconds.
 Elapsed time:       0 days  0 hours  0 minutes 35.9 seconds.
 File lengths (MBytes):  RWF=    376 Int=      0 D2E=      0 Chk=     56 Scr=     16
 Normal termination of Gaussian 16 at Thu May 26 18:18:32 2022.
