 Entering Gaussian System, Link 0=/opt/software/Gaussian/g16-AVX2-C.01/g16/g16
 Input=charge-conf-747.com
 Output=charge-conf-747.log
 Initial command:
 /opt/software/Gaussian/g16-AVX2-C.01/g16/l1.exe "/mnt/gs18/scratch/users/kengmith/Gau-35936.inp" -scrdir="/mnt/gs18/scratch/users/kengmith/"
 Entering Link 1 = /opt/software/Gaussian/g16-AVX2-C.01/g16/l1.exe PID=     35946.
  
 Copyright (c) 1988-2019, Gaussian, Inc.  All Rights Reserved.
  
 This is part of the Gaussian(R) 16 program.  It is based on
 the Gaussian(R) 09 system (copyright 2009, Gaussian, Inc.),
 the Gaussian(R) 03 system (copyright 2003, Gaussian, Inc.),
 the Gaussian(R) 98 system (copyright 1998, Gaussian, Inc.),
 the Gaussian(R) 94 system (copyright 1995, Gaussian, Inc.),
 the Gaussian 92(TM) system (copyright 1992, Gaussian, Inc.),
 the Gaussian 90(TM) system (copyright 1990, Gaussian, Inc.),
 the Gaussian 88(TM) system (copyright 1988, Gaussian, Inc.),
 the Gaussian 86(TM) system (copyright 1986, Carnegie Mellon
 University), and the Gaussian 82(TM) system (copyright 1983,
 Carnegie Mellon University). Gaussian is a federally registered
 trademark of Gaussian, Inc.
  
 This software contains proprietary and confidential information,
 including trade secrets, belonging to Gaussian, Inc.
  
 This software is provided under written license and may be
 used, copied, transmitted, or stored only in accord with that
 written license.
  
 The following legend is applicable only to US Government
 contracts under FAR:
  
                    RESTRICTED RIGHTS LEGEND
  
 Use, reproduction and disclosure by the US Government is
 subject to restrictions as set forth in subparagraphs (a)
 and (c) of the Commercial Computer Software - Restricted
 Rights clause in FAR 52.227-19.
  
 Gaussian, Inc.
 340 Quinnipiac St., Bldg. 40, Wallingford CT 06492
  
  
 ---------------------------------------------------------------
 Warning -- This program may not be used in any manner that
 competes with the business of Gaussian, Inc. or will provide
 assistance to any competitor of Gaussian, Inc.  The licensee
 of this program is prohibited from giving any competitor of
 Gaussian, Inc. access to this program.  By using this program,
 the user acknowledges that Gaussian, Inc. is engaged in the
 business of creating and licensing software in the field of
 computational chemistry and represents and warrants to the
 licensee that it is not a competitor of Gaussian, Inc. and that
 it will not use this program in any manner prohibited above.
 ---------------------------------------------------------------
  

 Cite this work as:
 Gaussian 16, Revision C.01,
 M. J. Frisch, G. W. Trucks, H. B. Schlegel, G. E. Scuseria, 
 M. A. Robb, J. R. Cheeseman, G. Scalmani, V. Barone, 
 G. A. Petersson, H. Nakatsuji, X. Li, M. Caricato, A. V. Marenich, 
 J. Bloino, B. G. Janesko, R. Gomperts, B. Mennucci, H. P. Hratchian, 
 J. V. Ortiz, A. F. Izmaylov, J. L. Sonnenberg, D. Williams-Young, 
 F. Ding, F. Lipparini, F. Egidi, J. Goings, B. Peng, A. Petrone, 
 T. Henderson, D. Ranasinghe, V. G. Zakrzewski, J. Gao, N. Rega, 
 G. Zheng, W. Liang, M. Hada, M. Ehara, K. Toyota, R. Fukuda, 
 J. Hasegawa, M. Ishida, T. Nakajima, Y. Honda, O. Kitao, H. Nakai, 
 T. Vreven, K. Throssell, J. A. Montgomery, Jr., J. E. Peralta, 
 F. Ogliaro, M. J. Bearpark, J. J. Heyd, E. N. Brothers, K. N. Kudin, 
 V. N. Staroverov, T. A. Keith, R. Kobayashi, J. Normand, 
 K. Raghavachari, A. P. Rendell, J. C. Burant, S. S. Iyengar, 
 J. Tomasi, M. Cossi, J. M. Millam, M. Klene, C. Adamo, R. Cammi, 
 J. W. Ochterski, R. L. Martin, K. Morokuma, O. Farkas, 
 J. B. Foresman, and D. J. Fox, Gaussian, Inc., Wallingford CT, 2019.
 
 ******************************************
 Gaussian 16:  ES64L-G16RevC.01  3-Jul-2019
                26-May-2022 
 ******************************************
 %mem=8gb
 %nproc=4
 Will use up to    4 processors via shared memory.
 %chk=conf-747.chk
 -------------------------------------------------------------------
 # B3LYP/6-31G* guess=read geom=check nosymm integral(ultrafinegrid)
 -------------------------------------------------------------------
 1/29=2,38=1,172=1/1;
 2/12=2,15=1,40=1/2;
 3/5=1,6=6,7=1,11=2,14=-4,25=1,30=1,74=-5,75=-5,116=-2/1,2,3;
 4/5=1/1;
 5/5=2,38=6/2;
 6/7=2,8=2,9=2,10=2,28=1/1;
 99/5=1,9=1/99;
 ------------------------------------------------------
 Candidate Structure: Conf:747 Charge calc in gas phase
 ------------------------------------------------------
 Structure from the checkpoint file:  "conf-747.chk"
 Charge =  1 Multiplicity = 1
 Redundant internal coordinates found in file.  (old form).
 N,0,-5.9143917267,1.2303000715,2.9905772247
 H,0,-6.7048034038,1.7654553463,3.3414996766
 H,0,-6.200421209,0.2630584091,2.8583713711
 C,0,-5.4493598598,1.7800343403,1.7226482748
 H,0,-6.241117154,1.8562776745,0.9497299932
 C,0,-4.4725857226,0.7465617777,1.1387815308
 C,0,-4.8955374872,3.2019956607,1.9360899862
 H,0,-4.4761582382,3.5924950106,0.9995114571
 H,0,-5.7409805997,3.8578271992,2.1696238832
 O,0,-4.6750969719,-0.4573331563,1.2592741282
 C,0,-3.8818923615,3.3167306001,3.0818540851
 H,0,-3.2960940513,4.2394919316,2.9706989633
 H,0,-3.1666188726,2.4887873706,3.0958118884
 C,0,-4.558019742,3.4032062716,4.438160041
 O,0,-5.6758712861,3.8251683093,4.6392711756
 O,0,-3.727446731,3.0164438793,5.4310998734
 N,0,-3.3956065521,1.2040236282,0.4160688218
 H,0,-3.1733208687,2.1879103956,0.3747328707
 C,0,-2.4814466449,0.2493529825,-0.1590693733
 H,0,-2.5986620825,-0.6808641508,0.4114768581
 C,0,-1.0753186465,0.7498699207,-0.0038537797
 C,0,-2.8181490526,-0.0975552829,-1.6644461048
 H,0,-2.5994899364,0.7718083627,-2.2948481718
 H,0,-3.9065686371,-0.2230303998,-1.6555017671
 O,0,-0.699391418,1.8412134237,0.3133532975
 C,0,-2.1584841255,-1.3346068284,-2.1895879066
 C,0,-1.3128417716,-1.4290575764,-3.2798894879
 H,0,-0.9528385468,-0.6531893365,-3.9413215923
 C,0,-2.340278177,-2.6819344358,-1.6899377716
 C,0,-1.5691682371,-3.5372981276,-2.5212116363
 C,0,-3.0930542103,-3.2416662124,-0.6382487241
 H,0,-3.7253318089,-2.6211524454,-0.0074660484
 N,0,-0.9542755252,-2.7417049323,-3.4735038536
 H,0,-0.3906059425,-3.0778929247,-4.2403548751
 C,0,-2.2569782323,-5.4442694267,-1.2741233293
 H,0,-2.2427075184,-6.5152631716,-1.0956215103
 C,0,-1.5139728887,-4.9209455749,-2.3252318942
 H,0,-0.923099909,-5.562961864,-2.9722815966
 C,0,-3.0389292857,-4.6157260433,-0.4427283571
 H,0,-3.6188217783,-5.0647316011,0.357960691
 N,0,-0.0221816792,-0.2940561777,-0.3680419172
 H,0,-0.1990146057,-0.5723937031,-1.3686441573
 C,0,1.3997438754,0.1499844587,-0.2236198893
 H,0,1.454042524,0.7902235055,0.6604824897
 C,0,1.7417422962,0.907970489,-1.5191011871
 C,0,2.2474226039,-1.1453158268,-0.0253523474
 H,0,2.2835682081,-1.6716493162,-0.9858381029
 O,0,1.1284209727,0.6153717947,-2.5451965825
 C,0,3.6592990472,-0.8626794182,0.4700907877
 H,0,4.2205194012,-0.2452786132,-0.237586467
 H,0,4.1972559839,-1.8067953438,0.5945493644
 H,0,3.6409515435,-0.3439212861,1.4379958263
 O,0,1.5208851643,-2.0111878269,0.8497718953
 H,0,1.830362553,-1.8844704564,1.7623043819
 N,0,2.72814146,1.8185600654,-1.4348256256
 H,0,3.1685235507,2.0019272075,-0.5422444813
 C,0,3.2496851439,2.539654089,-2.599569394
 H,0,2.7843403615,2.0918017134,-3.4797150724
 C,0,4.7584264411,2.3435000893,-2.7281061426
 C,0,2.8930098997,4.0473739746,-2.5418812968
 H,0,3.4547122587,4.5183277393,-1.7226143027
 H,0,1.8310026603,4.1090471587,-2.2739788087
 O,0,5.376323011,2.4556192193,-3.7562874292
 C,0,3.1326551254,4.789763784,-3.8631303855
 H,0,4.1771444634,4.6838824802,-4.1778514898
 H,0,2.5159777136,4.3373124764,-4.6493887801
 C,0,2.7741227511,6.282967688,-3.761125325
 H,0,1.7489617966,6.3907210212,-3.3950865515
 H,0,3.4239491678,6.7815035462,-3.0315135768
 N,0,2.8954638068,7.0096247405,-5.0247870477
 H,0,3.8557403059,7.1198343791,-5.3311597249
 N,0,0.7063569935,6.5259428746,-5.7047820832
 H,0,0.1222087168,6.4608355337,-6.5326903112
 H,0,0.3589773077,7.2455288646,-5.0766784141
 N,0,2.3407952692,6.6740641639,-7.3421697072
 H,0,3.352307812,6.7088862577,-7.4841765492
 C,0,2.0361372737,6.7361214948,-6.0997510115
 O,0,5.3444310584,2.0856941331,-1.527193057
 H,0,-0.1274715541,-1.1547707584,0.2028210099
 H,0,6.3068928097,2.0361562139,-1.6888316979
 H,0,-4.2205948588,3.1388263558,6.2647982696
 Recover connectivity data from disk.
                           ----------------------------
                           !    Current Parameters    !
                           ! (Angstroms and Degrees)  !
 --------------------------                            --------------------------
 ! Name  Definition              Value                                          !
 --------------------------------------------------------------------------------
 ! R1    R(1,2)                  1.017                                          !
 ! R2    R(1,3)                  1.0173                                         !
 ! R3    R(1,4)                  1.4581                                         !
 ! R4    R(4,5)                  1.1091                                         !
 ! R5    R(4,6)                  1.5372                                         !
 ! R6    R(4,7)                  1.5409                                         !
 ! R7    R(6,10)                 1.2267                                         !
 ! R8    R(6,17)                 1.3753                                         !
 ! R9    R(7,8)                  1.098                                          !
 ! R10   R(7,9)                  1.0952                                         !
 ! R11   R(7,11)                 1.5341                                         !
 ! R12   R(11,12)                1.0986                                         !
 ! R13   R(11,13)                1.0942                                         !
 ! R14   R(11,14)                1.518                                          !
 ! R15   R(14,15)                1.2116                                         !
 ! R16   R(14,16)                1.3511                                         !
 ! R17   R(16,81)                0.9763                                         !
 ! R18   R(17,18)                1.0095                                         !
 ! R19   R(17,19)                1.4415                                         !
 ! R20   R(19,20)                1.0975                                         !
 ! R21   R(19,21)                1.5006                                         !
 ! R22   R(19,22)                1.5811                                         !
 ! R23   R(21,25)                1.1971                                         !
 ! R24   R(21,41)                1.5269                                         !
 ! R25   R(22,23)                1.0959                                         !
 ! R26   R(22,24)                1.0957                                         !
 ! R27   R(22,26)                1.4971                                         !
 ! R28   R(26,27)                1.383                                          !
 ! R29   R(26,29)                1.4484                                         !
 ! R30   R(27,28)                1.0812                                         !
 ! R31   R(27,33)                1.3744                                         !
 ! R32   R(29,30)                1.4203                                         !
 ! R33   R(29,31)                1.4093                                         !
 ! R34   R(30,33)                1.3849                                         !
 ! R35   R(30,37)                1.3985                                         !
 ! R36   R(31,32)                1.0875                                         !
 ! R37   R(31,39)                1.389                                          !
 ! R38   R(33,34)                1.0094                                         !
 ! R39   R(35,36)                1.0859                                         !
 ! R40   R(35,37)                1.3895                                         !
 ! R41   R(35,39)                1.4104                                         !
 ! R42   R(37,38)                1.0863                                         !
 ! R43   R(39,40)                1.0858                                         !
 ! R44   R(41,42)                1.0535                                         !
 ! R45   R(41,43)                1.4966                                         !
 ! R46   R(43,44)                1.0929                                         !
 ! R47   R(43,45)                1.5394                                         !
 ! R48   R(43,46)                1.5607                                         !
 ! R49   R(45,48)                1.2307                                         !
 ! R50   R(45,55)                1.3451                                         !
 ! R51   R(46,47)                1.0958                                         !
 ! R52   R(46,49)                1.5227                                         !
 ! R53   R(46,53)                1.4295                                         !
 ! R54   R(49,50)                1.0941                                         !
 ! R55   R(49,51)                1.0937                                         !
 ! R56   R(49,52)                1.0983                                         !
 ! R57   R(53,54)                0.9719                                         !
 ! R58   R(53,79)                1.967                                          !
 ! R59   R(55,56)                1.0121                                         !
 ! R60   R(55,57)                1.4658                                         !
 ! R61   R(57,58)                1.0917                                         !
 ! R62   R(57,59)                1.5269                                         !
 ! R63   R(57,60)                1.5504                                         !
 ! R64   R(59,63)                1.2048                                         !
 ! R65   R(59,78)                1.3609                                         !
 ! R66   R(60,61)                1.0993                                         !
 ! R67   R(60,62)                1.097                                          !
 ! R68   R(60,64)                1.5344                                         !
 ! R69   R(64,65)                1.096                                          !
 ! R70   R(64,66)                1.0969                                         !
 ! R71   R(64,67)                1.539                                          !
 ! R72   R(67,68)                1.0939                                         !
 ! R73   R(67,69)                1.0969                                         !
 ! R74   R(67,70)                1.4627                                         !
 ! R75   R(70,71)                1.014                                          !
 ! R76   R(70,77)                1.4031                                         !
 ! R77   R(72,73)                1.0153                                         !
 ! R78   R(72,74)                1.0164                                         !
 ! R79   R(72,77)                1.403                                          !
 ! R80   R(75,76)                1.022                                          !
 ! R81   R(75,77)                1.2807                                         !
 ! R82   R(78,80)                0.9772                                         !
 ! A1    A(2,1,3)              109.0653                                         !
 ! A2    A(2,1,4)              110.4585                                         !
 ! A3    A(3,1,4)              109.5809                                         !
 ! A4    A(1,4,5)              113.8432                                         !
 ! A5    A(1,4,6)              106.228                                          !
 ! A6    A(1,4,7)              110.0049                                         !
 ! A7    A(5,4,6)              103.5994                                         !
 ! A8    A(5,4,7)              106.8387                                         !
 ! A9    A(6,4,7)              116.401                                          !
 ! A10   A(4,6,10)             121.1699                                         !
 ! A11   A(4,6,17)             118.265                                          !
 ! A12   A(10,6,17)            120.4853                                         !
 ! A13   A(4,7,8)              110.3245                                         !
 ! A14   A(4,7,9)              107.7401                                         !
 ! A15   A(4,7,11)             114.2027                                         !
 ! A16   A(8,7,9)              105.294                                          !
 ! A17   A(8,7,11)             110.9841                                         !
 ! A18   A(9,7,11)             107.82                                           !
 ! A19   A(7,11,12)            109.8505                                         !
 ! A20   A(7,11,13)            112.6351                                         !
 ! A21   A(7,11,14)            112.1656                                         !
 ! A22   A(12,11,13)           106.7543                                         !
 ! A23   A(12,11,14)           106.2633                                         !
 ! A24   A(13,11,14)           108.8368                                         !
 ! A25   A(11,14,15)           125.3861                                         !
 ! A26   A(11,14,16)           111.5022                                         !
 ! A27   A(15,14,16)           123.0161                                         !
 ! A28   A(14,16,81)           106.3299                                         !
 ! A29   A(6,17,18)            121.206                                          !
 ! A30   A(6,17,19)            119.0774                                         !
 ! A31   A(18,17,19)           119.3068                                         !
 ! A32   A(17,19,20)           106.6294                                         !
 ! A33   A(17,19,21)           109.3953                                         !
 ! A34   A(17,19,22)           112.9634                                         !
 ! A35   A(20,19,21)           109.2083                                         !
 ! A36   A(20,19,22)           106.6333                                         !
 ! A37   A(21,19,22)           111.7904                                         !
 ! A38   A(19,21,25)           128.7383                                         !
 ! A39   A(19,21,41)           113.1775                                         !
 ! A40   A(25,21,41)           118.0278                                         !
 ! A41   A(19,22,23)           109.338                                          !
 ! A42   A(19,22,24)           103.2324                                         !
 ! A43   A(19,22,26)           114.9258                                         !
 ! A44   A(23,22,24)           107.0824                                         !
 ! A45   A(23,22,26)           111.457                                          !
 ! A46   A(24,22,26)           110.2402                                         !
 ! A47   A(22,26,27)           127.041                                          !
 ! A48   A(22,26,29)           126.3218                                         !
 ! A49   A(27,26,29)           106.5684                                         !
 ! A50   A(26,27,28)           129.5562                                         !
 ! A51   A(26,27,33)           109.6203                                         !
 ! A52   A(28,27,33)           120.8156                                         !
 ! A53   A(26,29,30)           106.8675                                         !
 ! A54   A(26,29,31)           133.9417                                         !
 ! A55   A(30,29,31)           119.1819                                         !
 ! A56   A(29,30,33)           107.3097                                         !
 ! A57   A(29,30,37)           122.3598                                         !
 ! A58   A(33,30,37)           130.3305                                         !
 ! A59   A(29,31,32)           121.117                                          !
 ! A60   A(29,31,39)           118.4998                                         !
 ! A61   A(32,31,39)           120.3623                                         !
 ! A62   A(27,33,30)           109.6306                                         !
 ! A63   A(27,33,34)           124.8064                                         !
 ! A64   A(30,33,34)           125.3821                                         !
 ! A65   A(36,35,37)           119.2611                                         !
 ! A66   A(36,35,39)           119.3277                                         !
 ! A67   A(37,35,39)           121.4083                                         !
 ! A68   A(30,37,35)           117.2266                                         !
 ! A69   A(30,37,38)           121.5153                                         !
 ! A70   A(35,37,38)           121.2556                                         !
 ! A71   A(31,39,35)           121.3181                                         !
 ! A72   A(31,39,40)           119.4773                                         !
 ! A73   A(35,39,40)           119.2004                                         !
 ! A74   A(21,41,42)           106.9408                                         !
 ! A75   A(21,41,43)           115.431                                          !
 ! A76   A(42,41,43)           109.2385                                         !
 ! A77   A(41,43,44)           107.4015                                         !
 ! A78   A(41,43,45)           106.0189                                         !
 ! A79   A(41,43,46)           106.3828                                         !
 ! A80   A(44,43,45)           112.4125                                         !
 ! A81   A(44,43,46)           110.882                                          !
 ! A82   A(45,43,46)           113.2603                                         !
 ! A83   A(43,45,48)           118.2847                                         !
 ! A84   A(43,45,55)           116.3291                                         !
 ! A85   A(48,45,55)           125.3551                                         !
 ! A86   A(43,46,47)           107.7703                                         !
 ! A87   A(43,46,49)           113.01                                           !
 ! A88   A(43,46,53)           107.7248                                         !
 ! A89   A(47,46,49)           110.1049                                         !
 ! A90   A(47,46,53)           105.2133                                         !
 ! A91   A(49,46,53)           112.6121                                         !
 ! A92   A(46,49,50)           111.7102                                         !
 ! A93   A(46,49,51)           109.4418                                         !
 ! A94   A(46,49,52)           111.0333                                         !
 ! A95   A(50,49,51)           107.9644                                         !
 ! A96   A(50,49,52)           108.1836                                         !
 ! A97   A(51,49,52)           108.4                                            !
 ! A98   A(46,53,54)           109.5113                                         !
 ! A99   A(46,53,79)            87.7556                                         !
 ! A100  A(54,53,79)           121.2584                                         !
 ! A101  A(45,55,56)           119.8026                                         !
 ! A102  A(45,55,57)           122.968                                          !
 ! A103  A(56,55,57)           117.1837                                         !
 ! A104  A(55,57,58)           106.6875                                         !
 ! A105  A(55,57,59)           110.8104                                         !
 ! A106  A(55,57,60)           111.5293                                         !
 ! A107  A(58,57,59)           107.4955                                         !
 ! A108  A(58,57,60)           109.3222                                         !
 ! A109  A(59,57,60)           110.8172                                         !
 ! A110  A(57,59,63)           124.5182                                         !
 ! A111  A(57,59,78)           112.0577                                         !
 ! A112  A(63,59,78)           123.3582                                         !
 ! A113  A(57,60,61)           109.0742                                         !
 ! A114  A(57,60,62)           106.6467                                         !
 ! A115  A(57,60,64)           113.7376                                         !
 ! A116  A(61,60,62)           106.7722                                         !
 ! A117  A(61,60,64)           110.7722                                         !
 ! A118  A(62,60,64)           109.5295                                         !
 ! A119  A(60,64,65)           110.4489                                         !
 ! A120  A(60,64,66)           109.26                                           !
 ! A121  A(60,64,67)           112.0848                                         !
 ! A122  A(65,64,66)           106.8636                                         !
 ! A123  A(65,64,67)           109.5588                                         !
 ! A124  A(66,64,67)           108.4657                                         !
 ! A125  A(64,67,68)           109.6382                                         !
 ! A126  A(64,67,69)           110.3066                                         !
 ! A127  A(64,67,70)           113.9165                                         !
 ! A128  A(68,67,69)           106.7301                                         !
 ! A129  A(68,67,70)           108.5356                                         !
 ! A130  A(69,67,70)           107.4401                                         !
 ! A131  A(67,70,71)           113.1778                                         !
 ! A132  A(67,70,77)           120.9447                                         !
 ! A133  A(71,70,77)           111.6974                                         !
 ! A134  A(73,72,74)           110.651                                          !
 ! A135  A(73,72,77)           108.9868                                         !
 ! A136  A(74,72,77)           113.0699                                         !
 ! A137  A(76,75,77)           111.6275                                         !
 ! A138  A(70,77,72)           113.2029                                         !
 ! A139  A(70,77,75)           127.3698                                         !
 ! A140  A(72,77,75)           119.4255                                         !
 ! A141  A(59,78,80)           106.723                                          !
 ! D1    D(2,1,4,5)            -54.9764                                         !
 ! D2    D(2,1,4,6)           -168.328                                          !
 ! D3    D(2,1,4,7)             64.8878                                         !
 ! D4    D(3,1,4,5)             65.2047                                         !
 ! D5    D(3,1,4,6)            -48.1469                                         !
 ! D6    D(3,1,4,7)           -174.9311                                         !
 ! D7    D(1,4,6,10)            37.3944                                         !
 ! D8    D(1,4,6,17)          -145.8387                                         !
 ! D9    D(5,4,6,10)           -82.8417                                         !
 ! D10   D(5,4,6,17)            93.9252                                         !
 ! D11   D(7,4,6,10)           160.2329                                         !
 ! D12   D(7,4,6,17)           -23.0003                                         !
 ! D13   D(1,4,7,8)            175.8269                                         !
 ! D14   D(1,4,7,9)            -69.7279                                         !
 ! D15   D(1,4,7,11)            50.0119                                         !
 ! D16   D(5,4,7,8)            -60.1415                                         !
 ! D17   D(5,4,7,9)             54.3037                                         !
 ! D18   D(5,4,7,11)           174.0435                                         !
 ! D19   D(6,4,7,8)             54.9785                                         !
 ! D20   D(6,4,7,9)            169.4237                                         !
 ! D21   D(6,4,7,11)           -70.8365                                         !
 ! D22   D(4,6,17,18)            8.469                                          !
 ! D23   D(4,6,17,19)         -178.9302                                         !
 ! D24   D(10,6,17,18)        -174.7412                                         !
 ! D25   D(10,6,17,19)          -2.1403                                         !
 ! D26   D(4,7,11,12)          161.4899                                         !
 ! D27   D(4,7,11,13)           42.6351                                         !
 ! D28   D(4,7,11,14)          -80.568                                          !
 ! D29   D(8,7,11,12)           36.0217                                         !
 ! D30   D(8,7,11,13)          -82.8331                                         !
 ! D31   D(8,7,11,14)          153.9638                                         !
 ! D32   D(9,7,11,12)          -78.8152                                         !
 ! D33   D(9,7,11,13)          162.33                                           !
 ! D34   D(9,7,11,14)           39.127                                          !
 ! D35   D(7,11,14,15)         -26.0931                                         !
 ! D36   D(7,11,14,16)         157.3866                                         !
 ! D37   D(12,11,14,15)         93.9596                                         !
 ! D38   D(12,11,14,16)        -82.5607                                         !
 ! D39   D(13,11,14,15)       -151.4079                                         !
 ! D40   D(13,11,14,16)         32.0718                                         !
 ! D41   D(11,14,16,81)        177.5275                                         !
 ! D42   D(15,14,16,81)          0.9106                                         !
 ! D43   D(6,17,19,20)         -21.7479                                         !
 ! D44   D(6,17,19,21)        -139.7285                                         !
 ! D45   D(6,17,19,22)          95.0602                                         !
 ! D46   D(18,17,19,20)        150.9955                                         !
 ! D47   D(18,17,19,21)         33.0148                                         !
 ! D48   D(18,17,19,22)        -92.1965                                         !
 ! D49   D(17,19,21,25)        -12.5503                                         !
 ! D50   D(17,19,21,41)        170.2715                                         !
 ! D51   D(20,19,21,25)       -128.9059                                         !
 ! D52   D(20,19,21,41)         53.9158                                         !
 ! D53   D(22,19,21,25)        113.3368                                         !
 ! D54   D(22,19,21,41)        -63.8414                                         !
 ! D55   D(17,19,22,23)         69.9035                                         !
 ! D56   D(17,19,22,24)        -43.8199                                         !
 ! D57   D(17,19,22,26)       -163.8977                                         !
 ! D58   D(20,19,22,23)       -173.2907                                         !
 ! D59   D(20,19,22,24)         72.9858                                         !
 ! D60   D(20,19,22,26)        -47.092                                          !
 ! D61   D(21,19,22,23)        -54.0011                                         !
 ! D62   D(21,19,22,24)       -167.7245                                         !
 ! D63   D(21,19,22,26)         72.1977                                         !
 ! D64   D(19,21,41,42)         58.589                                          !
 ! D65   D(19,21,41,43)       -179.6591                                         !
 ! D66   D(25,21,41,42)       -118.9178                                         !
 ! D67   D(25,21,41,43)          2.8342                                         !
 ! D68   D(19,22,26,27)       -121.8044                                         !
 ! D69   D(19,22,26,29)         61.6242                                         !
 ! D70   D(23,22,26,27)          3.2957                                         !
 ! D71   D(23,22,26,29)       -173.2757                                         !
 ! D72   D(24,22,26,27)        122.0673                                         !
 ! D73   D(24,22,26,29)        -54.5041                                         !
 ! D74   D(22,26,27,28)          1.2672                                         !
 ! D75   D(22,26,27,33)       -177.7013                                         !
 ! D76   D(29,26,27,28)        178.3856                                         !
 ! D77   D(29,26,27,33)         -0.5828                                         !
 ! D78   D(22,26,29,30)        177.494                                          !
 ! D79   D(22,26,29,31)         -1.3666                                         !
 ! D80   D(27,26,29,30)          0.3487                                         !
 ! D81   D(27,26,29,31)       -178.5119                                         !
 ! D82   D(26,27,33,30)          0.6067                                         !
 ! D83   D(26,27,33,34)        175.9333                                         !
 ! D84   D(28,27,33,30)       -178.4673                                         !
 ! D85   D(28,27,33,34)         -3.1407                                         !
 ! D86   D(26,29,30,33)          0.007                                          !
 ! D87   D(26,29,30,37)       -179.889                                          !
 ! D88   D(31,29,30,33)        179.0674                                         !
 ! D89   D(31,29,30,37)         -0.8286                                         !
 ! D90   D(26,29,31,32)          1.2042                                         !
 ! D91   D(26,29,31,39)        179.5482                                         !
 ! D92   D(30,29,31,32)       -177.5469                                         !
 ! D93   D(30,29,31,39)          0.7971                                         !
 ! D94   D(29,30,33,27)         -0.3687                                         !
 ! D95   D(29,30,33,34)       -175.6622                                         !
 ! D96   D(37,30,33,27)        179.516                                          !
 ! D97   D(37,30,33,34)          4.2226                                         !
 ! D98   D(29,30,37,35)          0.2874                                         !
 ! D99   D(29,30,37,38)        179.7186                                         !
 ! D100  D(33,30,37,35)       -179.5824                                         !
 ! D101  D(33,30,37,38)         -0.1511                                         !
 ! D102  D(29,31,39,35)         -0.2723                                         !
 ! D103  D(29,31,39,40)       -179.5166                                         !
 ! D104  D(32,31,39,35)        178.0847                                         !
 ! D105  D(32,31,39,40)         -1.1597                                         !
 ! D106  D(36,35,37,30)        179.6454                                         !
 ! D107  D(36,35,37,38)          0.2126                                         !
 ! D108  D(39,35,37,30)          0.2642                                         !
 ! D109  D(39,35,37,38)       -179.1686                                         !
 ! D110  D(36,35,39,31)       -179.6552                                         !
 ! D111  D(36,35,39,40)         -0.4088                                         !
 ! D112  D(37,35,39,31)         -0.2743                                         !
 ! D113  D(37,35,39,40)        178.9721                                         !
 ! D114  D(21,41,43,44)         37.071                                          !
 ! D115  D(21,41,43,45)        -83.3055                                         !
 ! D116  D(21,41,43,46)        155.8537                                         !
 ! D117  D(42,41,43,44)        157.5801                                         !
 ! D118  D(42,41,43,45)         37.2035                                         !
 ! D119  D(42,41,43,46)        -83.6373                                         !
 ! D120  D(41,43,45,48)        -26.8401                                         !
 ! D121  D(41,43,45,55)        155.0771                                         !
 ! D122  D(44,43,45,48)       -143.9037                                         !
 ! D123  D(44,43,45,55)         38.0135                                         !
 ! D124  D(46,43,45,48)         89.4438                                         !
 ! D125  D(46,43,45,55)        -88.639                                          !
 ! D126  D(41,43,46,47)         72.0329                                         !
 ! D127  D(41,43,46,49)       -166.0784                                         !
 ! D128  D(41,43,46,53)        -41.0293                                         !
 ! D129  D(44,43,46,47)       -171.4929                                         !
 ! D130  D(44,43,46,49)        -49.6042                                         !
 ! D131  D(44,43,46,53)         75.445                                          !
 ! D132  D(45,43,46,47)        -44.0359                                         !
 ! D133  D(45,43,46,49)         77.8529                                         !
 ! D134  D(45,43,46,53)       -157.098                                          !
 ! D135  D(43,45,55,56)         -2.8617                                         !
 ! D136  D(43,45,55,57)        174.6086                                         !
 ! D137  D(48,45,55,56)        179.2085                                         !
 ! D138  D(48,45,55,57)         -3.3213                                         !
 ! D139  D(43,46,49,50)        -60.8518                                         !
 ! D140  D(43,46,49,51)        179.6376                                         !
 ! D141  D(43,46,49,52)         60.01                                           !
 ! D142  D(47,46,49,50)         59.7156                                         !
 ! D143  D(47,46,49,51)        -59.795                                          !
 ! D144  D(47,46,49,52)       -179.4226                                         !
 ! D145  D(53,46,49,50)        176.7916                                         !
 ! D146  D(53,46,49,51)         57.2809                                         !
 ! D147  D(53,46,49,52)        -62.3466                                         !
 ! D148  D(43,46,53,54)        -95.2622                                         !
 ! D149  D(43,46,53,79)         27.2206                                         !
 ! D150  D(47,46,53,54)        149.9685                                         !
 ! D151  D(47,46,53,79)        -87.5487                                         !
 ! D152  D(49,46,53,54)         30.0245                                         !
 ! D153  D(49,46,53,79)        152.5073                                         !
 ! D154  D(45,55,57,58)         -7.3217                                         !
 ! D155  D(45,55,57,59)       -124.0454                                         !
 ! D156  D(45,55,57,60)        111.9925                                         !
 ! D157  D(56,55,57,58)        170.2106                                         !
 ! D158  D(56,55,57,59)         53.4869                                         !
 ! D159  D(56,55,57,60)        -70.4752                                         !
 ! D160  D(55,57,59,63)        156.2674                                         !
 ! D161  D(55,57,59,78)        -26.6075                                         !
 ! D162  D(58,57,59,63)         40.0424                                         !
 ! D163  D(58,57,59,78)       -142.8324                                         !
 ! D164  D(60,57,59,63)        -79.3642                                         !
 ! D165  D(60,57,59,78)         97.761                                          !
 ! D166  D(55,57,60,61)         68.6861                                         !
 ! D167  D(55,57,60,62)        -46.2796                                         !
 ! D168  D(55,57,60,64)       -167.12                                           !
 ! D169  D(58,57,60,61)       -173.5753                                         !
 ! D170  D(58,57,60,62)         71.459                                          !
 ! D171  D(58,57,60,64)        -49.3814                                         !
 ! D172  D(59,57,60,61)        -55.2721                                         !
 ! D173  D(59,57,60,62)       -170.2378                                         !
 ! D174  D(59,57,60,64)         68.9217                                         !
 ! D175  D(57,59,78,80)       -176.1557                                         !
 ! D176  D(63,59,78,80)          1.0083                                         !
 ! D177  D(57,60,64,65)        -57.2095                                         !
 ! D178  D(57,60,64,66)         60.0644                                         !
 ! D179  D(57,60,64,67)       -179.6803                                         !
 ! D180  D(61,60,64,65)         66.0626                                         !
 ! D181  D(61,60,64,66)       -176.6635                                         !
 ! D182  D(61,60,64,67)        -56.4082                                         !
 ! D183  D(62,60,64,65)       -176.4205                                         !
 ! D184  D(62,60,64,66)        -59.1467                                         !
 ! D185  D(62,60,64,67)         61.1086                                         !
 ! D186  D(60,64,67,68)        -53.9802                                         !
 ! D187  D(60,64,67,69)         63.2741                                         !
 ! D188  D(60,64,67,70)       -175.8156                                         !
 ! D189  D(65,64,67,68)       -176.9554                                         !
 ! D190  D(65,64,67,69)        -59.701                                          !
 ! D191  D(65,64,67,70)         61.2093                                         !
 ! D192  D(66,64,67,68)         66.7361                                         !
 ! D193  D(66,64,67,69)       -176.0096                                         !
 ! D194  D(66,64,67,70)        -55.0993                                         !
 ! D195  D(64,67,70,71)        -69.4667                                         !
 ! D196  D(64,67,70,77)         67.052                                          !
 ! D197  D(68,67,70,71)        168.0907                                         !
 ! D198  D(68,67,70,77)        -55.3907                                         !
 ! D199  D(69,67,70,71)         53.0303                                         !
 ! D200  D(69,67,70,77)       -170.4511                                         !
 ! D201  D(67,70,77,72)         40.5656                                         !
 ! D202  D(67,70,77,75)       -139.9308                                         !
 ! D203  D(71,70,77,72)        177.6583                                         !
 ! D204  D(71,70,77,75)         -2.8381                                         !
 ! D205  D(73,72,77,70)        172.3421                                         !
 ! D206  D(73,72,77,75)         -7.2049                                         !
 ! D207  D(74,72,77,70)         48.8425                                         !
 ! D208  D(74,72,77,75)       -130.7046                                         !
 ! D209  D(76,75,77,70)          8.8287                                         !
 ! D210  D(76,75,77,72)       -171.6951                                         !
 --------------------------------------------------------------------------------
 Symmetry turned off by external request.
 Stoichiometry    C26H39N8O8(1+)
 Framework group  C1[X(C26H39N8O8)]
 Deg. of freedom   237
 Full point group                 C1      NOp   1
                          Input orientation:                          
 ---------------------------------------------------------------------
 Center     Atomic      Atomic             Coordinates (Angstroms)
 Number     Number       Type             X           Y           Z
 ---------------------------------------------------------------------
      1          7           0       -5.914392    1.230300    2.990577
      2          1           0       -6.704803    1.765455    3.341500
      3          1           0       -6.200421    0.263058    2.858371
      4          6           0       -5.449360    1.780034    1.722648
      5          1           0       -6.241117    1.856278    0.949730
      6          6           0       -4.472586    0.746562    1.138782
      7          6           0       -4.895537    3.201996    1.936090
      8          1           0       -4.476158    3.592495    0.999511
      9          1           0       -5.740981    3.857827    2.169624
     10          8           0       -4.675097   -0.457333    1.259274
     11          6           0       -3.881892    3.316731    3.081854
     12          1           0       -3.296094    4.239492    2.970699
     13          1           0       -3.166619    2.488787    3.095812
     14          6           0       -4.558020    3.403206    4.438160
     15          8           0       -5.675871    3.825168    4.639271
     16          8           0       -3.727447    3.016444    5.431100
     17          7           0       -3.395607    1.204024    0.416069
     18          1           0       -3.173321    2.187910    0.374733
     19          6           0       -2.481447    0.249353   -0.159069
     20          1           0       -2.598662   -0.680864    0.411477
     21          6           0       -1.075319    0.749870   -0.003854
     22          6           0       -2.818149   -0.097555   -1.664446
     23          1           0       -2.599490    0.771808   -2.294848
     24          1           0       -3.906569   -0.223030   -1.655502
     25          8           0       -0.699391    1.841213    0.313353
     26          6           0       -2.158484   -1.334607   -2.189588
     27          6           0       -1.312842   -1.429058   -3.279889
     28          1           0       -0.952839   -0.653189   -3.941322
     29          6           0       -2.340278   -2.681934   -1.689938
     30          6           0       -1.569168   -3.537298   -2.521212
     31          6           0       -3.093054   -3.241666   -0.638249
     32          1           0       -3.725332   -2.621152   -0.007466
     33          7           0       -0.954276   -2.741705   -3.473504
     34          1           0       -0.390606   -3.077893   -4.240355
     35          6           0       -2.256978   -5.444269   -1.274123
     36          1           0       -2.242708   -6.515263   -1.095622
     37          6           0       -1.513973   -4.920946   -2.325232
     38          1           0       -0.923100   -5.562962   -2.972282
     39          6           0       -3.038929   -4.615726   -0.442728
     40          1           0       -3.618822   -5.064732    0.357961
     41          7           0       -0.022182   -0.294056   -0.368042
     42          1           0       -0.199015   -0.572394   -1.368644
     43          6           0        1.399744    0.149984   -0.223620
     44          1           0        1.454043    0.790224    0.660482
     45          6           0        1.741742    0.907970   -1.519101
     46          6           0        2.247423   -1.145316   -0.025352
     47          1           0        2.283568   -1.671649   -0.985838
     48          8           0        1.128421    0.615372   -2.545197
     49          6           0        3.659299   -0.862679    0.470091
     50          1           0        4.220519   -0.245279   -0.237586
     51          1           0        4.197256   -1.806795    0.594549
     52          1           0        3.640952   -0.343921    1.437996
     53          8           0        1.520885   -2.011188    0.849772
     54          1           0        1.830363   -1.884470    1.762304
     55          7           0        2.728141    1.818560   -1.434826
     56          1           0        3.168524    2.001927   -0.542244
     57          6           0        3.249685    2.539654   -2.599569
     58          1           0        2.784340    2.091802   -3.479715
     59          6           0        4.758426    2.343500   -2.728106
     60          6           0        2.893010    4.047374   -2.541881
     61          1           0        3.454712    4.518328   -1.722614
     62          1           0        1.831003    4.109047   -2.273979
     63          8           0        5.376323    2.455619   -3.756287
     64          6           0        3.132655    4.789764   -3.863130
     65          1           0        4.177144    4.683882   -4.177851
     66          1           0        2.515978    4.337312   -4.649389
     67          6           0        2.774123    6.282968   -3.761125
     68          1           0        1.748962    6.390721   -3.395087
     69          1           0        3.423949    6.781504   -3.031514
     70          7           0        2.895464    7.009625   -5.024787
     71          1           0        3.855740    7.119834   -5.331160
     72          7           0        0.706357    6.525943   -5.704782
     73          1           0        0.122209    6.460836   -6.532690
     74          1           0        0.358977    7.245529   -5.076678
     75          7           0        2.340795    6.674064   -7.342170
     76          1           0        3.352308    6.708886   -7.484177
     77          6           0        2.036137    6.736121   -6.099751
     78          8           0        5.344431    2.085694   -1.527193
     79          1           0       -0.127472   -1.154771    0.202821
     80          1           0        6.306893    2.036156   -1.688832
     81          1           0       -4.220595    3.138826    6.264798
 ---------------------------------------------------------------------
 Rotational constants (GHZ):           0.0724498           0.0412775           0.0328558
 Standard basis: 6-31G(d) (6D, 7F)
   708 basis functions,  1332 primitive gaussians,   708 cartesian basis functions
   157 alpha electrons      157 beta electrons
       nuclear repulsion energy      5046.1340266833 Hartrees.
 NAtoms=   81 NActive=   81 NUniq=   81 SFac= 1.00D+00 NAtFMM=   60 NAOKFM=T Big=T
 Integral buffers will be    131072 words long.
 Raffenetti 2 integral format.
 Two-electron integral symmetry is turned off.
 One-electron integrals computed using PRISM.
 NBasis=   708 RedAO= T EigKep=  3.66D-04  NBF=   708
 NBsUse=   708 1.00D-06 EigRej= -1.00D+00 NBFU=   708
 Initial guess from the checkpoint file:  "conf-747.chk"
 B after Tr=     0.000000    0.000000    0.000000
         Rot=    1.000000    0.000000    0.000000    0.000000 Ang=   0.00 deg.
 Requested convergence on RMS density matrix=1.00D-08 within 128 cycles.
 Requested convergence on MAX density matrix=1.00D-06.
 Requested convergence on             energy=1.00D-06.
 No special actions if energy rises.
 SCF Done:  E(RB3LYP) =  -2053.88201743     A.U. after    1 cycles
            NFock=  1  Conv=0.95D-08     -V/T= 2.0093

 **********************************************************************

            Population analysis using the SCF Density.

 **********************************************************************

 Alpha  occ. eigenvalues --  -19.32672 -19.31256 -19.30518 -19.26251 -19.25943
 Alpha  occ. eigenvalues --  -19.25072 -19.22047 -19.20101 -14.58554 -14.50532
 Alpha  occ. eigenvalues --  -14.48318 -14.47570 -14.41127 -14.39660 -14.38762
 Alpha  occ. eigenvalues --  -14.34076 -10.47872 -10.43806 -10.43306 -10.39904
 Alpha  occ. eigenvalues --  -10.39838 -10.39043 -10.38646 -10.37644 -10.35808
 Alpha  occ. eigenvalues --  -10.33478 -10.32910 -10.32134 -10.31915 -10.31676
 Alpha  occ. eigenvalues --  -10.31329 -10.29951 -10.29664 -10.29560 -10.28382
 Alpha  occ. eigenvalues --  -10.27987 -10.27798 -10.27724 -10.27594 -10.27361
 Alpha  occ. eigenvalues --  -10.26969 -10.26887  -1.24256  -1.21789  -1.18826
 Alpha  occ. eigenvalues --   -1.17733  -1.16803  -1.14258  -1.12893  -1.12454
 Alpha  occ. eigenvalues --   -1.08236  -1.07762  -1.06848  -1.04341  -1.03171
 Alpha  occ. eigenvalues --   -0.96798  -0.94722  -0.94350  -0.93231  -0.91862
 Alpha  occ. eigenvalues --   -0.90532  -0.89636  -0.88269  -0.86687  -0.85553
 Alpha  occ. eigenvalues --   -0.83471  -0.82846  -0.82259  -0.79728  -0.78976
 Alpha  occ. eigenvalues --   -0.77941  -0.76407  -0.74631  -0.73986  -0.73090
 Alpha  occ. eigenvalues --   -0.72418  -0.71870  -0.71676  -0.70364  -0.69016
 Alpha  occ. eigenvalues --   -0.68803  -0.67766  -0.66253  -0.65917  -0.65651
 Alpha  occ. eigenvalues --   -0.64917  -0.64223  -0.63496  -0.62966  -0.62449
 Alpha  occ. eigenvalues --   -0.60147  -0.60016  -0.59404  -0.59194  -0.59134
 Alpha  occ. eigenvalues --   -0.58742  -0.58540  -0.58090  -0.57743  -0.57418
 Alpha  occ. eigenvalues --   -0.57039  -0.56742  -0.56468  -0.56115  -0.54859
 Alpha  occ. eigenvalues --   -0.54366  -0.54192  -0.53937  -0.53711  -0.53437
 Alpha  occ. eigenvalues --   -0.53189  -0.53081  -0.52275  -0.51968  -0.51922
 Alpha  occ. eigenvalues --   -0.51532  -0.51377  -0.51260  -0.51044  -0.50555
 Alpha  occ. eigenvalues --   -0.50423  -0.49887  -0.49456  -0.49143  -0.48330
 Alpha  occ. eigenvalues --   -0.48120  -0.48003  -0.47797  -0.47149  -0.46942
 Alpha  occ. eigenvalues --   -0.46712  -0.44753  -0.44546  -0.44406  -0.44312
 Alpha  occ. eigenvalues --   -0.43759  -0.43631  -0.43459  -0.42835  -0.42767
 Alpha  occ. eigenvalues --   -0.42706  -0.42573  -0.42381  -0.40644  -0.40305
 Alpha  occ. eigenvalues --   -0.38073  -0.37730  -0.37356  -0.36666  -0.35818
 Alpha  occ. eigenvalues --   -0.34015  -0.32277  -0.31921  -0.31330  -0.31229
 Alpha  occ. eigenvalues --   -0.30491  -0.28432
 Alpha virt. eigenvalues --   -0.18248  -0.12678  -0.10922  -0.10334  -0.08135
 Alpha virt. eigenvalues --   -0.07369  -0.06987  -0.05743  -0.05125  -0.04455
 Alpha virt. eigenvalues --   -0.03597  -0.03195  -0.03097  -0.02350  -0.01511
 Alpha virt. eigenvalues --   -0.01013  -0.00814   0.00204   0.00351   0.00740
 Alpha virt. eigenvalues --    0.01114   0.01599   0.01900   0.01984   0.02310
 Alpha virt. eigenvalues --    0.02727   0.02994   0.03369   0.03487   0.03668
 Alpha virt. eigenvalues --    0.04568   0.04809   0.05409   0.05593   0.05874
 Alpha virt. eigenvalues --    0.05973   0.06546   0.06560   0.07008   0.07273
 Alpha virt. eigenvalues --    0.07449   0.07758   0.07937   0.08119   0.08291
 Alpha virt. eigenvalues --    0.08473   0.08974   0.09207   0.09836   0.10433
 Alpha virt. eigenvalues --    0.10677   0.10935   0.10986   0.11487   0.12002
 Alpha virt. eigenvalues --    0.12413   0.12525   0.12661   0.13487   0.13563
 Alpha virt. eigenvalues --    0.14140   0.14841   0.14985   0.15289   0.15415
 Alpha virt. eigenvalues --    0.16270   0.17109   0.17632   0.18047   0.18421
 Alpha virt. eigenvalues --    0.19084   0.19225   0.20587   0.21419   0.21648
 Alpha virt. eigenvalues --    0.22057   0.22524   0.23164   0.24022   0.24977
 Alpha virt. eigenvalues --    0.26096   0.26729   0.26956   0.28088   0.28977
 Alpha virt. eigenvalues --    0.29641   0.30344   0.32552   0.33429   0.35363
 Alpha virt. eigenvalues --    0.36492   0.37741   0.38124   0.38746   0.39511
 Alpha virt. eigenvalues --    0.40656   0.41182   0.41713   0.42034   0.42702
 Alpha virt. eigenvalues --    0.42965   0.43084   0.43868   0.44410   0.44811
 Alpha virt. eigenvalues --    0.45453   0.45737   0.45855   0.46384   0.46411
 Alpha virt. eigenvalues --    0.46571   0.46845   0.47267   0.48120   0.48507
 Alpha virt. eigenvalues --    0.48956   0.49060   0.49357   0.49827   0.50453
 Alpha virt. eigenvalues --    0.50723   0.50926   0.51536   0.51769   0.52081
 Alpha virt. eigenvalues --    0.52685   0.52842   0.53078   0.53450   0.53701
 Alpha virt. eigenvalues --    0.53897   0.53999   0.54434   0.55118   0.55387
 Alpha virt. eigenvalues --    0.55567   0.56051   0.56539   0.56802   0.57133
 Alpha virt. eigenvalues --    0.57737   0.58030   0.59159   0.59259   0.60392
 Alpha virt. eigenvalues --    0.60793   0.61185   0.61512   0.62041   0.62358
 Alpha virt. eigenvalues --    0.62551   0.62836   0.63651   0.64694   0.65056
 Alpha virt. eigenvalues --    0.65105   0.65785   0.65966   0.66045   0.67050
 Alpha virt. eigenvalues --    0.67228   0.67786   0.68252   0.68668   0.68872
 Alpha virt. eigenvalues --    0.69319   0.69656   0.69968   0.70771   0.71016
 Alpha virt. eigenvalues --    0.71457   0.71937   0.72518   0.72874   0.73449
 Alpha virt. eigenvalues --    0.73568   0.73804   0.74328   0.74574   0.74998
 Alpha virt. eigenvalues --    0.75104   0.75477   0.75960   0.76237   0.76617
 Alpha virt. eigenvalues --    0.76624   0.76823   0.77311   0.77489   0.78000
 Alpha virt. eigenvalues --    0.78346   0.78829   0.79030   0.79553   0.79659
 Alpha virt. eigenvalues --    0.80206   0.80411   0.81083   0.81399   0.81671
 Alpha virt. eigenvalues --    0.82061   0.82354   0.82845   0.82907   0.83204
 Alpha virt. eigenvalues --    0.83594   0.84355   0.84526   0.84633   0.84876
 Alpha virt. eigenvalues --    0.85180   0.85417   0.85707   0.85858   0.86549
 Alpha virt. eigenvalues --    0.86724   0.87422   0.87825   0.88266   0.88601
 Alpha virt. eigenvalues --    0.88935   0.89348   0.89834   0.89977   0.90155
 Alpha virt. eigenvalues --    0.90260   0.90975   0.91136   0.91734   0.92697
 Alpha virt. eigenvalues --    0.93480   0.93788   0.94617   0.94839   0.95174
 Alpha virt. eigenvalues --    0.95997   0.96878   0.97415   0.98111   0.99515
 Alpha virt. eigenvalues --    0.99928   1.00439   1.00954   1.01229   1.01714
 Alpha virt. eigenvalues --    1.02012   1.02801   1.04000   1.04619   1.05618
 Alpha virt. eigenvalues --    1.06003   1.07507   1.07901   1.08660   1.09225
 Alpha virt. eigenvalues --    1.10191   1.10502   1.11385   1.11741   1.13144
 Alpha virt. eigenvalues --    1.14554   1.14936   1.16928   1.17380   1.18793
 Alpha virt. eigenvalues --    1.20125   1.20576   1.21257   1.22396   1.23111
 Alpha virt. eigenvalues --    1.23930   1.23958   1.25290   1.25950   1.26828
 Alpha virt. eigenvalues --    1.27143   1.28179   1.28546   1.29064   1.29337
 Alpha virt. eigenvalues --    1.30202   1.30517   1.31406   1.31914   1.33467
 Alpha virt. eigenvalues --    1.34498   1.34955   1.35535   1.35650   1.36142
 Alpha virt. eigenvalues --    1.36329   1.37449   1.38448   1.39324   1.40373
 Alpha virt. eigenvalues --    1.40442   1.40593   1.40689   1.41639   1.42083
 Alpha virt. eigenvalues --    1.42253   1.44662   1.46014   1.46241   1.48121
 Alpha virt. eigenvalues --    1.48609   1.48704   1.49188   1.50246   1.51240
 Alpha virt. eigenvalues --    1.52381   1.52914   1.53863   1.55735   1.56146
 Alpha virt. eigenvalues --    1.56558   1.57888   1.58550   1.59815   1.60839
 Alpha virt. eigenvalues --    1.61765   1.61962   1.62246   1.62887   1.63665
 Alpha virt. eigenvalues --    1.65168   1.65484   1.65812   1.66151   1.66455
 Alpha virt. eigenvalues --    1.66761   1.67383   1.68403   1.68785   1.69165
 Alpha virt. eigenvalues --    1.69877   1.69933   1.70547   1.71407   1.71778
 Alpha virt. eigenvalues --    1.72086   1.72369   1.72497   1.72820   1.73080
 Alpha virt. eigenvalues --    1.73603   1.74067   1.75054   1.75281   1.75370
 Alpha virt. eigenvalues --    1.76623   1.76848   1.77145   1.77405   1.77910
 Alpha virt. eigenvalues --    1.78626   1.78881   1.79128   1.79598   1.80544
 Alpha virt. eigenvalues --    1.80809   1.80949   1.82349   1.83262   1.83710
 Alpha virt. eigenvalues --    1.84202   1.84311   1.84773   1.85237   1.86151
 Alpha virt. eigenvalues --    1.86868   1.87540   1.88404   1.88886   1.89371
 Alpha virt. eigenvalues --    1.89689   1.90433   1.90817   1.91315   1.91599
 Alpha virt. eigenvalues --    1.92899   1.93053   1.93928   1.94122   1.94738
 Alpha virt. eigenvalues --    1.95366   1.96618   1.96816   1.97000   1.97363
 Alpha virt. eigenvalues --    1.97876   1.99494   2.00845   2.01052   2.01953
 Alpha virt. eigenvalues --    2.02534   2.02611   2.04335   2.04558   2.05575
 Alpha virt. eigenvalues --    2.05728   2.05978   2.06565   2.06941   2.08014
 Alpha virt. eigenvalues --    2.08411   2.08819   2.09818   2.11522   2.13915
 Alpha virt. eigenvalues --    2.14782   2.15422   2.16134   2.16472   2.16799
 Alpha virt. eigenvalues --    2.18607   2.18981   2.19477   2.21635   2.22367
 Alpha virt. eigenvalues --    2.22761   2.23783   2.24271   2.25950   2.26279
 Alpha virt. eigenvalues --    2.26535   2.26787   2.27879   2.28255   2.29080
 Alpha virt. eigenvalues --    2.29251   2.29961   2.30254   2.30970   2.31506
 Alpha virt. eigenvalues --    2.31698   2.32700   2.33054   2.34995   2.35672
 Alpha virt. eigenvalues --    2.37559   2.38108   2.38418   2.38822   2.39914
 Alpha virt. eigenvalues --    2.40428   2.42068   2.42559   2.43230   2.43360
 Alpha virt. eigenvalues --    2.44208   2.45130   2.45703   2.46328   2.47200
 Alpha virt. eigenvalues --    2.47910   2.50162   2.51068   2.51783   2.52335
 Alpha virt. eigenvalues --    2.53060   2.53914   2.54467   2.55538   2.56276
 Alpha virt. eigenvalues --    2.56601   2.57308   2.57603   2.57901   2.58953
 Alpha virt. eigenvalues --    2.59255   2.59875   2.60198   2.61038   2.62411
 Alpha virt. eigenvalues --    2.63819   2.64430   2.66016   2.67666   2.68319
 Alpha virt. eigenvalues --    2.69269   2.70029   2.71135   2.72727   2.73925
 Alpha virt. eigenvalues --    2.75041   2.75631   2.76159   2.77354   2.79931
 Alpha virt. eigenvalues --    2.81212   2.82500   2.83466   2.86869   2.87239
 Alpha virt. eigenvalues --    2.89997   2.90893   2.91698   2.91843   2.92632
 Alpha virt. eigenvalues --    2.95803   2.95927   2.98894   3.02497   3.03041
 Alpha virt. eigenvalues --    3.04138   3.06744   3.14920   3.34866   3.70174
 Alpha virt. eigenvalues --    3.72559   3.75251   3.77471   3.81153   3.82475
 Alpha virt. eigenvalues --    3.85569   3.89780   3.91454   3.93046   3.94528
 Alpha virt. eigenvalues --    3.97785   4.00640   4.02833   4.04010   4.05349
 Alpha virt. eigenvalues --    4.06494   4.09578   4.09823   4.11113   4.12406
 Alpha virt. eigenvalues --    4.16077   4.16238   4.16763   4.18474   4.21515
 Alpha virt. eigenvalues --    4.23522   4.25670   4.30088   4.30642   4.31791
 Alpha virt. eigenvalues --    4.32735   4.37663   4.38892   4.44861   4.46792
 Alpha virt. eigenvalues --    4.49222   4.49632   4.50512   4.57965   4.63333
 Alpha virt. eigenvalues --    4.70443
          Condensed to atoms (all electrons):
 Mulliken charges:
               1
     1  N   -0.735176
     2  H    0.327855
     3  H    0.330722
     4  C   -0.055622
     5  H    0.159658
     6  C    0.633694
     7  C   -0.315374
     8  H    0.127347
     9  H    0.195012
    10  O   -0.513074
    11  C   -0.339730
    12  H    0.180286
    13  H    0.163355
    14  C    0.621765
    15  O   -0.472850
    16  O   -0.568637
    17  N   -0.626668
    18  H    0.353999
    19  C   -0.058374
    20  H    0.224605
    21  C    0.581305
    22  C   -0.356653
    23  H    0.171932
    24  H    0.217401
    25  O   -0.387123
    26  C   -0.033148
    27  C    0.006095
    28  H    0.192863
    29  C    0.077862
    30  C    0.307176
    31  C   -0.235814
    32  H    0.179045
    33  N   -0.677504
    34  H    0.347847
    35  C   -0.144526
    36  H    0.152766
    37  C   -0.158297
    38  H    0.147225
    39  C   -0.141062
    40  H    0.151255
    41  N   -0.726436
    42  H    0.428755
    43  C   -0.104870
    44  H    0.201825
    45  C    0.650852
    46  C    0.126156
    47  H    0.188925
    48  O   -0.526536
    49  C   -0.509880
    50  H    0.190259
    51  H    0.207076
    52  H    0.161639
    53  O   -0.623963
    54  H    0.422609
    55  N   -0.599737
    56  H    0.358026
    57  C   -0.071801
    58  H    0.223609
    59  C    0.600217
    60  C   -0.279978
    61  H    0.150637
    62  H    0.165324
    63  O   -0.423729
    64  C   -0.277921
    65  H    0.165339
    66  H    0.174288
    67  C   -0.139384
    68  H    0.154157
    69  H    0.150478
    70  N   -0.580121
    71  H    0.315117
    72  N   -0.744068
    73  H    0.340695
    74  H    0.323020
    75  N   -0.619932
    76  H    0.269125
    77  C    0.541957
    78  O   -0.587386
    79  H    0.424990
    80  H    0.432295
    81  H    0.416936
 Sum of Mulliken charges =   1.00000
 Mulliken charges with hydrogens summed into heavy atoms:
               1
     1  N   -0.076599
     4  C    0.104036
     6  C    0.633694
     7  C    0.006985
    10  O   -0.513074
    11  C    0.003910
    14  C    0.621765
    15  O   -0.472850
    16  O   -0.151700
    17  N   -0.272669
    19  C    0.166231
    21  C    0.581305
    22  C    0.032679
    25  O   -0.387123
    26  C   -0.033148
    27  C    0.198959
    29  C    0.077862
    30  C    0.307176
    31  C   -0.056770
    33  N   -0.329657
    35  C    0.008240
    37  C   -0.011072
    39  C    0.010193
    41  N    0.127309
    43  C    0.096954
    45  C    0.650852
    46  C    0.315081
    48  O   -0.526536
    49  C    0.049094
    53  O   -0.201354
    55  N   -0.241712
    57  C    0.151807
    59  C    0.600217
    60  C    0.035983
    63  O   -0.423729
    64  C    0.061706
    67  C    0.165251
    70  N   -0.265004
    72  N   -0.080352
    75  N   -0.350807
    77  C    0.541957
    78  O   -0.155090
 Electronic spatial extent (au):  <R**2>=          36520.3606
 Charge=              1.0000 electrons
 Dipole moment (field-independent basis, Debye):
    X=              5.2716    Y=              1.4710    Z=             -0.4277  Tot=              5.4897
 Quadrupole moment (field-independent basis, Debye-Ang):
   XX=           -186.6504   YY=           -200.6735   ZZ=           -247.0859
   XY=              7.5651   XZ=              5.3736   YZ=             14.7045
 Traceless Quadrupole moment (field-independent basis, Debye-Ang):
   XX=             24.8196   YY=             10.7964   ZZ=            -35.6160
   XY=              7.5651   XZ=              5.3736   YZ=             14.7045
 Octapole moment (field-independent basis, Debye-Ang**2):
  XXX=            519.6841  YYY=           -806.8310  ZZZ=           1039.2636  XYY=            182.8199
  XXY=           -151.5527  XXZ=            212.7055  XZZ=             53.4478  YZZ=           -462.2381
  YYZ=            212.4316  XYZ=              8.8166
 Hexadecapole moment (field-independent basis, Debye-Ang**3):
 XXXX=         -14175.4045 YYYY=         -15991.6383 ZZZZ=         -14774.3386 XXXY=          -1121.1351
 XXXZ=           3723.5465 YYYX=          -1167.0180 YYYZ=           2567.7109 ZZZX=           4189.1725
 ZZZY=           4396.9798 XXYY=          -5033.1464 XXZZ=          -4856.0600 YYZZ=          -5753.3741
 XXYZ=            126.8918 YYXZ=           1298.9921 ZZXY=           -800.7715
 N-N= 5.046134026683D+03 E-N=-1.484828820380D+04  KE= 2.034967053877D+03
 Unable to Open any file for archive entry.
 1\1\GINC-SKL-160\SP\RB3LYP\6-31G(d)\C26H39N8O8(1+)\KENGMITH\26-May-202
 2\0\\# B3LYP/6-31G* guess=read geom=check nosymm integral(ultrafinegri
 d)\\Candidate Structure: Conf:747 Charge calc in gas phase\\1,1\N,0,-5
 .9143917267,1.2303000715,2.9905772247\H,0,-6.7048034038,1.7654553463,3
 .3414996766\H,0,-6.200421209,0.2630584091,2.8583713711\C,0,-5.44935985
 98,1.7800343403,1.7226482748\H,0,-6.241117154,1.8562776745,0.949729993
 2\C,0,-4.4725857226,0.7465617777,1.1387815308\C,0,-4.8955374872,3.2019
 956607,1.9360899862\H,0,-4.4761582382,3.5924950106,0.9995114571\H,0,-5
 .7409805997,3.8578271992,2.1696238832\O,0,-4.6750969719,-0.4573331563,
 1.2592741282\C,0,-3.8818923615,3.3167306001,3.0818540851\H,0,-3.296094
 0513,4.2394919316,2.9706989633\H,0,-3.1666188726,2.4887873706,3.095811
 8884\C,0,-4.558019742,3.4032062716,4.438160041\O,0,-5.6758712861,3.825
 1683093,4.6392711756\O,0,-3.727446731,3.0164438793,5.4310998734\N,0,-3
 .3956065521,1.2040236282,0.4160688218\H,0,-3.1733208687,2.1879103956,0
 .3747328707\C,0,-2.4814466449,0.2493529825,-0.1590693733\H,0,-2.598662
 0825,-0.6808641508,0.4114768581\C,0,-1.0753186465,0.7498699207,-0.0038
 537797\C,0,-2.8181490526,-0.0975552829,-1.6644461048\H,0,-2.5994899364
 ,0.7718083627,-2.2948481718\H,0,-3.9065686371,-0.2230303998,-1.6555017
 671\O,0,-0.699391418,1.8412134237,0.3133532975\C,0,-2.1584841255,-1.33
 46068284,-2.1895879066\C,0,-1.3128417716,-1.4290575764,-3.2798894879\H
 ,0,-0.9528385468,-0.6531893365,-3.9413215923\C,0,-2.340278177,-2.68193
 44358,-1.6899377716\C,0,-1.5691682371,-3.5372981276,-2.5212116363\C,0,
 -3.0930542103,-3.2416662124,-0.6382487241\H,0,-3.7253318089,-2.6211524
 454,-0.0074660484\N,0,-0.9542755252,-2.7417049323,-3.4735038536\H,0,-0
 .3906059425,-3.0778929247,-4.2403548751\C,0,-2.2569782323,-5.444269426
 7,-1.2741233293\H,0,-2.2427075184,-6.5152631716,-1.0956215103\C,0,-1.5
 139728887,-4.9209455749,-2.3252318942\H,0,-0.923099909,-5.562961864,-2
 .9722815966\C,0,-3.0389292857,-4.6157260433,-0.4427283571\H,0,-3.61882
 17783,-5.0647316011,0.357960691\N,0,-0.0221816792,-0.2940561777,-0.368
 0419172\H,0,-0.1990146057,-0.5723937031,-1.3686441573\C,0,1.3997438754
 ,0.1499844587,-0.2236198893\H,0,1.454042524,0.7902235055,0.6604824897\
 C,0,1.7417422962,0.907970489,-1.5191011871\C,0,2.2474226039,-1.1453158
 268,-0.0253523474\H,0,2.2835682081,-1.6716493162,-0.9858381029\O,0,1.1
 284209727,0.6153717947,-2.5451965825\C,0,3.6592990472,-0.8626794182,0.
 4700907877\H,0,4.2205194012,-0.2452786132,-0.237586467\H,0,4.197255983
 9,-1.8067953438,0.5945493644\H,0,3.6409515435,-0.3439212861,1.43799582
 63\O,0,1.5208851643,-2.0111878269,0.8497718953\H,0,1.830362553,-1.8844
 704564,1.7623043819\N,0,2.72814146,1.8185600654,-1.4348256256\H,0,3.16
 85235507,2.0019272075,-0.5422444813\C,0,3.2496851439,2.539654089,-2.59
 9569394\H,0,2.7843403615,2.0918017134,-3.4797150724\C,0,4.7584264411,2
 .3435000893,-2.7281061426\C,0,2.8930098997,4.0473739746,-2.5418812968\
 H,0,3.4547122587,4.5183277393,-1.7226143027\H,0,1.8310026603,4.1090471
 587,-2.2739788087\O,0,5.376323011,2.4556192193,-3.7562874292\C,0,3.132
 6551254,4.789763784,-3.8631303855\H,0,4.1771444634,4.6838824802,-4.177
 8514898\H,0,2.5159777136,4.3373124764,-4.6493887801\C,0,2.7741227511,6
 .282967688,-3.761125325\H,0,1.7489617966,6.3907210212,-3.3950865515\H,
 0,3.4239491678,6.7815035462,-3.0315135768\N,0,2.8954638068,7.009624740
 5,-5.0247870477\H,0,3.8557403059,7.1198343791,-5.3311597249\N,0,0.7063
 569935,6.5259428746,-5.7047820832\H,0,0.1222087168,6.4608355337,-6.532
 6903112\H,0,0.3589773077,7.2455288646,-5.0766784141\N,0,2.3407952692,6
 .6740641639,-7.3421697072\H,0,3.352307812,6.7088862577,-7.4841765492\C
 ,0,2.0361372737,6.7361214948,-6.0997510115\O,0,5.3444310584,2.08569413
 31,-1.527193057\H,0,-0.1274715541,-1.1547707584,0.2028210099\H,0,6.306
 8928097,2.0361562139,-1.6888316979\H,0,-4.2205948588,3.1388263558,6.26
 47982696\\Version=ES64L-G16RevC.01\HF=-2053.8820174\RMSD=9.475e-09\Dip
 ole=2.9528468,-1.6404745,1.6469723\Quadrupole=18.4527389,8.0268691,-26
 .4796079,5.6244378,3.9951631,10.9324186\PG=C01 [X(C26H39N8O8)]\\@
 The archive entry for this job was punched.


 YOU WILL NEVER "FIND" TIME FOR ANYTHING.
 IF YOU WANT TIME, YOU MUST MAKE IT.

                        -- CHARLES BIXTON
 Job cpu time:       0 days  0 hours  1 minutes 58.5 seconds.
 Elapsed time:       0 days  0 hours  0 minutes 30.6 seconds.
 File lengths (MBytes):  RWF=    376 Int=      0 D2E=      0 Chk=     56 Scr=     16
 Normal termination of Gaussian 16 at Thu May 26 18:18:22 2022.
