 Entering Gaussian System, Link 0=/opt/software/Gaussian/g16-AVX2-C.01/g16/g16
 Input=charge-conf-883.com
 Output=charge-conf-883.log
 Initial command:
 /opt/software/Gaussian/g16-AVX2-C.01/g16/l1.exe "/mnt/gs18/scratch/users/kengmith/Gau-17551.inp" -scrdir="/mnt/gs18/scratch/users/kengmith/"
 Entering Link 1 = /opt/software/Gaussian/g16-AVX2-C.01/g16/l1.exe PID=     17561.
  
 Copyright (c) 1988-2019, Gaussian, Inc.  All Rights Reserved.
  
 This is part of the Gaussian(R) 16 program.  It is based on
 the Gaussian(R) 09 system (copyright 2009, Gaussian, Inc.),
 the Gaussian(R) 03 system (copyright 2003, Gaussian, Inc.),
 the Gaussian(R) 98 system (copyright 1998, Gaussian, Inc.),
 the Gaussian(R) 94 system (copyright 1995, Gaussian, Inc.),
 the Gaussian 92(TM) system (copyright 1992, Gaussian, Inc.),
 the Gaussian 90(TM) system (copyright 1990, Gaussian, Inc.),
 the Gaussian 88(TM) system (copyright 1988, Gaussian, Inc.),
 the Gaussian 86(TM) system (copyright 1986, Carnegie Mellon
 University), and the Gaussian 82(TM) system (copyright 1983,
 Carnegie Mellon University). Gaussian is a federally registered
 trademark of Gaussian, Inc.
  
 This software contains proprietary and confidential information,
 including trade secrets, belonging to Gaussian, Inc.
  
 This software is provided under written license and may be
 used, copied, transmitted, or stored only in accord with that
 written license.
  
 The following legend is applicable only to US Government
 contracts under FAR:
  
                    RESTRICTED RIGHTS LEGEND
  
 Use, reproduction and disclosure by the US Government is
 subject to restrictions as set forth in subparagraphs (a)
 and (c) of the Commercial Computer Software - Restricted
 Rights clause in FAR 52.227-19.
  
 Gaussian, Inc.
 340 Quinnipiac St., Bldg. 40, Wallingford CT 06492
  
  
 ---------------------------------------------------------------
 Warning -- This program may not be used in any manner that
 competes with the business of Gaussian, Inc. or will provide
 assistance to any competitor of Gaussian, Inc.  The licensee
 of this program is prohibited from giving any competitor of
 Gaussian, Inc. access to this program.  By using this program,
 the user acknowledges that Gaussian, Inc. is engaged in the
 business of creating and licensing software in the field of
 computational chemistry and represents and warrants to the
 licensee that it is not a competitor of Gaussian, Inc. and that
 it will not use this program in any manner prohibited above.
 ---------------------------------------------------------------
  

 Cite this work as:
 Gaussian 16, Revision C.01,
 M. J. Frisch, G. W. Trucks, H. B. Schlegel, G. E. Scuseria, 
 M. A. Robb, J. R. Cheeseman, G. Scalmani, V. Barone, 
 G. A. Petersson, H. Nakatsuji, X. Li, M. Caricato, A. V. Marenich, 
 J. Bloino, B. G. Janesko, R. Gomperts, B. Mennucci, H. P. Hratchian, 
 J. V. Ortiz, A. F. Izmaylov, J. L. Sonnenberg, D. Williams-Young, 
 F. Ding, F. Lipparini, F. Egidi, J. Goings, B. Peng, A. Petrone, 
 T. Henderson, D. Ranasinghe, V. G. Zakrzewski, J. Gao, N. Rega, 
 G. Zheng, W. Liang, M. Hada, M. Ehara, K. Toyota, R. Fukuda, 
 J. Hasegawa, M. Ishida, T. Nakajima, Y. Honda, O. Kitao, H. Nakai, 
 T. Vreven, K. Throssell, J. A. Montgomery, Jr., J. E. Peralta, 
 F. Ogliaro, M. J. Bearpark, J. J. Heyd, E. N. Brothers, K. N. Kudin, 
 V. N. Staroverov, T. A. Keith, R. Kobayashi, J. Normand, 
 K. Raghavachari, A. P. Rendell, J. C. Burant, S. S. Iyengar, 
 J. Tomasi, M. Cossi, J. M. Millam, M. Klene, C. Adamo, R. Cammi, 
 J. W. Ochterski, R. L. Martin, K. Morokuma, O. Farkas, 
 J. B. Foresman, and D. J. Fox, Gaussian, Inc., Wallingford CT, 2019.
 
 ******************************************
 Gaussian 16:  ES64L-G16RevC.01  3-Jul-2019
                 2-Jun-2022 
 ******************************************
 %mem=8gb
 %nproc=4
 Will use up to    4 processors via shared memory.
 %chk=conf-883.chk
 ----------------------------------------------------------------------
 # B3LYP/6-31G* empiricaldispersion=gd3 guess=read geom=check nosymm in
 tegral(ultrafinegrid)
 ----------------------------------------------------------------------
 1/29=2,38=1,172=1/1;
 2/12=2,15=1,40=1/2;
 3/5=1,6=6,7=1,11=2,14=-4,25=1,30=1,74=-5,75=-5,116=-2,124=31/1,2,3;
 4/5=1/1;
 5/5=2,38=6/2;
 6/7=2,8=2,9=2,10=2,28=1/1;
 99/5=1,9=1/99;
 ------------------------------------------------------
 Candidate Structure: Conf:883 Charge calc in gas phase
 ------------------------------------------------------
 Structure from the checkpoint file:  "conf-883.chk"
 Charge =  1 Multiplicity = 1
 Redundant internal coordinates found in file.  (old form).
 N,0,-4.822036378,1.4661733073,2.1272579858
 H,0,-5.8026281495,1.3666774907,2.3745297914
 H,0,-4.2871120604,0.9506458898,2.8230005321
 C,0,-4.4403640907,2.8739450315,2.1122642358
 H,0,-5.3312722247,3.4781246169,1.9018740127
 C,0,-3.4961457246,3.2211119398,0.9593851167
 C,0,-3.8101331445,3.4223281659,3.4358540558
 H,0,-3.6540963265,4.4987980215,3.3184692864
 H,0,-4.5565209824,3.2783955352,4.2241979917
 O,0,-3.1406559373,4.3267522568,0.6785978525
 C,0,-2.5135992622,2.7242205564,3.7783419353
 C,0,-2.5106747003,1.5346515424,4.5232428973
 H,0,-3.4371491021,1.1718606235,4.9639695721
 C,0,-1.2919004965,3.2092099189,3.2800267063
 H,0,-1.2722063736,4.1406289536,2.7204997037
 C,0,-1.321983049,0.83100207,4.7438206932
 H,0,-1.3368178274,-0.0808031935,5.3340573654
 C,0,-0.1042750879,2.513640947,3.508226
 H,0,0.8324094826,2.908919615,3.1262995212
 C,0,-0.1172261055,1.3180916807,4.2333401777
 H,0,0.8104844759,0.7852615846,4.4227270681
 N,0,-2.9614240259,2.102932129,0.073621372
 C,0,-2.1805361614,0.9700286647,0.7276595194
 H,0,-2.2481956959,1.0382835719,1.812087115
 C,0,-0.7304976267,1.1878662151,0.2534106053
 C,0,-2.7853241019,-0.3223019186,0.1391072103
 H,0,-2.0242625738,-1.0986871366,0.027708583
 H,0,-3.5778456203,-0.6843062005,0.798279942
 O,0,-0.5078308265,1.9700418492,-0.674484089
 C,0,-3.3660903723,0.1308737992,-1.2096243856
 H,0,-2.5695198603,0.2422133669,-1.9528187789
 H,0,-4.1131992613,-0.5615749804,-1.6046245606
 C,0,-3.9841345042,1.4882651865,-0.8818586404
 H,0,-4.9159800435,1.384264041,-0.3285672608
 H,0,-4.1038781486,2.1669501818,-1.7279151956
 N,0,0.2039722631,0.4504397934,0.865655126
 H,0,-0.0695390412,-0.1766399181,1.61115096
 C,0,1.5689775852,0.3575942619,0.3531089003
 H,0,1.9141657626,1.367202466,0.1147962942
 C,0,1.6336148982,-0.4315535475,-0.9563117187
 C,0,2.4813556906,-0.2670081321,1.428151831
 H,0,2.1757959425,-1.310025957,1.5965733938
 H,0,2.2906810075,0.2763364909,2.363532367
 O,0,2.5546580952,-0.3651729741,-1.7307693588
 C,0,3.9774968196,-0.1991574772,1.1039682038
 H,0,4.1847317128,-0.7459155593,0.1768097087
 H,0,4.2498494433,0.8481019,0.9217632079
 C,0,4.8344354863,-0.753311434,2.2480740379
 H,0,4.5548563775,-1.7982160193,2.4459653097
 H,0,4.634406249,-0.1803907974,3.1632779558
 C,0,6.3387673023,-0.6867473934,1.9574925076
 H,0,6.8760440456,-1.0897222721,2.8233388241
 H,0,6.5725053517,-1.3503274899,1.1053110849
 N,0,6.7743905525,0.7029819402,1.7627450595
 H,0,6.5984495467,0.9936335725,0.8028611049
 H,0,7.7819759388,0.7707919245,1.8890092979
 O,0,0.5643978384,-1.2535234128,-1.1291052794
 H,0,0.7253630433,-1.7347890067,-1.9637617783
 H,0,-2.218782204,2.5608795889,-0.508647847
 Recover connectivity data from disk.
                           ----------------------------
                           !    Current Parameters    !
                           ! (Angstroms and Degrees)  !
 --------------------------                            --------------------------
 ! Name  Definition              Value                                          !
 --------------------------------------------------------------------------------
 ! R1    R(1,2)                  1.0162                                         !
 ! R2    R(1,3)                  1.0178                                         !
 ! R3    R(1,4)                  1.4587                                         !
 ! R4    R(4,5)                  1.0968                                         !
 ! R5    R(4,6)                  1.5301                                         !
 ! R6    R(4,7)                  1.5652                                         !
 ! R7    R(6,10)                 1.1948                                         !
 ! R8    R(6,22)                 1.5234                                         !
 ! R9    R(7,8)                  1.094                                          !
 ! R10   R(7,9)                  1.0951                                         !
 ! R11   R(7,11)                 1.5118                                         !
 ! R12   R(11,12)                1.4036                                         !
 ! R13   R(11,14)                1.4057                                         !
 ! R14   R(12,13)                1.0882                                         !
 ! R15   R(12,16)                1.3988                                         !
 ! R16   R(14,15)                1.0867                                         !
 ! R17   R(14,18)                1.3951                                         !
 ! R18   R(16,17)                1.0863                                         !
 ! R19   R(16,20)                1.3962                                         !
 ! R20   R(18,19)                1.086                                          !
 ! R21   R(18,20)                1.3983                                         !
 ! R22   R(20,21)                1.0865                                         !
 ! R23   R(22,23)                1.5235                                         !
 ! R24   R(22,33)                1.5286                                         !
 ! R25   R(22,59)                1.0489                                         !
 ! R26   R(23,24)                1.0887                                         !
 ! R27   R(23,25)                1.5411                                         !
 ! R28   R(23,26)                1.5435                                         !
 ! R29   R(25,29)                1.2338                                         !
 ! R30   R(25,36)                1.3386                                         !
 ! R31   R(26,27)                1.0929                                         !
 ! R32   R(26,28)                1.0925                                         !
 ! R33   R(26,30)                1.5368                                         !
 ! R34   R(30,31)                1.0951                                         !
 ! R35   R(30,32)                1.0926                                         !
 ! R36   R(30,33)                1.5271                                         !
 ! R37   R(33,34)                1.0887                                         !
 ! R38   R(33,35)                1.0912                                         !
 ! R39   R(36,37)                1.0118                                         !
 ! R40   R(36,38)                1.461                                          !
 ! R41   R(38,39)                1.0933                                         !
 ! R42   R(38,40)                1.5302                                         !
 ! R43   R(38,41)                1.5422                                         !
 ! R44   R(40,44)                1.2052                                         !
 ! R45   R(40,57)                1.3597                                         !
 ! R46   R(41,42)                1.0998                                         !
 ! R47   R(41,43)                1.0984                                         !
 ! R48   R(41,45)                1.5324                                         !
 ! R49   R(45,46)                1.0961                                         !
 ! R50   R(45,47)                1.0973                                         !
 ! R51   R(45,48)                1.5331                                         !
 ! R52   R(48,49)                1.0996                                         !
 ! R53   R(48,50)                1.0981                                         !
 ! R54   R(48,51)                1.5336                                         !
 ! R55   R(51,52)                1.0958                                         !
 ! R56   R(51,53)                1.1051                                         !
 ! R57   R(51,54)                1.4694                                         !
 ! R58   R(54,55)                1.0182                                         !
 ! R59   R(54,56)                1.0177                                         !
 ! R60   R(57,58)                0.9768                                         !
 ! A1    A(2,1,3)              106.9314                                         !
 ! A2    A(2,1,4)              110.4563                                         !
 ! A3    A(3,1,4)              110.998                                          !
 ! A4    A(1,4,5)              108.7272                                         !
 ! A5    A(1,4,6)              112.8418                                         !
 ! A6    A(1,4,7)              115.7728                                         !
 ! A7    A(5,4,6)              103.3992                                         !
 ! A8    A(5,4,7)              107.2341                                         !
 ! A9    A(6,4,7)              108.0106                                         !
 ! A10   A(4,6,10)             124.7931                                         !
 ! A11   A(4,6,22)             119.2191                                         !
 ! A12   A(10,6,22)            115.9845                                         !
 ! A13   A(4,7,8)              108.1456                                         !
 ! A14   A(4,7,9)              106.7545                                         !
 ! A15   A(4,7,11)             112.0304                                         !
 ! A16   A(8,7,9)              107.6839                                         !
 ! A17   A(8,7,11)             110.8756                                         !
 ! A18   A(9,7,11)             111.1449                                         !
 ! A19   A(7,11,12)            120.8891                                         !
 ! A20   A(7,11,14)            120.3778                                         !
 ! A21   A(12,11,14)           118.6028                                         !
 ! A22   A(11,12,13)           119.7175                                         !
 ! A23   A(11,12,16)           120.7832                                         !
 ! A24   A(13,12,16)           119.4659                                         !
 ! A25   A(11,14,15)           119.6014                                         !
 ! A26   A(11,14,18)           120.6527                                         !
 ! A27   A(15,14,18)           119.7428                                         !
 ! A28   A(12,16,17)           119.7559                                         !
 ! A29   A(12,16,20)           120.0079                                         !
 ! A30   A(17,16,20)           120.2183                                         !
 ! A31   A(14,18,19)           119.6841                                         !
 ! A32   A(14,18,20)           120.2128                                         !
 ! A33   A(19,18,20)           120.1015                                         !
 ! A34   A(16,20,18)           119.7277                                         !
 ! A35   A(16,20,21)           120.131                                          !
 ! A36   A(18,20,21)           120.1185                                         !
 ! A37   A(6,22,23)            118.4319                                         !
 ! A38   A(6,22,33)            115.0706                                         !
 ! A39   A(6,22,59)            104.5255                                         !
 ! A40   A(23,22,33)           108.1949                                         !
 ! A41   A(23,22,59)           101.5409                                         !
 ! A42   A(33,22,59)           107.5931                                         !
 ! A43   A(22,23,24)           110.4353                                         !
 ! A44   A(22,23,25)           104.1851                                         !
 ! A45   A(22,23,26)           104.9566                                         !
 ! A46   A(24,23,25)           110.8638                                         !
 ! A47   A(24,23,26)           114.0775                                         !
 ! A48   A(25,23,26)           111.6967                                         !
 ! A49   A(23,25,29)           119.3957                                         !
 ! A50   A(23,25,36)           115.9906                                         !
 ! A51   A(29,25,36)           124.5558                                         !
 ! A52   A(23,26,27)           111.1501                                         !
 ! A53   A(23,26,28)           109.366                                          !
 ! A54   A(23,26,30)           103.6406                                         !
 ! A55   A(27,26,28)           109.3454                                         !
 ! A56   A(27,26,30)           112.5317                                         !
 ! A57   A(28,26,30)           110.676                                          !
 ! A58   A(26,30,31)           110.5299                                         !
 ! A59   A(26,30,32)           112.8811                                         !
 ! A60   A(26,30,33)           103.1027                                         !
 ! A61   A(31,30,32)           108.4503                                         !
 ! A62   A(31,30,33)           110.4681                                         !
 ! A63   A(32,30,33)           111.3588                                         !
 ! A64   A(22,33,30)           102.7566                                         !
 ! A65   A(22,33,34)           107.0613                                         !
 ! A66   A(22,33,35)           107.936                                          !
 ! A67   A(30,33,34)           111.7515                                         !
 ! A68   A(30,33,35)           115.521                                          !
 ! A69   A(34,33,35)           111.0707                                         !
 ! A70   A(25,36,37)           119.3204                                         !
 ! A71   A(25,36,38)           121.7875                                         !
 ! A72   A(37,36,38)           118.1408                                         !
 ! A73   A(36,38,39)           108.2265                                         !
 ! A74   A(36,38,40)           111.866                                          !
 ! A75   A(36,38,41)           109.5074                                         !
 ! A76   A(39,38,40)           106.0443                                         !
 ! A77   A(39,38,41)           109.8267                                         !
 ! A78   A(40,38,41)           111.2634                                         !
 ! A79   A(38,40,44)           123.6252                                         !
 ! A80   A(38,40,57)           112.7865                                         !
 ! A81   A(44,40,57)           123.5456                                         !
 ! A82   A(38,41,42)           109.0552                                         !
 ! A83   A(38,41,43)           106.8929                                         !
 ! A84   A(38,41,45)           114.3447                                         !
 ! A85   A(42,41,43)           106.8866                                         !
 ! A86   A(42,41,45)           110.2213                                         !
 ! A87   A(43,41,45)           109.1317                                         !
 ! A88   A(41,45,46)           109.9652                                         !
 ! A89   A(41,45,47)           108.6457                                         !
 ! A90   A(41,45,48)           111.8304                                         !
 ! A91   A(46,45,47)           106.7786                                         !
 ! A92   A(46,45,48)           110.1971                                         !
 ! A93   A(47,45,48)           109.2778                                         !
 ! A94   A(45,48,49)           109.6127                                         !
 ! A95   A(45,48,50)           109.3636                                         !
 ! A96   A(45,48,51)           113.0294                                         !
 ! A97   A(49,48,50)           107.4259                                         !
 ! A98   A(49,48,51)           108.9502                                         !
 ! A99   A(50,48,51)           108.2978                                         !
 ! A100  A(48,51,52)           108.3777                                         !
 ! A101  A(48,51,53)           109.1191                                         !
 ! A102  A(48,51,54)           110.9148                                         !
 ! A103  A(52,51,53)           106.5469                                         !
 ! A104  A(52,51,54)           107.8895                                         !
 ! A105  A(53,51,54)           113.7674                                         !
 ! A106  A(51,54,55)           110.1019                                         !
 ! A107  A(51,54,56)           109.8823                                         !
 ! A108  A(55,54,56)           105.605                                          !
 ! A109  A(40,57,58)           106.0724                                         !
 ! D1    D(2,1,4,5)            -26.309                                          !
 ! D2    D(2,1,4,6)           -140.4075                                         !
 ! D3    D(2,1,4,7)             94.4269                                         !
 ! D4    D(3,1,4,5)           -144.7407                                         !
 ! D5    D(3,1,4,6)            101.1608                                         !
 ! D6    D(3,1,4,7)            -24.0048                                         !
 ! D7    D(1,4,6,10)           173.4057                                         !
 ! D8    D(1,4,6,22)            -5.9024                                         !
 ! D9    D(5,4,6,10)            56.1171                                         !
 ! D10   D(5,4,6,22)          -123.1909                                         !
 ! D11   D(7,4,6,10)           -57.3181                                         !
 ! D12   D(7,4,6,22)           123.3739                                         !
 ! D13   D(1,4,7,8)           -175.1054                                         !
 ! D14   D(1,4,7,9)            -59.4792                                         !
 ! D15   D(1,4,7,11)            62.4055                                         !
 ! D16   D(5,4,7,8)            -53.5674                                         !
 ! D17   D(5,4,7,9)             62.0588                                         !
 ! D18   D(5,4,7,11)          -176.0565                                         !
 ! D19   D(6,4,7,8)             57.2864                                         !
 ! D20   D(6,4,7,9)            172.9126                                         !
 ! D21   D(6,4,7,11)           -65.2028                                         !
 ! D22   D(4,6,22,23)          -57.8597                                         !
 ! D23   D(4,6,22,33)           72.3279                                         !
 ! D24   D(4,6,22,59)         -169.9024                                         !
 ! D25   D(10,6,22,23)         122.7725                                         !
 ! D26   D(10,6,22,33)        -107.0399                                         !
 ! D27   D(10,6,22,59)          10.7297                                         !
 ! D28   D(4,7,11,12)          -87.1271                                         !
 ! D29   D(4,7,11,14)           88.6645                                         !
 ! D30   D(8,7,11,12)          151.9498                                         !
 ! D31   D(8,7,11,14)          -32.2586                                         !
 ! D32   D(9,7,11,12)           32.2088                                         !
 ! D33   D(9,7,11,14)         -151.9995                                         !
 ! D34   D(7,11,12,13)          -7.4953                                         !
 ! D35   D(7,11,12,16)         174.6178                                         !
 ! D36   D(14,11,12,13)        176.6398                                         !
 ! D37   D(14,11,12,16)         -1.247                                          !
 ! D38   D(7,11,14,15)           5.4996                                         !
 ! D39   D(7,11,14,18)        -175.1398                                         !
 ! D40   D(12,11,14,15)       -178.6137                                         !
 ! D41   D(12,11,14,18)          0.7469                                         !
 ! D42   D(11,12,16,17)        179.1809                                         !
 ! D43   D(11,12,16,20)          0.7179                                         !
 ! D44   D(13,12,16,17)          1.2889                                         !
 ! D45   D(13,12,16,20)       -177.1742                                         !
 ! D46   D(11,14,18,19)       -179.2587                                         !
 ! D47   D(11,14,18,20)          0.2828                                         !
 ! D48   D(15,14,18,19)          0.101                                          !
 ! D49   D(15,14,18,20)        179.6425                                         !
 ! D50   D(12,16,20,18)          0.3318                                         !
 ! D51   D(12,16,20,21)        178.5994                                         !
 ! D52   D(17,16,20,18)       -178.124                                          !
 ! D53   D(17,16,20,21)          0.1436                                         !
 ! D54   D(14,18,20,16)         -0.8285                                         !
 ! D55   D(14,18,20,21)       -179.0963                                         !
 ! D56   D(19,18,20,16)        178.7111                                         !
 ! D57   D(19,18,20,21)          0.4433                                         !
 ! D58   D(6,22,23,24)           9.2937                                         !
 ! D59   D(6,22,23,25)        -109.7973                                         !
 ! D60   D(6,22,23,26)         132.6726                                         !
 ! D61   D(33,22,23,24)       -123.9554                                         !
 ! D62   D(33,22,23,25)        116.9536                                         !
 ! D63   D(33,22,23,26)         -0.5765                                         !
 ! D64   D(59,22,23,24)        122.9753                                         !
 ! D65   D(59,22,23,25)          3.8843                                         !
 ! D66   D(59,22,23,26)       -113.6458                                         !
 ! D67   D(6,22,33,30)        -159.1773                                         !
 ! D68   D(6,22,33,34)         -41.3418                                         !
 ! D69   D(6,22,33,35)          78.3029                                         !
 ! D70   D(23,22,33,30)        -24.1808                                         !
 ! D71   D(23,22,33,34)         93.6546                                         !
 ! D72   D(23,22,33,35)       -146.7007                                         !
 ! D73   D(59,22,33,30)         84.794                                          !
 ! D74   D(59,22,33,34)       -157.3706                                         !
 ! D75   D(59,22,33,35)        -37.7259                                         !
 ! D76   D(22,23,25,29)        -13.2963                                         !
 ! D77   D(22,23,25,36)        169.3452                                         !
 ! D78   D(24,23,25,29)       -132.0954                                         !
 ! D79   D(24,23,25,36)         50.5462                                         !
 ! D80   D(26,23,25,29)         99.476                                          !
 ! D81   D(26,23,25,36)        -77.8824                                         !
 ! D82   D(22,23,26,27)        146.1517                                         !
 ! D83   D(22,23,26,28)        -93.0197                                         !
 ! D84   D(22,23,26,30)         25.0417                                         !
 ! D85   D(24,23,26,27)        -92.8373                                         !
 ! D86   D(24,23,26,28)         27.9913                                         !
 ! D87   D(24,23,26,30)        146.0528                                         !
 ! D88   D(25,23,26,27)         33.8627                                         !
 ! D89   D(25,23,26,28)        154.6913                                         !
 ! D90   D(25,23,26,30)        -87.2472                                         !
 ! D91   D(23,25,36,37)         -1.9311                                         !
 ! D92   D(23,25,36,38)        167.9525                                         !
 ! D93   D(29,25,36,37)       -179.1365                                         !
 ! D94   D(29,25,36,38)         -9.2529                                         !
 ! D95   D(23,26,30,31)         77.6874                                         !
 ! D96   D(23,26,30,32)       -160.6546                                         !
 ! D97   D(23,26,30,33)        -40.3823                                         !
 ! D98   D(27,26,30,31)        -42.4878                                         !
 ! D99   D(27,26,30,32)         79.1703                                         !
 ! D100  D(27,26,30,33)       -160.5574                                         !
 ! D101  D(28,26,30,31)       -165.164                                          !
 ! D102  D(28,26,30,32)        -43.506                                          !
 ! D103  D(28,26,30,33)         76.7663                                         !
 ! D104  D(26,30,33,22)         39.5094                                         !
 ! D105  D(26,30,33,34)        -74.9602                                         !
 ! D106  D(26,30,33,35)        156.7659                                         !
 ! D107  D(31,30,33,22)        -78.6035                                         !
 ! D108  D(31,30,33,34)        166.9268                                         !
 ! D109  D(31,30,33,35)         38.653                                          !
 ! D110  D(32,30,33,22)        160.8201                                         !
 ! D111  D(32,30,33,34)         46.3505                                         !
 ! D112  D(32,30,33,35)        -81.9234                                         !
 ! D113  D(25,36,38,39)         46.7904                                         !
 ! D114  D(25,36,38,40)        -69.6768                                         !
 ! D115  D(25,36,38,41)        166.4929                                         !
 ! D116  D(37,36,38,39)       -143.2114                                         !
 ! D117  D(37,36,38,40)        100.3214                                         !
 ! D118  D(37,36,38,41)        -23.5089                                         !
 ! D119  D(36,38,40,44)        160.779                                          !
 ! D120  D(36,38,40,57)        -21.5266                                         !
 ! D121  D(39,38,40,44)         42.9983                                         !
 ! D122  D(39,38,40,57)       -139.3073                                         !
 ! D123  D(41,38,40,44)        -76.3829                                         !
 ! D124  D(41,38,40,57)        101.3116                                         !
 ! D125  D(36,38,41,42)         66.0237                                         !
 ! D126  D(36,38,41,43)        -49.1949                                         !
 ! D127  D(36,38,41,45)       -170.0825                                         !
 ! D128  D(39,38,41,42)       -175.2609                                         !
 ! D129  D(39,38,41,43)         69.5205                                         !
 ! D130  D(39,38,41,45)        -51.3671                                         !
 ! D131  D(40,38,41,42)        -58.1596                                         !
 ! D132  D(40,38,41,43)       -173.3782                                         !
 ! D133  D(40,38,41,45)         65.7342                                         !
 ! D134  D(38,40,57,58)       -177.3939                                         !
 ! D135  D(44,40,57,58)          0.3027                                         !
 ! D136  D(38,41,45,46)        -60.896                                          !
 ! D137  D(38,41,45,47)         55.638                                          !
 ! D138  D(38,41,45,48)        176.3366                                         !
 ! D139  D(42,41,45,46)         62.3711                                         !
 ! D140  D(42,41,45,47)        178.905                                          !
 ! D141  D(42,41,45,48)        -60.3964                                         !
 ! D142  D(43,41,45,46)        179.4641                                         !
 ! D143  D(43,41,45,47)        -64.002                                          !
 ! D144  D(43,41,45,48)         56.6966                                         !
 ! D145  D(41,45,48,49)         58.7824                                         !
 ! D146  D(41,45,48,50)        -58.7474                                         !
 ! D147  D(41,45,48,51)       -179.4771                                         !
 ! D148  D(46,45,48,49)        -63.8529                                         !
 ! D149  D(46,45,48,50)        178.6173                                         !
 ! D150  D(46,45,48,51)         57.8875                                         !
 ! D151  D(47,45,48,49)        179.1126                                         !
 ! D152  D(47,45,48,50)         61.5828                                         !
 ! D153  D(47,45,48,51)        -59.1469                                         !
 ! D154  D(45,48,51,52)        179.4175                                         !
 ! D155  D(45,48,51,53)        -64.9376                                         !
 ! D156  D(45,48,51,54)         61.1569                                         !
 ! D157  D(49,48,51,52)        -58.47                                           !
 ! D158  D(49,48,51,53)         57.1749                                         !
 ! D159  D(49,48,51,54)       -176.7307                                         !
 ! D160  D(50,48,51,52)         58.0836                                         !
 ! D161  D(50,48,51,53)        173.7285                                         !
 ! D162  D(50,48,51,54)        -60.1771                                         !
 ! D163  D(48,51,54,55)        -83.3769                                         !
 ! D164  D(48,51,54,56)        160.7125                                         !
 ! D165  D(52,51,54,55)        158.0668                                         !
 ! D166  D(52,51,54,56)         42.1563                                         !
 ! D167  D(53,51,54,55)         40.0877                                         !
 ! D168  D(53,51,54,56)        -75.8229                                         !
 --------------------------------------------------------------------------------
 Symmetry turned off by external request.
 Stoichiometry    C20H31N4O4(1+)
 Framework group  C1[X(C20H31N4O4)]
 Deg. of freedom   171
 Full point group                 C1      NOp   1
                          Input orientation:                          
 ---------------------------------------------------------------------
 Center     Atomic      Atomic             Coordinates (Angstroms)
 Number     Number       Type             X           Y           Z
 ---------------------------------------------------------------------
      1          7           0       -4.822036    1.466173    2.127258
      2          1           0       -5.802628    1.366677    2.374530
      3          1           0       -4.287112    0.950646    2.823001
      4          6           0       -4.440364    2.873945    2.112264
      5          1           0       -5.331272    3.478125    1.901874
      6          6           0       -3.496146    3.221112    0.959385
      7          6           0       -3.810133    3.422328    3.435854
      8          1           0       -3.654096    4.498798    3.318469
      9          1           0       -4.556521    3.278396    4.224198
     10          8           0       -3.140656    4.326752    0.678598
     11          6           0       -2.513599    2.724221    3.778342
     12          6           0       -2.510675    1.534652    4.523243
     13          1           0       -3.437149    1.171861    4.963970
     14          6           0       -1.291900    3.209210    3.280027
     15          1           0       -1.272206    4.140629    2.720500
     16          6           0       -1.321983    0.831002    4.743821
     17          1           0       -1.336818   -0.080803    5.334057
     18          6           0       -0.104275    2.513641    3.508226
     19          1           0        0.832409    2.908920    3.126300
     20          6           0       -0.117226    1.318092    4.233340
     21          1           0        0.810484    0.785262    4.422727
     22          7           0       -2.961424    2.102932    0.073621
     23          6           0       -2.180536    0.970029    0.727660
     24          1           0       -2.248196    1.038284    1.812087
     25          6           0       -0.730498    1.187866    0.253411
     26          6           0       -2.785324   -0.322302    0.139107
     27          1           0       -2.024263   -1.098687    0.027709
     28          1           0       -3.577846   -0.684306    0.798280
     29          8           0       -0.507831    1.970042   -0.674484
     30          6           0       -3.366090    0.130874   -1.209624
     31          1           0       -2.569520    0.242213   -1.952819
     32          1           0       -4.113199   -0.561575   -1.604625
     33          6           0       -3.984135    1.488265   -0.881859
     34          1           0       -4.915980    1.384264   -0.328567
     35          1           0       -4.103878    2.166950   -1.727915
     36          7           0        0.203972    0.450440    0.865655
     37          1           0       -0.069539   -0.176640    1.611151
     38          6           0        1.568978    0.357594    0.353109
     39          1           0        1.914166    1.367202    0.114796
     40          6           0        1.633615   -0.431554   -0.956312
     41          6           0        2.481356   -0.267008    1.428152
     42          1           0        2.175796   -1.310026    1.596573
     43          1           0        2.290681    0.276336    2.363532
     44          8           0        2.554658   -0.365173   -1.730769
     45          6           0        3.977497   -0.199157    1.103968
     46          1           0        4.184732   -0.745916    0.176810
     47          1           0        4.249849    0.848102    0.921763
     48          6           0        4.834435   -0.753311    2.248074
     49          1           0        4.554856   -1.798216    2.445965
     50          1           0        4.634406   -0.180391    3.163278
     51          6           0        6.338767   -0.686747    1.957493
     52          1           0        6.876044   -1.089722    2.823339
     53          1           0        6.572505   -1.350327    1.105311
     54          7           0        6.774391    0.702982    1.762745
     55          1           0        6.598450    0.993634    0.802861
     56          1           0        7.781976    0.770792    1.889009
     57          8           0        0.564398   -1.253523   -1.129105
     58          1           0        0.725363   -1.734789   -1.963762
     59          1           0       -2.218782    2.560880   -0.508648
 ---------------------------------------------------------------------
 Rotational constants (GHZ):           0.2760959           0.1028260           0.0849924
 Standard basis: 6-31G(d) (6D, 7F)
   482 basis functions,   908 primitive gaussians,   482 cartesian basis functions
   105 alpha electrons      105 beta electrons
       nuclear repulsion energy      2842.8707480632 Hartrees.
 NAtoms=   59 NActive=   59 NUniq=   59 SFac= 1.00D+00 NAtFMM=   60 NAOKFM=F Big=F
 Integral buffers will be    131072 words long.
 Raffenetti 2 integral format.
 Two-electron integral symmetry is turned off.
 Nuclear repulsion after empirical dispersion term =     2842.7928408450 Hartrees.
 One-electron integrals computed using PRISM.
 NBasis=   482 RedAO= T EigKep=  4.73D-04  NBF=   482
 NBsUse=   482 1.00D-06 EigRej= -1.00D+00 NBFU=   482
 Initial guess from the checkpoint file:  "conf-883.chk"
 B after Tr=     0.000000    0.000000    0.000000
         Rot=    1.000000    0.000000    0.000000    0.000000 Ang=   0.00 deg.
 Requested convergence on RMS density matrix=1.00D-08 within 128 cycles.
 Requested convergence on MAX density matrix=1.00D-06.
 Requested convergence on             energy=1.00D-06.
 No special actions if energy rises.
 SCF Done:  E(RB3LYP) =  -1300.57369147     A.U. after    1 cycles
            NFock=  1  Conv=0.99D-08     -V/T= 2.0095

 **********************************************************************

            Population analysis using the SCF Density.

 **********************************************************************

 Alpha  occ. eigenvalues --  -19.31771 -19.30426 -19.26527 -19.24215 -14.57871
 Alpha  occ. eigenvalues --  -14.49911 -14.46794 -14.37249 -10.47032 -10.43178
 Alpha  occ. eigenvalues --  -10.42421 -10.39238 -10.38368 -10.37754 -10.35334
 Alpha  occ. eigenvalues --  -10.33470 -10.33112 -10.32587 -10.32292 -10.31299
 Alpha  occ. eigenvalues --  -10.31165 -10.30968 -10.30876 -10.30844 -10.29855
 Alpha  occ. eigenvalues --  -10.27051 -10.26497 -10.25156  -1.23551  -1.20990
 Alpha  occ. eigenvalues --   -1.18673  -1.12616  -1.12056  -1.06687  -1.04393
 Alpha  occ. eigenvalues --   -0.97724  -0.94643  -0.94070  -0.91858  -0.90923
 Alpha  occ. eigenvalues --   -0.89470  -0.86516  -0.85951  -0.84403  -0.80490
 Alpha  occ. eigenvalues --   -0.78684  -0.77981  -0.75421  -0.74521  -0.73201
 Alpha  occ. eigenvalues --   -0.72572  -0.71675  -0.70789  -0.69986  -0.68238
 Alpha  occ. eigenvalues --   -0.65706  -0.64996  -0.64640  -0.63542  -0.62928
 Alpha  occ. eigenvalues --   -0.62051  -0.61820  -0.60178  -0.59968  -0.59079
 Alpha  occ. eigenvalues --   -0.58232  -0.57866  -0.57423  -0.56900  -0.56194
 Alpha  occ. eigenvalues --   -0.55953  -0.55487  -0.55291  -0.55135  -0.54420
 Alpha  occ. eigenvalues --   -0.53878  -0.53170  -0.52765  -0.51843  -0.51547
 Alpha  occ. eigenvalues --   -0.50696  -0.50560  -0.50088  -0.49914  -0.49496
 Alpha  occ. eigenvalues --   -0.48859  -0.48791  -0.47746  -0.47503  -0.45966
 Alpha  occ. eigenvalues --   -0.45897  -0.45736  -0.44999  -0.44012  -0.42458
 Alpha  occ. eigenvalues --   -0.41679  -0.41218  -0.40762  -0.40372  -0.39896
 Alpha  occ. eigenvalues --   -0.39204  -0.37392  -0.36874  -0.36272  -0.29611
 Alpha virt. eigenvalues --   -0.18566  -0.13373  -0.12794  -0.11390  -0.09583
 Alpha virt. eigenvalues --   -0.07108  -0.05031  -0.04881  -0.03957  -0.02887
 Alpha virt. eigenvalues --   -0.02508  -0.01794  -0.01262  -0.01020   0.00489
 Alpha virt. eigenvalues --    0.01293   0.01704   0.02074   0.02261   0.02870
 Alpha virt. eigenvalues --    0.02982   0.03056   0.03591   0.03964   0.04539
 Alpha virt. eigenvalues --    0.04593   0.05469   0.05520   0.06107   0.06477
 Alpha virt. eigenvalues --    0.07014   0.07387   0.07700   0.07988   0.08420
 Alpha virt. eigenvalues --    0.08774   0.09307   0.09931   0.10045   0.10258
 Alpha virt. eigenvalues --    0.10906   0.11149   0.11445   0.12041   0.12501
 Alpha virt. eigenvalues --    0.13210   0.14087   0.14711   0.15507   0.15532
 Alpha virt. eigenvalues --    0.16971   0.17787   0.18091   0.19113   0.19239
 Alpha virt. eigenvalues --    0.19787   0.20736   0.21474   0.21934   0.22607
 Alpha virt. eigenvalues --    0.22772   0.23450   0.27710   0.28433   0.32820
 Alpha virt. eigenvalues --    0.33861   0.34351   0.36597   0.37049   0.39408
 Alpha virt. eigenvalues --    0.39899   0.40343   0.40782   0.41472   0.41664
 Alpha virt. eigenvalues --    0.42949   0.43390   0.44099   0.44960   0.45119
 Alpha virt. eigenvalues --    0.45290   0.45480   0.46756   0.47080   0.47634
 Alpha virt. eigenvalues --    0.48481   0.48848   0.49178   0.49819   0.50139
 Alpha virt. eigenvalues --    0.50574   0.50808   0.51128   0.51683   0.52240
 Alpha virt. eigenvalues --    0.52944   0.53240   0.54619   0.55554   0.55913
 Alpha virt. eigenvalues --    0.56515   0.57368   0.57727   0.58093   0.58362
 Alpha virt. eigenvalues --    0.60086   0.60760   0.61721   0.62587   0.62650
 Alpha virt. eigenvalues --    0.63593   0.63940   0.64684   0.65473   0.66310
 Alpha virt. eigenvalues --    0.67033   0.67502   0.67836   0.67922   0.68743
 Alpha virt. eigenvalues --    0.69460   0.69704   0.70132   0.71082   0.71623
 Alpha virt. eigenvalues --    0.72361   0.72577   0.73044   0.73360   0.73667
 Alpha virt. eigenvalues --    0.73994   0.74402   0.74911   0.75798   0.75985
 Alpha virt. eigenvalues --    0.76772   0.77544   0.78136   0.78517   0.78952
 Alpha virt. eigenvalues --    0.79600   0.80246   0.80662   0.81402   0.81770
 Alpha virt. eigenvalues --    0.82109   0.82863   0.83033   0.83672   0.83753
 Alpha virt. eigenvalues --    0.84092   0.85140   0.85986   0.86499   0.87094
 Alpha virt. eigenvalues --    0.87769   0.88238   0.88569   0.88833   0.89251
 Alpha virt. eigenvalues --    0.90060   0.90427   0.92138   0.92523   0.93084
 Alpha virt. eigenvalues --    0.95000   0.95459   0.96019   0.96666   0.97534
 Alpha virt. eigenvalues --    0.98387   0.98688   0.99344   1.00350   1.00802
 Alpha virt. eigenvalues --    1.01700   1.02579   1.04055   1.05402   1.06288
 Alpha virt. eigenvalues --    1.06906   1.07932   1.10424   1.10667   1.11308
 Alpha virt. eigenvalues --    1.14004   1.15135   1.16814   1.18245   1.20170
 Alpha virt. eigenvalues --    1.22340   1.22565   1.24893   1.26256   1.26641
 Alpha virt. eigenvalues --    1.29076   1.30442   1.31241   1.31573   1.33598
 Alpha virt. eigenvalues --    1.34176   1.34664   1.35483   1.36332   1.36993
 Alpha virt. eigenvalues --    1.37140   1.38255   1.39365   1.40243   1.40732
 Alpha virt. eigenvalues --    1.42146   1.44196   1.46324   1.47154   1.47404
 Alpha virt. eigenvalues --    1.48750   1.50186   1.51110   1.53054   1.54990
 Alpha virt. eigenvalues --    1.56449   1.57576   1.58735   1.59858   1.61076
 Alpha virt. eigenvalues --    1.62466   1.62625   1.63658   1.65284   1.65509
 Alpha virt. eigenvalues --    1.66535   1.68016   1.68177   1.68474   1.68953
 Alpha virt. eigenvalues --    1.69297   1.71085   1.72561   1.72970   1.73224
 Alpha virt. eigenvalues --    1.73625   1.75778   1.76248   1.77066   1.77639
 Alpha virt. eigenvalues --    1.78858   1.79265   1.81178   1.81314   1.81929
 Alpha virt. eigenvalues --    1.82290   1.82528   1.83317   1.84341   1.85192
 Alpha virt. eigenvalues --    1.86280   1.86833   1.87138   1.87777   1.88260
 Alpha virt. eigenvalues --    1.89226   1.90005   1.91102   1.91454   1.91707
 Alpha virt. eigenvalues --    1.93366   1.93909   1.94597   1.95278   1.96341
 Alpha virt. eigenvalues --    1.96647   1.98252   1.98754   2.00659   2.01047
 Alpha virt. eigenvalues --    2.01344   2.01743   2.03398   2.03671   2.04431
 Alpha virt. eigenvalues --    2.06606   2.08855   2.09894   2.10531   2.11223
 Alpha virt. eigenvalues --    2.12909   2.15287   2.15941   2.16745   2.18119
 Alpha virt. eigenvalues --    2.18591   2.19394   2.20382   2.21961   2.22559
 Alpha virt. eigenvalues --    2.22944   2.23858   2.25327   2.25893   2.27801
 Alpha virt. eigenvalues --    2.29016   2.30484   2.31363   2.33425   2.33862
 Alpha virt. eigenvalues --    2.35276   2.36215   2.37630   2.38217   2.39056
 Alpha virt. eigenvalues --    2.41925   2.42998   2.44163   2.45743   2.47453
 Alpha virt. eigenvalues --    2.48412   2.49661   2.50086   2.52597   2.52771
 Alpha virt. eigenvalues --    2.53548   2.53927   2.54756   2.55661   2.57890
 Alpha virt. eigenvalues --    2.58178   2.59934   2.60306   2.61261   2.62301
 Alpha virt. eigenvalues --    2.63385   2.63621   2.65178   2.67415   2.68120
 Alpha virt. eigenvalues --    2.71918   2.73715   2.76120   2.77476   2.78439
 Alpha virt. eigenvalues --    2.81026   2.86382   2.87465   2.90056   2.91366
 Alpha virt. eigenvalues --    2.93181   3.00205   3.05935   3.28353   3.69522
 Alpha virt. eigenvalues --    3.71186   3.73380   3.93106   3.95359   3.97370
 Alpha virt. eigenvalues --    4.01488   4.01846   4.04386   4.07094   4.09893
 Alpha virt. eigenvalues --    4.10714   4.12353   4.14992   4.17450   4.22585
 Alpha virt. eigenvalues --    4.24572   4.26265   4.27470   4.33267   4.35714
 Alpha virt. eigenvalues --    4.37644   4.44976   4.47420   4.52951   4.56356
 Alpha virt. eigenvalues --    4.61694   4.62069
          Condensed to atoms (all electrons):
 Mulliken charges:
               1
     1  N   -0.754685
     2  H    0.343784
     3  H    0.327818
     4  C   -0.079304
     5  H    0.214939
     6  C    0.596371
     7  C   -0.369019
     8  H    0.201881
     9  H    0.183935
    10  O   -0.359974
    11  C    0.139382
    12  C   -0.212842
    13  H    0.150158
    14  C   -0.205120
    15  H    0.169346
    16  C   -0.133484
    17  H    0.164844
    18  C   -0.124740
    19  H    0.166437
    20  C   -0.153581
    21  H    0.163689
    22  N   -0.597885
    23  C   -0.088685
    24  H    0.207483
    25  C    0.651885
    26  C   -0.293399
    27  H    0.202043
    28  H    0.187907
    29  O   -0.522630
    30  C   -0.314013
    31  H    0.197117
    32  H    0.200773
    33  C   -0.151506
    34  H    0.220292
    35  H    0.216453
    36  N   -0.605831
    37  H    0.348683
    38  C   -0.026022
    39  H    0.215013
    40  C    0.604284
    41  C   -0.318053
    42  H    0.152094
    43  H    0.158068
    44  O   -0.430952
    45  C   -0.275713
    46  H    0.167544
    47  H    0.155778
    48  C   -0.236933
    49  H    0.127649
    50  H    0.139889
    51  C   -0.150561
    52  H    0.150202
    53  H    0.126016
    54  N   -0.721330
    55  H    0.300979
    56  H    0.309905
    57  O   -0.584174
    58  H    0.426990
    59  H    0.420806
 Sum of Mulliken charges =   1.00000
 Mulliken charges with hydrogens summed into heavy atoms:
               1
     1  N   -0.083083
     4  C    0.135635
     6  C    0.596371
     7  C    0.016798
    10  O   -0.359974
    11  C    0.139382
    12  C   -0.062685
    14  C   -0.035774
    16  C    0.031360
    18  C    0.041697
    20  C    0.010108
    22  N   -0.177080
    23  C    0.118798
    25  C    0.651885
    26  C    0.096551
    29  O   -0.522630
    30  C    0.083877
    33  C    0.285239
    36  N   -0.257148
    38  C    0.188991
    40  C    0.604284
    41  C   -0.007891
    44  O   -0.430952
    45  C    0.047609
    48  C    0.030605
    51  C    0.125657
    54  N   -0.110446
    57  O   -0.157184
 Electronic spatial extent (au):  <R**2>=          15189.3967
 Charge=              1.0000 electrons
 Dipole moment (field-independent basis, Debye):
    X=            -12.0296    Y=              2.7139    Z=              7.1713  Tot=             14.2655
 Quadrupole moment (field-independent basis, Debye-Ang):
   XX=            -77.3127   YY=           -151.6815   ZZ=           -136.7164
   XY=            -27.3259   XZ=            -14.3546   YZ=             10.5257
 Traceless Quadrupole moment (field-independent basis, Debye-Ang):
   XX=             44.5908   YY=            -29.7780   ZZ=            -14.8128
   XY=            -27.3259   XZ=            -14.3546   YZ=             10.5257
 Octapole moment (field-independent basis, Debye-Ang**2):
  XXX=             61.7069  YYY=           -538.5636  ZZZ=           -602.8942  XYY=              9.3254
  XXY=            -73.8284  XXZ=           -102.5958  XZZ=            -40.6861  YZZ=           -173.6313
  YYZ=           -201.6019  XYZ=            -58.0611
 Hexadecapole moment (field-independent basis, Debye-Ang**3):
 XXXX=          -7710.3107 YYYY=          -3565.6986 ZZZZ=          -5080.9943 XXXY=            998.2832
 XXXZ=             39.2956 YYYX=           1554.8738 YYYZ=          -1084.9402 ZZZX=            121.5953
 ZZZY=          -1224.5560 XXYY=          -2147.7773 XXZZ=          -2340.4308 YYZZ=          -1390.1748
 XXYZ=           -274.9828 YYXZ=            -24.2717 ZZXY=            348.1987
 N-N= 2.842792840845D+03 E-N=-8.686183524431D+03  KE= 1.288381583131D+03
 Unable to Open any file for archive entry.
 1\1\GINC-LAC-317\SP\RB3LYP\6-31G(d)\C20H31N4O4(1+)\KENGMITH\02-Jun-202
 2\0\\# B3LYP/6-31G* empiricaldispersion=gd3 guess=read geom=check nosy
 mm integral(ultrafinegrid)\\Candidate Structure: Conf:883 Charge calc 
 in gas phase\\1,1\N,0,-4.822036378,1.4661733073,2.1272579858\H,0,-5.80
 26281495,1.3666774907,2.3745297914\H,0,-4.2871120604,0.9506458898,2.82
 30005321\C,0,-4.4403640907,2.8739450315,2.1122642358\H,0,-5.3312722247
 ,3.4781246169,1.9018740127\C,0,-3.4961457246,3.2211119398,0.9593851167
 \C,0,-3.8101331445,3.4223281659,3.4358540558\H,0,-3.6540963265,4.49879
 80215,3.3184692864\H,0,-4.5565209824,3.2783955352,4.2241979917\O,0,-3.
 1406559373,4.3267522568,0.6785978525\C,0,-2.5135992622,2.7242205564,3.
 7783419353\C,0,-2.5106747003,1.5346515424,4.5232428973\H,0,-3.43714910
 21,1.1718606235,4.9639695721\C,0,-1.2919004965,3.2092099189,3.28002670
 63\H,0,-1.2722063736,4.1406289536,2.7204997037\C,0,-1.321983049,0.8310
 0207,4.7438206932\H,0,-1.3368178274,-0.0808031935,5.3340573654\C,0,-0.
 1042750879,2.513640947,3.508226\H,0,0.8324094826,2.908919615,3.1262995
 212\C,0,-0.1172261055,1.3180916807,4.2333401777\H,0,0.8104844759,0.785
 2615846,4.4227270681\N,0,-2.9614240259,2.102932129,0.073621372\C,0,-2.
 1805361614,0.9700286647,0.7276595194\H,0,-2.2481956959,1.0382835719,1.
 812087115\C,0,-0.7304976267,1.1878662151,0.2534106053\C,0,-2.785324101
 9,-0.3223019186,0.1391072103\H,0,-2.0242625738,-1.0986871366,0.0277085
 83\H,0,-3.5778456203,-0.6843062005,0.798279942\O,0,-0.5078308265,1.970
 0418492,-0.674484089\C,0,-3.3660903723,0.1308737992,-1.2096243856\H,0,
 -2.5695198603,0.2422133669,-1.9528187789\H,0,-4.1131992613,-0.56157498
 04,-1.6046245606\C,0,-3.9841345042,1.4882651865,-0.8818586404\H,0,-4.9
 159800435,1.384264041,-0.3285672608\H,0,-4.1038781486,2.1669501818,-1.
 7279151956\N,0,0.2039722631,0.4504397934,0.865655126\H,0,-0.0695390412
 ,-0.1766399181,1.61115096\C,0,1.5689775852,0.3575942619,0.3531089003\H
 ,0,1.9141657626,1.367202466,0.1147962942\C,0,1.6336148982,-0.431553547
 5,-0.9563117187\C,0,2.4813556906,-0.2670081321,1.428151831\H,0,2.17579
 59425,-1.310025957,1.5965733938\H,0,2.2906810075,0.2763364909,2.363532
 367\O,0,2.5546580952,-0.3651729741,-1.7307693588\C,0,3.9774968196,-0.1
 991574772,1.1039682038\H,0,4.1847317128,-0.7459155593,0.1768097087\H,0
 ,4.2498494433,0.8481019,0.9217632079\C,0,4.8344354863,-0.753311434,2.2
 480740379\H,0,4.5548563775,-1.7982160193,2.4459653097\H,0,4.634406249,
 -0.1803907974,3.1632779558\C,0,6.3387673023,-0.6867473934,1.9574925076
 \H,0,6.8760440456,-1.0897222721,2.8233388241\H,0,6.5725053517,-1.35032
 74899,1.1053110849\N,0,6.7743905525,0.7029819402,1.7627450595\H,0,6.59
 84495467,0.9936335725,0.8028611049\H,0,7.7819759388,0.7707919245,1.889
 0092979\O,0,0.5643978384,-1.2535234128,-1.1291052794\H,0,0.7253630433,
 -1.7347890067,-1.9637617783\H,0,-2.218782204,2.5608795889,-0.508647847
 \\Version=ES64L-G16RevC.01\HF=-1300.5736915\RMSD=9.896e-09\Dipole=-3.9
 97543,-1.0157672,0.3660229\Quadrupole=33.1521871,-22.139197,-11.012990
 1,-20.3161367,-10.6723235,7.8255964\PG=C01 [X(C20H31N4O4)]\\@
 The archive entry for this job was punched.


 Any fool can criticize, condemn, and complain -- and most do.
 -- Dale Carnegie
 Job cpu time:       0 days  0 hours  1 minutes 15.3 seconds.
 Elapsed time:       0 days  0 hours  0 minutes 20.5 seconds.
 File lengths (MBytes):  RWF=    240 Int=      0 D2E=      0 Chk=     32 Scr=     16
 Normal termination of Gaussian 16 at Thu Jun  2 03:15:11 2022.
