 Entering Gaussian System, Link 0=/opt/software/Gaussian/g16-AVX2-C.01/g16/g16
 Input=charge-conf-234.com
 Output=charge-conf-234.log
 Initial command:
 /opt/software/Gaussian/g16-AVX2-C.01/g16/l1.exe "/mnt/gs18/scratch/users/kengmith/Gau-5835.inp" -scrdir="/mnt/gs18/scratch/users/kengmith/"
 Entering Link 1 = /opt/software/Gaussian/g16-AVX2-C.01/g16/l1.exe PID=      5845.
  
 Copyright (c) 1988-2019, Gaussian, Inc.  All Rights Reserved.
  
 This is part of the Gaussian(R) 16 program.  It is based on
 the Gaussian(R) 09 system (copyright 2009, Gaussian, Inc.),
 the Gaussian(R) 03 system (copyright 2003, Gaussian, Inc.),
 the Gaussian(R) 98 system (copyright 1998, Gaussian, Inc.),
 the Gaussian(R) 94 system (copyright 1995, Gaussian, Inc.),
 the Gaussian 92(TM) system (copyright 1992, Gaussian, Inc.),
 the Gaussian 90(TM) system (copyright 1990, Gaussian, Inc.),
 the Gaussian 88(TM) system (copyright 1988, Gaussian, Inc.),
 the Gaussian 86(TM) system (copyright 1986, Carnegie Mellon
 University), and the Gaussian 82(TM) system (copyright 1983,
 Carnegie Mellon University). Gaussian is a federally registered
 trademark of Gaussian, Inc.
  
 This software contains proprietary and confidential information,
 including trade secrets, belonging to Gaussian, Inc.
  
 This software is provided under written license and may be
 used, copied, transmitted, or stored only in accord with that
 written license.
  
 The following legend is applicable only to US Government
 contracts under FAR:
  
                    RESTRICTED RIGHTS LEGEND
  
 Use, reproduction and disclosure by the US Government is
 subject to restrictions as set forth in subparagraphs (a)
 and (c) of the Commercial Computer Software - Restricted
 Rights clause in FAR 52.227-19.
  
 Gaussian, Inc.
 340 Quinnipiac St., Bldg. 40, Wallingford CT 06492
  
  
 ---------------------------------------------------------------
 Warning -- This program may not be used in any manner that
 competes with the business of Gaussian, Inc. or will provide
 assistance to any competitor of Gaussian, Inc.  The licensee
 of this program is prohibited from giving any competitor of
 Gaussian, Inc. access to this program.  By using this program,
 the user acknowledges that Gaussian, Inc. is engaged in the
 business of creating and licensing software in the field of
 computational chemistry and represents and warrants to the
 licensee that it is not a competitor of Gaussian, Inc. and that
 it will not use this program in any manner prohibited above.
 ---------------------------------------------------------------
  

 Cite this work as:
 Gaussian 16, Revision C.01,
 M. J. Frisch, G. W. Trucks, H. B. Schlegel, G. E. Scuseria, 
 M. A. Robb, J. R. Cheeseman, G. Scalmani, V. Barone, 
 G. A. Petersson, H. Nakatsuji, X. Li, M. Caricato, A. V. Marenich, 
 J. Bloino, B. G. Janesko, R. Gomperts, B. Mennucci, H. P. Hratchian, 
 J. V. Ortiz, A. F. Izmaylov, J. L. Sonnenberg, D. Williams-Young, 
 F. Ding, F. Lipparini, F. Egidi, J. Goings, B. Peng, A. Petrone, 
 T. Henderson, D. Ranasinghe, V. G. Zakrzewski, J. Gao, N. Rega, 
 G. Zheng, W. Liang, M. Hada, M. Ehara, K. Toyota, R. Fukuda, 
 J. Hasegawa, M. Ishida, T. Nakajima, Y. Honda, O. Kitao, H. Nakai, 
 T. Vreven, K. Throssell, J. A. Montgomery, Jr., J. E. Peralta, 
 F. Ogliaro, M. J. Bearpark, J. J. Heyd, E. N. Brothers, K. N. Kudin, 
 V. N. Staroverov, T. A. Keith, R. Kobayashi, J. Normand, 
 K. Raghavachari, A. P. Rendell, J. C. Burant, S. S. Iyengar, 
 J. Tomasi, M. Cossi, J. M. Millam, M. Klene, C. Adamo, R. Cammi, 
 J. W. Ochterski, R. L. Martin, K. Morokuma, O. Farkas, 
 J. B. Foresman, and D. J. Fox, Gaussian, Inc., Wallingford CT, 2019.
 
 ******************************************
 Gaussian 16:  ES64L-G16RevC.01  3-Jul-2019
                26-May-2022 
 ******************************************
 %mem=8gb
 %nproc=4
 Will use up to    4 processors via shared memory.
 %chk=conf-234.chk
 -------------------------------------------------------------------
 # B3LYP/6-31G* guess=read geom=check nosymm integral(ultrafinegrid)
 -------------------------------------------------------------------
 1/29=2,38=1,172=1/1;
 2/12=2,15=1,40=1/2;
 3/5=1,6=6,7=1,11=2,14=-4,25=1,30=1,74=-5,75=-5,116=-2/1,2,3;
 4/5=1/1;
 5/5=2,38=6/2;
 6/7=2,8=2,9=2,10=2,28=1/1;
 99/5=1,9=1/99;
 ------------------------------------------------------
 Candidate Structure: Conf:234 Charge calc in gas phase
 ------------------------------------------------------
 Structure from the checkpoint file:  "conf-234.chk"
 Charge =  1 Multiplicity = 1
 Redundant internal coordinates found in file.  (old form).
 N,0,-1.982740876,-2.3612289293,3.6803090269
 H,0,-2.6391911297,-1.6077862222,3.9083152098
 H,0,-2.3832562198,-2.9272962538,2.8924075903
 H,0,-1.8359643766,-2.938076202,4.5141595421
 C,0,-0.6767475842,-1.8521524777,3.0764184793
 H,0,-0.4005368281,-0.9150092664,3.5635925258
 C,0,-1.0828497913,-1.6809006601,1.5854652634
 C,0,0.3820321739,-2.958195709,3.290200947
 H,0,0.3567948469,-3.23957665,4.3557922299
 H,0,0.0666833352,-3.8409932682,2.7213456335
 O,0,-1.8151650587,-2.5782301883,1.1356004797
 C,0,1.7661145863,-2.545700305,2.8884369191
 C,0,2.4722534587,-1.4884958659,3.4132059919
 H,0,2.1804405524,-0.7314244585,4.126549571
 C,0,2.6187152831,-3.1589124971,1.8983737392
 C,0,3.8299468396,-2.4065215291,1.8849313554
 C,0,2.4925073289,-4.2545765275,1.0278998798
 H,0,1.5875258901,-4.857389623,1.0181172529
 N,0,3.7125218397,-1.4121392272,2.8356314839
 H,0,4.2340997164,-0.5401623943,2.8700723129
 C,0,4.7347290052,-3.8089096615,0.1767194083
 H,0,5.55332919,-4.0962915295,-0.4782676348
 C,0,4.8934451328,-2.7223036618,1.0321403577
 H,0,5.8218728476,-2.1576879052,1.0620418724
 C,0,3.5454249836,-4.5669199458,0.174852779
 H,0,3.460488004,-5.4248208206,-0.4870812851
 N,0,-0.6558183164,-0.5635108063,1.0033522095
 H,0,-0.0198207865,0.049169665,1.569482225
 C,0,-0.7197811367,-0.1369647162,-0.425684441
 H,0,-1.1480583741,0.8739145854,-0.405318949
 C,0,0.7850526617,-0.0044355184,-0.7519951774
 C,0,-1.5597969428,-0.985599345,-1.3973997263
 H,0,-1.2729846647,-2.0336444982,-1.2725927651
 O,0,1.4319056471,-0.9226175254,-1.2691523103
 C,0,-1.2598551698,-0.6030783959,-2.8711912386
 H,0,-0.2326349381,-0.8961614887,-3.1095116439
 H,0,-1.910817254,-1.2261113123,-3.4974466907
 C,0,-3.0609953842,-0.8473066761,-1.090283924
 H,0,-3.3939551262,0.1951732253,-1.1587613872
 H,0,-3.6443182037,-1.4284628317,-1.8128031578
 H,0,-3.304561001,-1.2240894958,-0.0951483876
 C,0,-1.4682573014,0.8699226095,-3.2532606658
 H,0,-1.2878008652,1.0106541556,-4.3244420327
 H,0,-0.7790687186,1.5393256054,-2.7234757683
 H,0,-2.4886937479,1.211732981,-3.0498607705
 N,0,1.3350677859,1.1370108568,-0.2675168172
 H,0,0.6797189588,1.7303455965,0.2335847379
 C,0,2.6208635532,1.1161574695,0.4444098144
 H,0,3.0209994998,0.1039041854,0.3221864165
 C,0,2.3393676929,1.2519236946,1.9899521052
 C,0,3.6194217211,2.1347639991,-0.1111001139
 H,0,3.1577394574,3.1291448718,-0.1218107341
 H,0,4.4620199423,2.1890958841,0.5863815995
 O,0,1.1239185527,1.1254029734,2.3484141863
 C,0,4.0856110177,1.7770762933,-1.5336602089
 H,0,4.5786337087,2.6382290004,-2.0015326836
 H,0,3.2101326742,1.5403593313,-2.1515048748
 C,0,5.0517613931,0.583061021,-1.5316597736
 H,0,6.0360038652,0.8885495176,-1.1611592567
 H,0,4.7056759638,-0.2186532878,-0.8749497583
 N,0,5.262747103,-0.0236017332,-2.8571319955
 H,0,5.8477016945,0.4776465214,-3.5134959431
 N,0,3.6551148843,-1.7075654842,-2.6870252772
 H,0,3.447741589,-2.6858382626,-2.8347558415
 H,0,3.0021901968,-1.2109389773,-2.0584407731
 N,0,5.2283559091,-1.7584597066,-4.3844146518
 H,0,6.1748645749,-1.571355068,-4.6811085277
 H,0,4.7053133283,-2.454316283,-4.8952710721
 C,0,4.7006884034,-1.1571738547,-3.2946036713
 O,0,3.3473753625,1.3965424031,2.7018892354
 Recover connectivity data from disk.
                           ----------------------------
                           !    Current Parameters    !
                           ! (Angstroms and Degrees)  !
 --------------------------                            --------------------------
 ! Name  Definition              Value                                          !
 --------------------------------------------------------------------------------
 ! R1    R(1,2)                  1.025                                          !
 ! R2    R(1,3)                  1.0496                                         !
 ! R3    R(1,4)                  1.0245                                         !
 ! R4    R(1,5)                  1.5263                                         !
 ! R5    R(5,6)                  1.0917                                         !
 ! R6    R(5,7)                  1.5547                                         !
 ! R7    R(5,8)                  1.546                                          !
 ! R8    R(7,11)                 1.2425                                         !
 ! R9    R(7,27)                 1.3303                                         !
 ! R10   R(8,9)                  1.1024                                         !
 ! R11   R(8,10)                 1.0965                                         !
 ! R12   R(8,12)                 1.4991                                         !
 ! R13   R(12,13)                1.3754                                         !
 ! R14   R(12,15)                1.4433                                         !
 ! R15   R(13,14)                1.0804                                         !
 ! R16   R(13,19)                1.3703                                         !
 ! R17   R(15,16)                1.426                                          !
 ! R18   R(15,17)                1.405                                          !
 ! R19   R(16,19)                1.3807                                         !
 ! R20   R(16,23)                1.3993                                         !
 ! R21   R(17,18)                1.0874                                         !
 ! R22   R(17,25)                1.3906                                         !
 ! R23   R(19,20)                1.0166                                         !
 ! R24   R(21,22)                1.0871                                         !
 ! R25   R(21,23)                1.392                                          !
 ! R26   R(21,25)                1.4103                                         !
 ! R27   R(23,24)                1.087                                          !
 ! R28   R(25,26)                1.0869                                         !
 ! R29   R(27,28)                1.049                                          !
 ! R30   R(27,29)                1.4927                                         !
 ! R31   R(29,30)                1.098                                          !
 ! R32   R(29,31)                1.5455                                         !
 ! R33   R(29,32)                1.5395                                         !
 ! R34   R(31,34)                1.2365                                         !
 ! R35   R(31,46)                1.3565                                         !
 ! R36   R(32,33)                1.0937                                         !
 ! R37   R(32,35)                1.5519                                         !
 ! R38   R(32,38)                1.5385                                         !
 ! R39   R(35,36)                1.0945                                         !
 ! R40   R(35,37)                1.0973                                         !
 ! R41   R(35,42)                1.5359                                         !
 ! R42   R(38,39)                1.0965                                         !
 ! R43   R(38,40)                1.0955                                         !
 ! R44   R(38,41)                1.0916                                         !
 ! R45   R(42,43)                1.0954                                         !
 ! R46   R(42,44)                1.0972                                         !
 ! R47   R(42,45)                1.0952                                         !
 ! R48   R(46,47)                1.0162                                         !
 ! R49   R(46,48)                1.4699                                         !
 ! R50   R(48,49)                1.0953                                         !
 ! R51   R(48,50)                1.5768                                         !
 ! R52   R(48,51)                1.5308                                         !
 ! R53   R(50,54)                1.2735                                         !
 ! R54   R(50,70)                1.2425                                         !
 ! R55   R(51,52)                1.0964                                         !
 ! R56   R(51,53)                1.0952                                         !
 ! R57   R(51,55)                1.5391                                         !
 ! R58   R(55,56)                1.0971                                         !
 ! R59   R(55,57)                1.0974                                         !
 ! R60   R(55,58)                1.5359                                         !
 ! R61   R(58,59)                1.0951                                         !
 ! R62   R(58,60)                1.0926                                         !
 ! R63   R(58,61)                1.4729                                         !
 ! R64   R(61,62)                1.012                                          !
 ! R65   R(61,69)                1.3388                                         !
 ! R66   R(63,64)                1.0109                                         !
 ! R67   R(63,65)                1.0335                                         !
 ! R68   R(63,69)                1.3286                                         !
 ! R69   R(66,67)                1.0094                                         !
 ! R70   R(66,68)                1.0093                                         !
 ! R71   R(66,69)                1.3519                                         !
 ! A1    A(2,1,3)              108.6049                                         !
 ! A2    A(2,1,4)              108.9407                                         !
 ! A3    A(2,1,5)              113.0078                                         !
 ! A4    A(3,1,4)              111.2222                                         !
 ! A5    A(3,1,5)              102.0868                                         !
 ! A6    A(4,1,5)              112.7835                                         !
 ! A7    A(1,5,6)              109.041                                          !
 ! A8    A(1,5,7)              101.1085                                         !
 ! A9    A(1,5,8)              107.0185                                         !
 ! A10   A(6,5,7)              113.545                                          !
 ! A11   A(6,5,8)              112.2811                                         !
 ! A12   A(7,5,8)              112.9734                                         !
 ! A13   A(5,7,11)             114.936                                          !
 ! A14   A(5,7,27)             115.3593                                         !
 ! A15   A(11,7,27)            129.5945                                         !
 ! A16   A(5,8,9)              107.4934                                         !
 ! A17   A(5,8,10)             107.8958                                         !
 ! A18   A(5,8,12)             113.4782                                         !
 ! A19   A(9,8,10)             106.8208                                         !
 ! A20   A(9,8,12)             110.5135                                         !
 ! A21   A(10,8,12)            110.3664                                         !
 ! A22   A(8,12,13)            125.6813                                         !
 ! A23   A(8,12,15)            127.7588                                         !
 ! A24   A(13,12,15)           106.5597                                         !
 ! A25   A(12,13,14)           130.6847                                         !
 ! A26   A(12,13,19)           110.2861                                         !
 ! A27   A(14,13,19)           118.9299                                         !
 ! A28   A(12,15,16)           106.5027                                         !
 ! A29   A(12,15,17)           134.6866                                         !
 ! A30   A(16,15,17)           118.8107                                         !
 ! A31   A(15,16,19)           107.5338                                         !
 ! A32   A(15,16,23)           122.1578                                         !
 ! A33   A(19,16,23)           130.3007                                         !
 ! A34   A(15,17,18)           120.8385                                         !
 ! A35   A(15,17,25)           119.155                                          !
 ! A36   A(18,17,25)           120.0061                                         !
 ! A37   A(13,19,16)           109.0909                                         !
 ! A38   A(13,19,20)           119.8593                                         !
 ! A39   A(16,19,20)           126.6836                                         !
 ! A40   A(22,21,23)           119.3917                                         !
 ! A41   A(22,21,25)           119.4812                                         !
 ! A42   A(23,21,25)           121.0991                                         !
 ! A43   A(16,23,21)           117.6473                                         !
 ! A44   A(16,23,24)           121.0075                                         !
 ! A45   A(21,23,24)           121.3149                                         !
 ! A46   A(17,25,21)           121.1283                                         !
 ! A47   A(17,25,26)           119.4518                                         !
 ! A48   A(21,25,26)           119.4019                                         !
 ! A49   A(7,27,28)            116.6825                                         !
 ! A50   A(7,27,29)            130.1781                                         !
 ! A51   A(28,27,29)           112.0708                                         !
 ! A52   A(27,29,30)           105.1903                                         !
 ! A53   A(27,29,31)           100.656                                          !
 ! A54   A(27,29,32)           118.0427                                         !
 ! A55   A(30,29,31)           107.7427                                         !
 ! A56   A(30,29,32)           107.8405                                         !
 ! A57   A(31,29,32)           116.4419                                         !
 ! A58   A(29,31,34)           122.276                                          !
 ! A59   A(29,31,46)           113.0505                                         !
 ! A60   A(34,31,46)           124.2012                                         !
 ! A61   A(29,32,33)           108.2466                                         !
 ! A62   A(29,32,35)           110.9832                                         !
 ! A63   A(29,32,38)           110.9076                                         !
 ! A64   A(33,32,35)           107.0903                                         !
 ! A65   A(33,32,38)           108.6162                                         !
 ! A66   A(35,32,38)           110.855                                          !
 ! A67   A(32,35,36)           108.7951                                         !
 ! A68   A(32,35,37)           106.7016                                         !
 ! A69   A(32,35,42)           116.5126                                         !
 ! A70   A(36,35,37)           106.2877                                         !
 ! A71   A(36,35,42)           109.2681                                         !
 ! A72   A(37,35,42)           108.7869                                         !
 ! A73   A(32,38,39)           111.6714                                         !
 ! A74   A(32,38,40)           109.8907                                         !
 ! A75   A(32,38,41)           111.6335                                         !
 ! A76   A(39,38,40)           107.5472                                         !
 ! A77   A(39,38,41)           108.5021                                         !
 ! A78   A(40,38,41)           107.4182                                         !
 ! A79   A(35,42,43)           110.1283                                         !
 ! A80   A(35,42,44)           112.3197                                         !
 ! A81   A(35,42,45)           112.3043                                         !
 ! A82   A(43,42,44)           106.8782                                         !
 ! A83   A(43,42,45)           107.1587                                         !
 ! A84   A(44,42,45)           107.7687                                         !
 ! A85   A(31,46,47)           113.9503                                         !
 ! A86   A(31,46,48)           121.0461                                         !
 ! A87   A(47,46,48)           109.4867                                         !
 ! A88   A(46,48,49)           106.1785                                         !
 ! A89   A(46,48,50)           108.5027                                         !
 ! A90   A(46,48,51)           112.6699                                         !
 ! A91   A(49,48,50)           104.724                                          !
 ! A92   A(49,48,51)           109.6432                                         !
 ! A93   A(50,48,51)           114.5102                                         !
 ! A94   A(48,50,54)           115.9585                                         !
 ! A95   A(48,50,70)           115.2651                                         !
 ! A96   A(54,50,70)           128.65                                           !
 ! A97   A(48,51,52)           109.4125                                         !
 ! A98   A(48,51,53)           107.6845                                         !
 ! A99   A(48,51,55)           112.2315                                         !
 ! A100  A(52,51,53)           106.5712                                         !
 ! A101  A(52,51,55)           109.2257                                         !
 ! A102  A(53,51,55)           111.5384                                         !
 ! A103  A(51,55,56)           110.3572                                         !
 ! A104  A(51,55,57)           109.1998                                         !
 ! A105  A(51,55,58)           111.7145                                         !
 ! A106  A(56,55,57)           106.7227                                         !
 ! A107  A(56,55,58)           109.1525                                         !
 ! A108  A(57,55,58)           109.565                                          !
 ! A109  A(55,58,59)           110.4213                                         !
 ! A110  A(55,58,60)           111.836                                          !
 ! A111  A(55,58,61)           114.1498                                         !
 ! A112  A(59,58,60)           106.6197                                         !
 ! A113  A(59,58,61)           106.8942                                         !
 ! A114  A(60,58,61)           106.5013                                         !
 ! A115  A(58,61,62)           117.5442                                         !
 ! A116  A(58,61,69)           125.6394                                         !
 ! A117  A(62,61,69)           116.7504                                         !
 ! A118  A(64,63,65)           115.1083                                         !
 ! A119  A(64,63,69)           119.7028                                         !
 ! A120  A(65,63,69)           125.1869                                         !
 ! A121  A(67,66,68)           117.706                                          !
 ! A122  A(67,66,69)           121.3651                                         !
 ! A123  A(68,66,69)           120.8221                                         !
 ! A124  A(61,69,63)           122.1214                                         !
 ! A125  A(61,69,66)           118.4345                                         !
 ! A126  A(63,69,66)           119.4421                                         !
 ! D1    D(2,1,5,6)             36.9064                                         !
 ! D2    D(2,1,5,7)            -82.9894                                         !
 ! D3    D(2,1,5,8)            158.5816                                         !
 ! D4    D(3,1,5,6)            153.3556                                         !
 ! D5    D(3,1,5,7)             33.4597                                         !
 ! D6    D(3,1,5,8)            -84.9693                                         !
 ! D7    D(4,1,5,6)            -87.2076                                         !
 ! D8    D(4,1,5,7)            152.8966                                         !
 ! D9    D(4,1,5,8)             34.4676                                         !
 ! D10   D(1,5,7,11)           -39.8436                                         !
 ! D11   D(1,5,7,27)           136.7114                                         !
 ! D12   D(6,5,7,11)          -156.4734                                         !
 ! D13   D(6,5,7,27)            20.0815                                         !
 ! D14   D(8,5,7,11)            74.1855                                         !
 ! D15   D(8,5,7,27)          -109.2596                                         !
 ! D16   D(1,5,8,9)            -50.9009                                         !
 ! D17   D(1,5,8,10)            63.9722                                         !
 ! D18   D(1,5,8,12)          -173.4132                                         !
 ! D19   D(6,5,8,9)             68.7116                                         !
 ! D20   D(6,5,8,10)          -176.4153                                         !
 ! D21   D(6,5,8,12)           -53.8007                                         !
 ! D22   D(7,5,8,9)           -161.303                                          !
 ! D23   D(7,5,8,10)           -46.4299                                         !
 ! D24   D(7,5,8,12)            76.1847                                         !
 ! D25   D(5,7,27,28)            5.337                                          !
 ! D26   D(5,7,27,29)          172.4418                                         !
 ! D27   D(11,7,27,28)        -178.7179                                         !
 ! D28   D(11,7,27,29)         -11.6131                                         !
 ! D29   D(5,8,12,13)           59.5183                                         !
 ! D30   D(5,8,12,15)         -120.6533                                         !
 ! D31   D(9,8,12,13)          -61.3077                                         !
 ! D32   D(9,8,12,15)          118.5207                                         !
 ! D33   D(10,8,12,13)        -179.2427                                         !
 ! D34   D(10,8,12,15)           0.5857                                         !
 ! D35   D(8,12,13,14)          -4.8395                                         !
 ! D36   D(8,12,13,19)         178.902                                          !
 ! D37   D(15,12,13,14)        175.3021                                         !
 ! D38   D(15,12,13,19)         -0.9564                                         !
 ! D39   D(8,12,15,16)        -179.9109                                         !
 ! D40   D(8,12,15,17)           0.0494                                         !
 ! D41   D(13,12,15,16)         -0.0563                                         !
 ! D42   D(13,12,15,17)        179.904                                          !
 ! D43   D(12,13,19,16)          1.6435                                         !
 ! D44   D(12,13,19,20)        159.7104                                         !
 ! D45   D(14,13,19,16)       -175.1154                                         !
 ! D46   D(14,13,19,20)        -17.0484                                         !
 ! D47   D(12,15,16,19)          1.0252                                         !
 ! D48   D(12,15,16,23)       -179.8918                                         !
 ! D49   D(17,15,16,19)       -178.9425                                         !
 ! D50   D(17,15,16,23)          0.1404                                         !
 ! D51   D(12,15,17,18)         -0.6035                                         !
 ! D52   D(12,15,17,25)        179.61                                           !
 ! D53   D(16,15,17,18)        179.353                                          !
 ! D54   D(16,15,17,25)         -0.4334                                         !
 ! D55   D(15,16,19,13)         -1.6325                                         !
 ! D56   D(15,16,19,20)       -157.8078                                         !
 ! D57   D(23,16,19,13)        179.3855                                         !
 ! D58   D(23,16,19,20)         23.2102                                         !
 ! D59   D(15,16,23,21)          0.2015                                         !
 ! D60   D(15,16,23,24)       -177.8196                                         !
 ! D61   D(19,16,23,21)        179.0549                                         !
 ! D62   D(19,16,23,24)          1.0337                                         !
 ! D63   D(15,17,25,21)          0.3923                                         !
 ! D64   D(15,17,25,26)        178.842                                          !
 ! D65   D(18,17,25,21)       -179.396                                          !
 ! D66   D(18,17,25,26)         -0.9463                                         !
 ! D67   D(22,21,23,16)       -178.3156                                         !
 ! D68   D(22,21,23,24)         -0.3009                                         !
 ! D69   D(25,21,23,16)         -0.2512                                         !
 ! D70   D(25,21,23,24)        177.7635                                         !
 ! D71   D(22,21,25,17)        178.0197                                         !
 ! D72   D(22,21,25,26)         -0.4308                                         !
 ! D73   D(23,21,25,17)         -0.043                                          !
 ! D74   D(23,21,25,26)       -178.4935                                         !
 ! D75   D(7,27,29,30)         129.6896                                         !
 ! D76   D(7,27,29,31)        -118.4465                                         !
 ! D77   D(7,27,29,32)           9.4038                                         !
 ! D78   D(28,27,29,30)        -62.7359                                         !
 ! D79   D(28,27,29,31)         49.128                                          !
 ! D80   D(28,27,29,32)        176.9783                                         !
 ! D81   D(27,29,31,34)         94.6288                                         !
 ! D82   D(27,29,31,46)        -77.7908                                         !
 ! D83   D(30,29,31,34)       -155.4857                                         !
 ! D84   D(30,29,31,46)         32.0947                                         !
 ! D85   D(32,29,31,34)        -34.2625                                         !
 ! D86   D(32,29,31,46)        153.3179                                         !
 ! D87   D(27,29,32,33)        -49.7583                                         !
 ! D88   D(27,29,32,35)       -167.0074                                         !
 ! D89   D(27,29,32,38)         69.3042                                         !
 ! D90   D(30,29,32,33)       -168.6603                                         !
 ! D91   D(30,29,32,35)         74.0906                                         !
 ! D92   D(30,29,32,38)        -49.5978                                         !
 ! D93   D(31,29,32,33)         70.1682                                         !
 ! D94   D(31,29,32,35)        -47.0808                                         !
 ! D95   D(31,29,32,38)       -170.7692                                         !
 ! D96   D(29,31,46,47)         -0.033                                          !
 ! D97   D(29,31,46,48)        133.8692                                         !
 ! D98   D(34,31,46,47)       -172.2827                                         !
 ! D99   D(34,31,46,48)        -38.3805                                         !
 ! D100  D(29,32,35,36)         67.2065                                         !
 ! D101  D(29,32,35,37)       -178.4994                                         !
 ! D102  D(29,32,35,42)        -56.8023                                         !
 ! D103  D(33,32,35,36)        -50.747                                          !
 ! D104  D(33,32,35,37)         63.5471                                         !
 ! D105  D(33,32,35,42)       -174.7558                                         !
 ! D106  D(38,32,35,36)       -169.075                                          !
 ! D107  D(38,32,35,37)        -54.7808                                         !
 ! D108  D(38,32,35,42)         66.9163                                         !
 ! D109  D(29,32,38,39)         58.7192                                         !
 ! D110  D(29,32,38,40)        177.9794                                         !
 ! D111  D(29,32,38,41)        -62.9457                                         !
 ! D112  D(33,32,38,39)        177.559                                          !
 ! D113  D(33,32,38,40)        -63.1807                                         !
 ! D114  D(33,32,38,41)         55.8942                                         !
 ! D115  D(35,32,38,39)        -65.0427                                         !
 ! D116  D(35,32,38,40)         54.2175                                         !
 ! D117  D(35,32,38,41)        173.2925                                         !
 ! D118  D(32,35,42,43)       -176.4998                                         !
 ! D119  D(32,35,42,44)         64.5053                                         !
 ! D120  D(32,35,42,45)        -57.1614                                         !
 ! D121  D(36,35,42,43)         59.7344                                         !
 ! D122  D(36,35,42,44)        -59.2605                                         !
 ! D123  D(36,35,42,45)        179.0728                                         !
 ! D124  D(37,35,42,43)        -55.9071                                         !
 ! D125  D(37,35,42,44)       -174.9019                                         !
 ! D126  D(37,35,42,45)         63.4314                                         !
 ! D127  D(31,46,48,49)          8.828                                          !
 ! D128  D(31,46,48,50)       -103.2679                                         !
 ! D129  D(31,46,48,51)        128.8617                                         !
 ! D130  D(47,46,48,49)        144.5214                                         !
 ! D131  D(47,46,48,50)         32.4256                                         !
 ! D132  D(47,46,48,51)        -95.4448                                         !
 ! D133  D(46,48,50,54)         11.318                                          !
 ! D134  D(46,48,50,70)       -172.4104                                         !
 ! D135  D(49,48,50,54)       -101.7447                                         !
 ! D136  D(49,48,50,70)         74.5269                                         !
 ! D137  D(51,48,50,54)        138.135                                          !
 ! D138  D(51,48,50,70)        -45.5934                                         !
 ! D139  D(46,48,51,52)         53.7948                                         !
 ! D140  D(46,48,51,53)        169.2469                                         !
 ! D141  D(46,48,51,55)        -67.619                                          !
 ! D142  D(49,48,51,52)        171.81                                           !
 ! D143  D(49,48,51,53)        -72.7378                                         !
 ! D144  D(49,48,51,55)         50.3963                                         !
 ! D145  D(50,48,51,52)        -70.8457                                         !
 ! D146  D(50,48,51,53)         44.6064                                         !
 ! D147  D(50,48,51,55)        167.7405                                         !
 ! D148  D(48,51,55,56)        165.0899                                         !
 ! D149  D(48,51,55,57)         48.0768                                         !
 ! D150  D(48,51,55,58)        -73.28                                           !
 ! D151  D(52,51,55,56)         43.5692                                         !
 ! D152  D(52,51,55,57)        -73.4439                                         !
 ! D153  D(52,51,55,58)        165.1993                                         !
 ! D154  D(53,51,55,56)        -73.9709                                         !
 ! D155  D(53,51,55,57)        169.016                                          !
 ! D156  D(53,51,55,58)         47.6592                                         !
 ! D157  D(51,55,58,59)        -74.3825                                         !
 ! D158  D(51,55,58,60)         44.1708                                         !
 ! D159  D(51,55,58,61)        165.1683                                         !
 ! D160  D(56,55,58,59)         47.9406                                         !
 ! D161  D(56,55,58,60)        166.494                                          !
 ! D162  D(56,55,58,61)        -72.5085                                         !
 ! D163  D(57,55,58,59)        164.4725                                         !
 ! D164  D(57,55,58,60)        -76.9742                                         !
 ! D165  D(57,55,58,61)         44.0233                                         !
 ! D166  D(55,58,61,62)         74.8468                                         !
 ! D167  D(55,58,61,69)       -102.0909                                         !
 ! D168  D(59,58,61,62)        -47.5521                                         !
 ! D169  D(59,58,61,69)        135.5102                                         !
 ! D170  D(60,58,61,62)       -161.2384                                         !
 ! D171  D(60,58,61,69)         21.8239                                         !
 ! D172  D(58,61,69,63)         15.4431                                         !
 ! D173  D(58,61,69,66)       -164.0354                                         !
 ! D174  D(62,61,69,63)       -161.5163                                         !
 ! D175  D(62,61,69,66)         19.0052                                         !
 ! D176  D(64,63,69,61)       -159.6773                                         !
 ! D177  D(64,63,69,66)         19.7961                                         !
 ! D178  D(65,63,69,61)         20.8605                                         !
 ! D179  D(65,63,69,66)       -159.6661                                         !
 ! D180  D(67,66,69,61)         20.6956                                         !
 ! D181  D(67,66,69,63)       -158.7972                                         !
 ! D182  D(68,66,69,61)       -163.1482                                         !
 ! D183  D(68,66,69,63)         17.3589                                         !
 --------------------------------------------------------------------------------
 Symmetry turned off by external request.
 Stoichiometry    C23H36N7O4(1+)
 Framework group  C1[X(C23H36N7O4)]
 Deg. of freedom   204
 Full point group                 C1      NOp   1
                          Input orientation:                          
 ---------------------------------------------------------------------
 Center     Atomic      Atomic             Coordinates (Angstroms)
 Number     Number       Type             X           Y           Z
 ---------------------------------------------------------------------
      1          7           0       -1.982741   -2.361229    3.680309
      2          1           0       -2.639191   -1.607786    3.908315
      3          1           0       -2.383256   -2.927296    2.892408
      4          1           0       -1.835964   -2.938076    4.514160
      5          6           0       -0.676748   -1.852152    3.076418
      6          1           0       -0.400537   -0.915009    3.563593
      7          6           0       -1.082850   -1.680901    1.585465
      8          6           0        0.382032   -2.958196    3.290201
      9          1           0        0.356795   -3.239577    4.355792
     10          1           0        0.066683   -3.840993    2.721346
     11          8           0       -1.815165   -2.578230    1.135600
     12          6           0        1.766115   -2.545700    2.888437
     13          6           0        2.472253   -1.488496    3.413206
     14          1           0        2.180441   -0.731424    4.126550
     15          6           0        2.618715   -3.158912    1.898374
     16          6           0        3.829947   -2.406522    1.884931
     17          6           0        2.492507   -4.254577    1.027900
     18          1           0        1.587526   -4.857390    1.018117
     19          7           0        3.712522   -1.412139    2.835631
     20          1           0        4.234100   -0.540162    2.870072
     21          6           0        4.734729   -3.808910    0.176719
     22          1           0        5.553329   -4.096292   -0.478268
     23          6           0        4.893445   -2.722304    1.032140
     24          1           0        5.821873   -2.157688    1.062042
     25          6           0        3.545425   -4.566920    0.174853
     26          1           0        3.460488   -5.424821   -0.487081
     27          7           0       -0.655818   -0.563511    1.003352
     28          1           0       -0.019821    0.049170    1.569482
     29          6           0       -0.719781   -0.136965   -0.425684
     30          1           0       -1.148058    0.873915   -0.405319
     31          6           0        0.785053   -0.004436   -0.751995
     32          6           0       -1.559797   -0.985599   -1.397400
     33          1           0       -1.272985   -2.033644   -1.272593
     34          8           0        1.431906   -0.922618   -1.269152
     35          6           0       -1.259855   -0.603078   -2.871191
     36          1           0       -0.232635   -0.896161   -3.109512
     37          1           0       -1.910817   -1.226111   -3.497447
     38          6           0       -3.060995   -0.847307   -1.090284
     39          1           0       -3.393955    0.195173   -1.158761
     40          1           0       -3.644318   -1.428463   -1.812803
     41          1           0       -3.304561   -1.224089   -0.095148
     42          6           0       -1.468257    0.869923   -3.253261
     43          1           0       -1.287801    1.010654   -4.324442
     44          1           0       -0.779069    1.539326   -2.723476
     45          1           0       -2.488694    1.211733   -3.049861
     46          7           0        1.335068    1.137011   -0.267517
     47          1           0        0.679719    1.730346    0.233585
     48          6           0        2.620864    1.116157    0.444410
     49          1           0        3.020999    0.103904    0.322186
     50          6           0        2.339368    1.251924    1.989952
     51          6           0        3.619422    2.134764   -0.111100
     52          1           0        3.157739    3.129145   -0.121811
     53          1           0        4.462020    2.189096    0.586382
     54          8           0        1.123919    1.125403    2.348414
     55          6           0        4.085611    1.777076   -1.533660
     56          1           0        4.578634    2.638229   -2.001533
     57          1           0        3.210133    1.540359   -2.151505
     58          6           0        5.051761    0.583061   -1.531660
     59          1           0        6.036004    0.888550   -1.161159
     60          1           0        4.705676   -0.218653   -0.874950
     61          7           0        5.262747   -0.023602   -2.857132
     62          1           0        5.847702    0.477647   -3.513496
     63          7           0        3.655115   -1.707565   -2.687025
     64          1           0        3.447742   -2.685838   -2.834756
     65          1           0        3.002190   -1.210939   -2.058441
     66          7           0        5.228356   -1.758460   -4.384415
     67          1           0        6.174865   -1.571355   -4.681109
     68          1           0        4.705313   -2.454316   -4.895271
     69          6           0        4.700688   -1.157174   -3.294604
     70          8           0        3.347375    1.396542    2.701889
 ---------------------------------------------------------------------
 Rotational constants (GHZ):           0.1420426           0.1099116           0.0910648
 Standard basis: 6-31G(d) (6D, 7F)
   582 basis functions,  1096 primitive gaussians,   582 cartesian basis functions
   127 alpha electrons      127 beta electrons
       nuclear repulsion energy      4035.8719321236 Hartrees.
 NAtoms=   70 NActive=   70 NUniq=   70 SFac= 1.00D+00 NAtFMM=   60 NAOKFM=T Big=T
 Integral buffers will be    131072 words long.
 Raffenetti 2 integral format.
 Two-electron integral symmetry is turned off.
 One-electron integrals computed using PRISM.
 NBasis=   582 RedAO= T EigKep=  3.67D-04  NBF=   582
 NBsUse=   582 1.00D-06 EigRej= -1.00D+00 NBFU=   582
 Initial guess from the checkpoint file:  "conf-234.chk"
 B after Tr=     0.000000    0.000000    0.000000
         Rot=    1.000000    0.000000    0.000000    0.000000 Ang=   0.00 deg.
 Requested convergence on RMS density matrix=1.00D-08 within 128 cycles.
 Requested convergence on MAX density matrix=1.00D-06.
 Requested convergence on             energy=1.00D-06.
 No special actions if energy rises.
 SCF Done:  E(RB3LYP) =  -1582.12732117     A.U. after    1 cycles
            NFock=  1  Conv=0.53D-08     -V/T= 2.0095

 **********************************************************************

            Population analysis using the SCF Density.

 **********************************************************************

 Alpha  occ. eigenvalues --  -19.23551 -19.22556 -19.16019 -19.14817 -14.58704
 Alpha  occ. eigenvalues --  -14.51025 -14.51011 -14.49101 -14.46715 -14.44407
 Alpha  occ. eigenvalues --  -14.44368 -10.46905 -10.40782 -10.38694 -10.37883
 Alpha  occ. eigenvalues --  -10.34047 -10.33639 -10.33243 -10.31544 -10.29651
 Alpha  occ. eigenvalues --  -10.29337 -10.29147 -10.28358 -10.27401 -10.26640
 Alpha  occ. eigenvalues --  -10.26565 -10.26484 -10.26378 -10.26301 -10.26284
 Alpha  occ. eigenvalues --  -10.25840 -10.25652 -10.24905 -10.24650  -1.16234
 Alpha  occ. eigenvalues --   -1.15251  -1.13658  -1.11899  -1.08630  -1.05054
 Alpha  occ. eigenvalues --   -1.04742  -1.03597  -1.02936  -1.01222  -0.99694
 Alpha  occ. eigenvalues --   -0.91902  -0.91189  -0.89763  -0.89121  -0.85486
 Alpha  occ. eigenvalues --   -0.84017  -0.82021  -0.80983  -0.79893  -0.79437
 Alpha  occ. eigenvalues --   -0.77923  -0.76863  -0.75194  -0.72504  -0.72163
 Alpha  occ. eigenvalues --   -0.71884  -0.71543  -0.69986  -0.69644  -0.68724
 Alpha  occ. eigenvalues --   -0.68265  -0.66975  -0.66634  -0.64592  -0.64431
 Alpha  occ. eigenvalues --   -0.63407  -0.63323  -0.62816  -0.61201  -0.60688
 Alpha  occ. eigenvalues --   -0.59723  -0.59240  -0.59058  -0.57996  -0.56301
 Alpha  occ. eigenvalues --   -0.55918  -0.55677  -0.54814  -0.54195  -0.53923
 Alpha  occ. eigenvalues --   -0.53518  -0.52616  -0.51897  -0.51529  -0.51303
 Alpha  occ. eigenvalues --   -0.50976  -0.50596  -0.49841  -0.49329  -0.49013
 Alpha  occ. eigenvalues --   -0.48666  -0.48547  -0.48438  -0.47602  -0.47240
 Alpha  occ. eigenvalues --   -0.46113  -0.45866  -0.45651  -0.45477  -0.45019
 Alpha  occ. eigenvalues --   -0.44772  -0.43844  -0.43220  -0.43057  -0.41831
 Alpha  occ. eigenvalues --   -0.41612  -0.41226  -0.41046  -0.40447  -0.40262
 Alpha  occ. eigenvalues --   -0.39821  -0.39076  -0.38305  -0.37456  -0.36148
 Alpha  occ. eigenvalues --   -0.35280  -0.34450  -0.31413  -0.30599  -0.29711
 Alpha  occ. eigenvalues --   -0.28697  -0.27863
 Alpha virt. eigenvalues --   -0.11460  -0.11068  -0.09384  -0.08834  -0.07554
 Alpha virt. eigenvalues --   -0.07099  -0.05298  -0.05075  -0.03239  -0.02948
 Alpha virt. eigenvalues --   -0.02209  -0.01446  -0.00430  -0.00228   0.00464
 Alpha virt. eigenvalues --    0.01098   0.01738   0.02108   0.02268   0.02567
 Alpha virt. eigenvalues --    0.03517   0.03626   0.04595   0.04806   0.05219
 Alpha virt. eigenvalues --    0.05989   0.06519   0.06596   0.06717   0.07202
 Alpha virt. eigenvalues --    0.07644   0.07754   0.08218   0.09005   0.09156
 Alpha virt. eigenvalues --    0.09411   0.09757   0.09989   0.10500   0.10641
 Alpha virt. eigenvalues --    0.11062   0.11427   0.12026   0.12171   0.12512
 Alpha virt. eigenvalues --    0.12793   0.13167   0.13599   0.14158   0.14886
 Alpha virt. eigenvalues --    0.15414   0.15653   0.15805   0.16296   0.16722
 Alpha virt. eigenvalues --    0.16929   0.17670   0.18138   0.18862   0.19653
 Alpha virt. eigenvalues --    0.19790   0.20534   0.21260   0.22281   0.24054
 Alpha virt. eigenvalues --    0.24925   0.25670   0.26343   0.27054   0.27626
 Alpha virt. eigenvalues --    0.28231   0.31189   0.32723   0.33127   0.33745
 Alpha virt. eigenvalues --    0.36193   0.38087   0.38604   0.39057   0.39368
 Alpha virt. eigenvalues --    0.39900   0.40735   0.41685   0.42028   0.42242
 Alpha virt. eigenvalues --    0.42767   0.43247   0.43814   0.44299   0.44350
 Alpha virt. eigenvalues --    0.44981   0.45668   0.45957   0.46483   0.46849
 Alpha virt. eigenvalues --    0.47835   0.48293   0.48378   0.48643   0.49194
 Alpha virt. eigenvalues --    0.49454   0.50211   0.51374   0.51703   0.51891
 Alpha virt. eigenvalues --    0.52646   0.53055   0.53201   0.53265   0.53664
 Alpha virt. eigenvalues --    0.53879   0.54321   0.54567   0.54772   0.55182
 Alpha virt. eigenvalues --    0.55511   0.55950   0.56113   0.57279   0.57623
 Alpha virt. eigenvalues --    0.57767   0.58654   0.58868   0.59384   0.59907
 Alpha virt. eigenvalues --    0.60352   0.61424   0.61666   0.62114   0.62901
 Alpha virt. eigenvalues --    0.63364   0.64342   0.64771   0.65627   0.66180
 Alpha virt. eigenvalues --    0.66767   0.67639   0.67819   0.68126   0.68664
 Alpha virt. eigenvalues --    0.69537   0.70884   0.71025   0.71587   0.72765
 Alpha virt. eigenvalues --    0.73217   0.73721   0.73809   0.74357   0.74815
 Alpha virt. eigenvalues --    0.75358   0.75758   0.76368   0.76408   0.76772
 Alpha virt. eigenvalues --    0.77191   0.77281   0.77559   0.77809   0.78152
 Alpha virt. eigenvalues --    0.78622   0.79079   0.79450   0.79708   0.80483
 Alpha virt. eigenvalues --    0.81024   0.81567   0.81917   0.82349   0.82537
 Alpha virt. eigenvalues --    0.83262   0.83659   0.84228   0.84846   0.85022
 Alpha virt. eigenvalues --    0.85231   0.85886   0.86156   0.86824   0.87235
 Alpha virt. eigenvalues --    0.87975   0.88239   0.89218   0.89563   0.90015
 Alpha virt. eigenvalues --    0.90354   0.90990   0.91230   0.91955   0.92797
 Alpha virt. eigenvalues --    0.93597   0.93985   0.94282   0.94527   0.95223
 Alpha virt. eigenvalues --    0.95764   0.97545   0.98671   0.99266   0.99307
 Alpha virt. eigenvalues --    1.00890   1.01809   1.02461   1.02578   1.04706
 Alpha virt. eigenvalues --    1.04876   1.05423   1.07008   1.07726   1.08422
 Alpha virt. eigenvalues --    1.08654   1.10190   1.10420   1.10976   1.11794
 Alpha virt. eigenvalues --    1.12640   1.14732   1.15142   1.15680   1.16750
 Alpha virt. eigenvalues --    1.17040   1.17630   1.19017   1.19940   1.20661
 Alpha virt. eigenvalues --    1.21765   1.22671   1.24791   1.25259   1.26437
 Alpha virt. eigenvalues --    1.26757   1.27277   1.28973   1.31264   1.31827
 Alpha virt. eigenvalues --    1.32686   1.33003   1.33875   1.34710   1.35256
 Alpha virt. eigenvalues --    1.36691   1.37317   1.37864   1.38727   1.40362
 Alpha virt. eigenvalues --    1.40773   1.41638   1.42487   1.42780   1.43716
 Alpha virt. eigenvalues --    1.44783   1.46582   1.46892   1.47462   1.48285
 Alpha virt. eigenvalues --    1.49306   1.50489   1.51726   1.52614   1.53505
 Alpha virt. eigenvalues --    1.54413   1.54486   1.55015   1.56369   1.56984
 Alpha virt. eigenvalues --    1.57614   1.59623   1.59922   1.61608   1.62482
 Alpha virt. eigenvalues --    1.63449   1.63932   1.64770   1.66026   1.66560
 Alpha virt. eigenvalues --    1.67124   1.67599   1.67689   1.69661   1.70409
 Alpha virt. eigenvalues --    1.71422   1.71947   1.73400   1.74201   1.74621
 Alpha virt. eigenvalues --    1.75546   1.75795   1.76603   1.77184   1.77626
 Alpha virt. eigenvalues --    1.78294   1.79392   1.79835   1.80395   1.80817
 Alpha virt. eigenvalues --    1.81393   1.82138   1.83552   1.83736   1.84222
 Alpha virt. eigenvalues --    1.84552   1.85987   1.86353   1.86973   1.87128
 Alpha virt. eigenvalues --    1.87659   1.88370   1.89028   1.90237   1.90923
 Alpha virt. eigenvalues --    1.91284   1.92000   1.93049   1.93447   1.93554
 Alpha virt. eigenvalues --    1.94717   1.94997   1.95321   1.96774   1.96928
 Alpha virt. eigenvalues --    1.97832   1.98998   1.99353   1.99973   2.01506
 Alpha virt. eigenvalues --    2.02318   2.02621   2.03574   2.04038   2.04451
 Alpha virt. eigenvalues --    2.05174   2.06393   2.07009   2.07594   2.08427
 Alpha virt. eigenvalues --    2.09351   2.10241   2.11263   2.12305   2.12758
 Alpha virt. eigenvalues --    2.13758   2.14302   2.15167   2.17140   2.17594
 Alpha virt. eigenvalues --    2.17889   2.19002   2.19426   2.20525   2.22291
 Alpha virt. eigenvalues --    2.22399   2.22898   2.23380   2.24477   2.26081
 Alpha virt. eigenvalues --    2.26599   2.27774   2.28205   2.29927   2.31155
 Alpha virt. eigenvalues --    2.31932   2.33070   2.33838   2.34900   2.35647
 Alpha virt. eigenvalues --    2.35776   2.36050   2.37612   2.39496   2.40407
 Alpha virt. eigenvalues --    2.41443   2.42059   2.43296   2.43474   2.44057
 Alpha virt. eigenvalues --    2.45516   2.47607   2.49407   2.49562   2.50148
 Alpha virt. eigenvalues --    2.51015   2.52533   2.53013   2.54300   2.54930
 Alpha virt. eigenvalues --    2.56471   2.57219   2.58074   2.58596   2.58765
 Alpha virt. eigenvalues --    2.60483   2.61193   2.62388   2.62936   2.63683
 Alpha virt. eigenvalues --    2.67386   2.68021   2.69199   2.70327   2.73007
 Alpha virt. eigenvalues --    2.73860   2.75005   2.76853   2.78374   2.79486
 Alpha virt. eigenvalues --    2.86265   2.87721   2.89083   2.90441   2.90610
 Alpha virt. eigenvalues --    2.93910   2.94107   2.95331   2.97029   2.98035
 Alpha virt. eigenvalues --    3.02513   3.04049   3.10379   3.11200   3.18018
 Alpha virt. eigenvalues --    3.36349   3.65156   3.66152   3.81938   3.83856
 Alpha virt. eigenvalues --    3.86882   3.95121   4.00134   4.02244   4.02690
 Alpha virt. eigenvalues --    4.06420   4.07423   4.08277   4.11158   4.13233
 Alpha virt. eigenvalues --    4.15090   4.15926   4.19481   4.20207   4.24347
 Alpha virt. eigenvalues --    4.28545   4.30327   4.31191   4.34545   4.35496
 Alpha virt. eigenvalues --    4.36242   4.40623   4.43507   4.45477   4.46263
 Alpha virt. eigenvalues --    4.48501   4.54066   4.62008   4.68361   4.73514
          Condensed to atoms (all electrons):
 Mulliken charges:
               1
     1  N   -0.745851
     2  H    0.415967
     3  H    0.421469
     4  H    0.407183
     5  C   -0.122457
     6  H    0.232368
     7  C    0.657765
     8  C   -0.377278
     9  H    0.163872
    10  H    0.185488
    11  O   -0.556911
    12  C    0.050300
    13  C    0.008919
    14  H    0.186036
    15  C    0.091346
    16  C    0.296447
    17  C   -0.205429
    18  H    0.129159
    19  N   -0.669668
    20  H    0.364759
    21  C   -0.164199
    22  H    0.120703
    23  C   -0.177098
    24  H    0.133871
    25  C   -0.153346
    26  H    0.126284
    27  N   -0.657871
    28  H    0.417350
    29  C   -0.049916
    30  H    0.169557
    31  C    0.600722
    32  C   -0.075786
    33  H    0.165120
    34  O   -0.549150
    35  C   -0.276925
    36  H    0.147254
    37  H    0.144829
    38  C   -0.461798
    39  H    0.143764
    40  H    0.158017
    41  H    0.154928
    42  C   -0.461676
    43  H    0.157202
    44  H    0.137621
    45  H    0.159248
    46  N   -0.552989
    47  H    0.339738
    48  C   -0.122451
    49  H    0.166546
    50  C    0.634534
    51  C   -0.261116
    52  H    0.156756
    53  H    0.176559
    54  O   -0.630351
    55  C   -0.274634
    56  H    0.153118
    57  H    0.158681
    58  C   -0.179376
    59  H    0.187680
    60  H    0.195197
    61  N   -0.594174
    62  H    0.358138
    63  N   -0.769832
    64  H    0.368727
    65  H    0.433739
    66  N   -0.765413
    67  H    0.375683
    68  H    0.377821
    69  C    0.801271
    70  O   -0.576038
 Sum of Mulliken charges =   1.00000
 Mulliken charges with hydrogens summed into heavy atoms:
               1
     1  N    0.498768
     5  C    0.109911
     7  C    0.657765
     8  C   -0.027918
    11  O   -0.556911
    12  C    0.050300
    13  C    0.194954
    15  C    0.091346
    16  C    0.296447
    17  C   -0.076270
    19  N   -0.304909
    21  C   -0.043495
    23  C   -0.043227
    25  C   -0.027062
    27  N   -0.240521
    29  C    0.119641
    31  C    0.600722
    32  C    0.089334
    34  O   -0.549150
    35  C    0.015158
    38  C   -0.005089
    42  C   -0.007606
    46  N   -0.213251
    48  C    0.044095
    50  C    0.634534
    51  C    0.072199
    54  O   -0.630351
    55  C    0.037165
    58  C    0.203501
    61  N   -0.236036
    63  N    0.032633
    66  N   -0.011910
    69  C    0.801271
    70  O   -0.576038
 Electronic spatial extent (au):  <R**2>=          17497.6998
 Charge=              1.0000 electrons
 Dipole moment (field-independent basis, Debye):
    X=              7.8599    Y=             -8.9477    Z=             -4.6032  Tot=             12.7682
 Quadrupole moment (field-independent basis, Debye-Ang):
   XX=            -99.3014   YY=           -178.1615   ZZ=           -113.4666
   XY=             -4.6626   XZ=            -96.3445   YZ=            -15.7908
 Traceless Quadrupole moment (field-independent basis, Debye-Ang):
   XX=             31.0084   YY=            -47.8516   ZZ=             16.8432
   XY=             -4.6626   XZ=            -96.3445   YZ=            -15.7908
 Octapole moment (field-independent basis, Debye-Ang**2):
  XXX=           -535.6355  YYY=            538.6222  ZZZ=           -152.7233  XYY=           -341.2579
  XXY=            114.5887  XXZ=           -371.7439  XZZ=           -229.0053  YZZ=            -26.1366
  YYZ=            -54.8798  XYZ=            128.8615
 Hexadecapole moment (field-independent basis, Debye-Ang**3):
 XXXX=          -8091.6919 YYYY=          -5035.7790 ZZZZ=          -4577.1915 XXXY=            819.6383
 XXXZ=          -1895.2902 YYYX=           1093.5046 YYYZ=            753.7632 ZZZX=          -1312.3584
 ZZZY=            576.6639 XXYY=          -2592.1070 XXZZ=          -1354.2089 YYZZ=          -1484.2546
 XXYZ=            524.5869 YYXZ=           -409.7649 ZZXY=            170.7453
 N-N= 4.035871932124D+03 E-N=-1.172867062067D+04  KE= 1.567182148634D+03
 Unable to Open any file for archive entry.
 1\1\GINC-LAC-304\SP\RB3LYP\6-31G(d)\C23H36N7O4(1+)\KENGMITH\26-May-202
 2\0\\# B3LYP/6-31G* guess=read geom=check nosymm integral(ultrafinegri
 d)\\Candidate Structure: Conf:234 Charge calc in gas phase\\1,1\N,0,-1
 .982740876,-2.3612289293,3.6803090269\H,0,-2.6391911297,-1.6077862222,
 3.9083152098\H,0,-2.3832562198,-2.9272962538,2.8924075903\H,0,-1.83596
 43766,-2.938076202,4.5141595421\C,0,-0.6767475842,-1.8521524777,3.0764
 184793\H,0,-0.4005368281,-0.9150092664,3.5635925258\C,0,-1.0828497913,
 -1.6809006601,1.5854652634\C,0,0.3820321739,-2.958195709,3.290200947\H
 ,0,0.3567948469,-3.23957665,4.3557922299\H,0,0.0666833352,-3.840993268
 2,2.7213456335\O,0,-1.8151650587,-2.5782301883,1.1356004797\C,0,1.7661
 145863,-2.545700305,2.8884369191\C,0,2.4722534587,-1.4884958659,3.4132
 059919\H,0,2.1804405524,-0.7314244585,4.126549571\C,0,2.6187152831,-3.
 1589124971,1.8983737392\C,0,3.8299468396,-2.4065215291,1.8849313554\C,
 0,2.4925073289,-4.2545765275,1.0278998798\H,0,1.5875258901,-4.85738962
 3,1.0181172529\N,0,3.7125218397,-1.4121392272,2.8356314839\H,0,4.23409
 97164,-0.5401623943,2.8700723129\C,0,4.7347290052,-3.8089096615,0.1767
 194083\H,0,5.55332919,-4.0962915295,-0.4782676348\C,0,4.8934451328,-2.
 7223036618,1.0321403577\H,0,5.8218728476,-2.1576879052,1.0620418724\C,
 0,3.5454249836,-4.5669199458,0.174852779\H,0,3.460488004,-5.4248208206
 ,-0.4870812851\N,0,-0.6558183164,-0.5635108063,1.0033522095\H,0,-0.019
 8207865,0.049169665,1.569482225\C,0,-0.7197811367,-0.1369647162,-0.425
 684441\H,0,-1.1480583741,0.8739145854,-0.405318949\C,0,0.7850526617,-0
 .0044355184,-0.7519951774\C,0,-1.5597969428,-0.985599345,-1.3973997263
 \H,0,-1.2729846647,-2.0336444982,-1.2725927651\O,0,1.4319056471,-0.922
 6175254,-1.2691523103\C,0,-1.2598551698,-0.6030783959,-2.8711912386\H,
 0,-0.2326349381,-0.8961614887,-3.1095116439\H,0,-1.910817254,-1.226111
 3123,-3.4974466907\C,0,-3.0609953842,-0.8473066761,-1.090283924\H,0,-3
 .3939551262,0.1951732253,-1.1587613872\H,0,-3.6443182037,-1.4284628317
 ,-1.8128031578\H,0,-3.304561001,-1.2240894958,-0.0951483876\C,0,-1.468
 2573014,0.8699226095,-3.2532606658\H,0,-1.2878008652,1.0106541556,-4.3
 244420327\H,0,-0.7790687186,1.5393256054,-2.7234757683\H,0,-2.48869374
 79,1.211732981,-3.0498607705\N,0,1.3350677859,1.1370108568,-0.26751681
 72\H,0,0.6797189588,1.7303455965,0.2335847379\C,0,2.6208635532,1.11615
 74695,0.4444098144\H,0,3.0209994998,0.1039041854,0.3221864165\C,0,2.33
 93676929,1.2519236946,1.9899521052\C,0,3.6194217211,2.1347639991,-0.11
 11001139\H,0,3.1577394574,3.1291448718,-0.1218107341\H,0,4.4620199423,
 2.1890958841,0.5863815995\O,0,1.1239185527,1.1254029734,2.3484141863\C
 ,0,4.0856110177,1.7770762933,-1.5336602089\H,0,4.5786337087,2.63822900
 04,-2.0015326836\H,0,3.2101326742,1.5403593313,-2.1515048748\C,0,5.051
 7613931,0.583061021,-1.5316597736\H,0,6.0360038652,0.8885495176,-1.161
 1592567\H,0,4.7056759638,-0.2186532878,-0.8749497583\N,0,5.262747103,-
 0.0236017332,-2.8571319955\H,0,5.8477016945,0.4776465214,-3.5134959431
 \N,0,3.6551148843,-1.7075654842,-2.6870252772\H,0,3.447741589,-2.68583
 82626,-2.8347558415\H,0,3.0021901968,-1.2109389773,-2.0584407731\N,0,5
 .2283559091,-1.7584597066,-4.3844146518\H,0,6.1748645749,-1.571355068,
 -4.6811085277\H,0,4.7053133283,-2.454316283,-4.8952710721\C,0,4.700688
 4034,-1.1571738547,-3.2946036713\O,0,3.3473753625,1.3965424031,2.70188
 92354\\Version=ES64L-G16RevC.01\HF=-1582.1273212\RMSD=5.301e-09\Dipole
 =-0.159485,-1.667777,-2.1620368\Quadrupole=23.0539809,-35.5765209,12.5
 225399,-3.4665642,-71.6297411,-11.7401056\PG=C01 [X(C23H36N7O4)]\\@
 The archive entry for this job was punched.


 NOT WHAT WE DID SHALL BE THE TEST
 WHEN ACT AND WILL ARE DONE,
 BUT WHAT OUR LORD INFERS WE WOULD-
 HAD WE DIVINER BEEN.
           EMILY DICKINSON  POEMS NO. CLXXV
 Job cpu time:       0 days  0 hours  2 minutes  1.7 seconds.
 Elapsed time:       0 days  0 hours  0 minutes 31.0 seconds.
 File lengths (MBytes):  RWF=    296 Int=      0 D2E=      0 Chk=     40 Scr=     16
 Normal termination of Gaussian 16 at Thu May 26 00:18:24 2022.
