 Entering Gaussian System, Link 0=/opt/software/Gaussian/g16-AVX2-C.01/g16/g16
 Input=charge-conf-34.com
 Output=charge-conf-34.log
 Initial command:
 /opt/software/Gaussian/g16-AVX2-C.01/g16/l1.exe "/mnt/gs18/scratch/users/kengmith/Gau-56463.inp" -scrdir="/mnt/gs18/scratch/users/kengmith/"
 Entering Link 1 = /opt/software/Gaussian/g16-AVX2-C.01/g16/l1.exe PID=     56479.
  
 Copyright (c) 1988-2019, Gaussian, Inc.  All Rights Reserved.
  
 This is part of the Gaussian(R) 16 program.  It is based on
 the Gaussian(R) 09 system (copyright 2009, Gaussian, Inc.),
 the Gaussian(R) 03 system (copyright 2003, Gaussian, Inc.),
 the Gaussian(R) 98 system (copyright 1998, Gaussian, Inc.),
 the Gaussian(R) 94 system (copyright 1995, Gaussian, Inc.),
 the Gaussian 92(TM) system (copyright 1992, Gaussian, Inc.),
 the Gaussian 90(TM) system (copyright 1990, Gaussian, Inc.),
 the Gaussian 88(TM) system (copyright 1988, Gaussian, Inc.),
 the Gaussian 86(TM) system (copyright 1986, Carnegie Mellon
 University), and the Gaussian 82(TM) system (copyright 1983,
 Carnegie Mellon University). Gaussian is a federally registered
 trademark of Gaussian, Inc.
  
 This software contains proprietary and confidential information,
 including trade secrets, belonging to Gaussian, Inc.
  
 This software is provided under written license and may be
 used, copied, transmitted, or stored only in accord with that
 written license.
  
 The following legend is applicable only to US Government
 contracts under FAR:
  
                    RESTRICTED RIGHTS LEGEND
  
 Use, reproduction and disclosure by the US Government is
 subject to restrictions as set forth in subparagraphs (a)
 and (c) of the Commercial Computer Software - Restricted
 Rights clause in FAR 52.227-19.
  
 Gaussian, Inc.
 340 Quinnipiac St., Bldg. 40, Wallingford CT 06492
  
  
 ---------------------------------------------------------------
 Warning -- This program may not be used in any manner that
 competes with the business of Gaussian, Inc. or will provide
 assistance to any competitor of Gaussian, Inc.  The licensee
 of this program is prohibited from giving any competitor of
 Gaussian, Inc. access to this program.  By using this program,
 the user acknowledges that Gaussian, Inc. is engaged in the
 business of creating and licensing software in the field of
 computational chemistry and represents and warrants to the
 licensee that it is not a competitor of Gaussian, Inc. and that
 it will not use this program in any manner prohibited above.
 ---------------------------------------------------------------
  

 Cite this work as:
 Gaussian 16, Revision C.01,
 M. J. Frisch, G. W. Trucks, H. B. Schlegel, G. E. Scuseria, 
 M. A. Robb, J. R. Cheeseman, G. Scalmani, V. Barone, 
 G. A. Petersson, H. Nakatsuji, X. Li, M. Caricato, A. V. Marenich, 
 J. Bloino, B. G. Janesko, R. Gomperts, B. Mennucci, H. P. Hratchian, 
 J. V. Ortiz, A. F. Izmaylov, J. L. Sonnenberg, D. Williams-Young, 
 F. Ding, F. Lipparini, F. Egidi, J. Goings, B. Peng, A. Petrone, 
 T. Henderson, D. Ranasinghe, V. G. Zakrzewski, J. Gao, N. Rega, 
 G. Zheng, W. Liang, M. Hada, M. Ehara, K. Toyota, R. Fukuda, 
 J. Hasegawa, M. Ishida, T. Nakajima, Y. Honda, O. Kitao, H. Nakai, 
 T. Vreven, K. Throssell, J. A. Montgomery, Jr., J. E. Peralta, 
 F. Ogliaro, M. J. Bearpark, J. J. Heyd, E. N. Brothers, K. N. Kudin, 
 V. N. Staroverov, T. A. Keith, R. Kobayashi, J. Normand, 
 K. Raghavachari, A. P. Rendell, J. C. Burant, S. S. Iyengar, 
 J. Tomasi, M. Cossi, J. M. Millam, M. Klene, C. Adamo, R. Cammi, 
 J. W. Ochterski, R. L. Martin, K. Morokuma, O. Farkas, 
 J. B. Foresman, and D. J. Fox, Gaussian, Inc., Wallingford CT, 2019.
 
 ******************************************
 Gaussian 16:  ES64L-G16RevC.01  3-Jul-2019
                15-May-2022 
 ******************************************
 %mem=8gb
 %nproc=4
 Will use up to    4 processors via shared memory.
 %chk=conf-34.chk
 ----------------------------------------------------------------------
 # B3LYP/6-31G* empiricaldispersion=gd3 guess=read geom=check nosymm in
 tegral(ultrafinegrid)
 ----------------------------------------------------------------------
 1/29=2,38=1,172=1/1;
 2/12=2,15=1,40=1/2;
 3/5=1,6=6,7=1,11=2,14=-4,25=1,30=1,74=-5,75=-5,116=-2,124=31/1,2,3;
 4/5=1/1;
 5/5=2,38=6/2;
 6/7=2,8=2,9=2,10=2,28=1/1;
 99/5=1,9=1/99;
 -----------------------------------------------------
 Candidate Structure: Conf:34 Charge calc in gas phase
 -----------------------------------------------------
 Structure from the checkpoint file:  "conf-34.chk"
 Charge =  1 Multiplicity = 1
 Redundant internal coordinates found in file.  (old form).
 N,0,-6.2437190761,0.611617042,3.2642543633
 H,0,-6.72399293,1.2188780164,2.6026028716
 H,0,-6.3038491914,-0.3260476659,2.8664378955
 C,0,-4.8416387782,0.9841256502,3.3571215541
 H,0,-4.7881559296,2.0602995424,3.5771675133
 C,0,-4.0633215623,0.7081366173,2.0569707178
 C,0,-4.1551359674,0.2197479286,4.5111518563
 H,0,-4.2089978481,-0.855667373,4.2938188088
 H,0,-3.0922687635,0.4824646956,4.5517589861
 O,0,-4.4537010828,-0.0818241665,1.205909323
 C,0,-4.8142531941,0.5093702755,5.868607973
 H,0,-5.8684693448,0.2336587106,5.8482928661
 H,0,-4.7451470175,1.5836683478,6.0853315391
 C,0,-4.1476463745,-0.2409477564,6.9998753243
 O,0,-4.6797513245,-1.0325034071,7.7412155044
 O,0,-2.824532148,0.0784180429,7.0995666585
 N,0,-2.8617118604,1.3649073985,1.9224932986
 H,0,-2.596706158,2.0893410515,2.5753884364
 C,0,-2.0706245418,1.1547846576,0.7324622272
 H,0,-2.2473081189,0.1217062386,0.4156238386
 C,0,-0.605880866,1.3192962734,1.0292526224
 C,0,-2.512905511,2.0633437627,-0.4679505082
 H,0,-2.3041982809,3.1106479895,-0.2215671954
 H,0,-3.600040217,1.9467826646,-0.5039110816
 O,0,-0.2867099758,2.0269852513,2.0751923413
 C,0,-1.8928391572,1.6769497638,-1.7729857459
 C,0,-2.292135898,0.6338267263,-2.5815120104
 H,0,-3.1120572571,-0.0599584276,-2.4513029296
 C,0,-0.7635810756,2.2916120164,-2.4244778361
 C,0,-0.5438860723,1.5782394233,-3.6352960168
 C,0,0.0843958839,3.3671430181,-2.1036609447
 H,0,-0.0629320675,3.9318558667,-1.1851966799
 N,0,-1.4867765471,0.5747692045,-3.6946317745
 H,0,-1.5742829364,-0.1001212978,-4.4395933557
 C,0,1.2685392767,3.0124710604,-4.2046502523
 H,0,2.0428019802,3.3284542892,-4.8959423993
 C,0,0.4626674654,1.9308168225,-4.5385318911
 H,0,0.6003615846,1.3895385205,-5.4701567928
 C,0,1.0926705789,3.7169217356,-2.9934210374
 H,0,1.7560981632,4.5450443971,-2.7629077468
 N,0,0.2855160817,0.8058904722,0.2212306109
 H,0,-0.0290047032,0.2438194303,-0.5798268165
 C,0,1.7406204642,1.0413242862,0.1781213898
 H,0,1.9459956063,2.1141016591,0.2659935
 C,0,2.1543512578,0.5211796926,-1.2221742821
 C,0,2.441625248,0.2983201917,1.3376085575
 H,0,2.0202157687,-0.7143095603,1.3850726799
 O,0,1.448650348,-0.3210999167,-1.7775573454
 C,0,3.9581410322,0.2521143521,1.2726584858
 H,0,4.29817586,-0.3113956538,0.4003286362
 H,0,4.33887405,-0.2507143574,2.169061082
 H,0,4.3573544893,1.2682884217,1.2429072169
 O,0,2.0329964197,1.0469708824,2.5148151093
 H,0,0.6669578238,1.833473297,2.3601650764
 N,0,3.2852332894,1.0255606889,-1.7335099832
 H,0,3.8068592351,1.7381679756,-1.2159479917
 C,0,3.7912230337,0.53301579,-3.0133871536
 H,0,3.0103649286,0.6612387423,-3.7689938754
 C,0,4.1017599337,-0.9636931139,-2.9943862029
 C,0,5.0602790654,1.3029783166,-3.4346328317
 H,0,5.5293581138,0.7520893688,-4.2554149951
 H,0,5.7651545411,1.2689734075,-2.5938529674
 O,0,4.1021967759,-1.6473242992,-3.9875408009
 C,0,4.7679027491,2.7553770612,-3.8603059089
 H,0,4.5407260346,2.7846648566,-4.9324678149
 H,0,3.8713987906,3.1158451554,-3.3487869634
 C,0,5.9038342836,3.7481624078,-3.5636742318
 H,0,6.8225450756,3.4823215795,-4.0953376726
 H,0,5.6164881401,4.744668028,-3.9140506304
 N,0,6.2554186141,3.817091005,-2.1271415099
 H,0,6.946505714,3.1245115071,-1.8645706932
 N,0,4.2923520464,4.8718429274,-1.4536093762
 H,0,3.6642053242,5.0350536883,-0.6767409298
 H,0,4.6679306443,5.7236366868,-1.8523966987
 N,0,5.0339083674,3.0768615594,-0.1948270595
 H,0,5.759618945,2.3571238835,-0.1851209126
 C,0,5.2182299684,3.8783743978,-1.1991114166
 O,0,4.4582248211,-1.4213454948,-1.7676705375
 H,0,2.3093835291,0.5860071788,3.3233331612
 H,0,4.6652005183,-2.3691654389,-1.8789982036
 H,0,-2.4825357483,-0.4366892695,7.8547690983
 Recover connectivity data from disk.
                           ----------------------------
                           !    Current Parameters    !
                           ! (Angstroms and Degrees)  !
 --------------------------                            --------------------------
 ! Name  Definition              Value                                          !
 --------------------------------------------------------------------------------
 ! R1    R(1,2)                  1.0184                                         !
 ! R2    R(1,3)                  1.0203                                         !
 ! R3    R(1,4)                  1.4537                                         !
 ! R4    R(4,5)                  1.0997                                         !
 ! R5    R(4,6)                  1.5402                                         !
 ! R6    R(4,7)                  1.5451                                         !
 ! R7    R(6,10)                 1.225                                          !
 ! R8    R(6,17)                 1.376                                          !
 ! R9    R(7,8)                  1.0985                                         !
 ! R10   R(7,9)                  1.0956                                         !
 ! R11   R(7,11)                 1.5366                                         !
 ! R12   R(11,12)                1.0899                                         !
 ! R13   R(11,13)                1.0981                                         !
 ! R14   R(11,14)                1.5123                                         !
 ! R15   R(14,15)                1.208                                          !
 ! R16   R(14,16)                1.3648                                         !
 ! R17   R(16,81)                0.976                                          !
 ! R18   R(17,18)                1.0106                                         !
 ! R19   R(17,19)                1.4443                                         !
 ! R20   R(19,20)                1.0949                                         !
 ! R21   R(19,21)                1.5035                                         !
 ! R22   R(19,22)                1.5691                                         !
 ! R23   R(21,25)                1.3026                                         !
 ! R24   R(21,41)                1.3081                                         !
 ! R25   R(22,23)                1.096                                          !
 ! R26   R(22,24)                1.094                                          !
 ! R27   R(22,26)                1.4956                                         !
 ! R28   R(26,27)                1.3789                                         !
 ! R29   R(26,29)                1.4413                                         !
 ! R30   R(27,28)                1.0819                                         !
 ! R31   R(27,33)                1.3752                                         !
 ! R32   R(29,30)                1.4224                                         !
 ! R33   R(29,31)                1.4067                                         !
 ! R34   R(30,33)                1.3782                                         !
 ! R35   R(30,37)                1.3976                                         !
 ! R36   R(31,32)                1.0882                                         !
 ! R37   R(31,39)                1.3895                                         !
 ! R38   R(33,34)                1.009                                          !
 ! R39   R(35,36)                1.085                                          !
 ! R40   R(35,37)                1.3896                                         !
 ! R41   R(35,39)                1.4122                                         !
 ! R42   R(37,38)                1.0862                                         !
 ! R43   R(39,40)                1.0858                                         !
 ! R44   R(41,42)                1.0279                                         !
 ! R45   R(41,43)                1.4747                                         !
 ! R46   R(43,44)                1.0958                                         !
 ! R47   R(43,45)                1.55                                           !
 ! R48   R(43,46)                1.5453                                         !
 ! R49   R(45,48)                1.2312                                         !
 ! R50   R(45,55)                1.3397                                         !
 ! R51   R(46,47)                1.0978                                         !
 ! R52   R(46,49)                1.5186                                         !
 ! R53   R(46,53)                1.4537                                         !
 ! R54   R(49,50)                1.0928                                         !
 ! R55   R(49,51)                1.0961                                         !
 ! R56   R(49,52)                1.0922                                         !
 ! R57   R(53,54)                1.5838                                         !
 ! R58   R(53,79)                0.9709                                         !
 ! R59   R(55,56)                1.0236                                         !
 ! R60   R(55,57)                1.4617                                         !
 ! R61   R(57,58)                1.0941                                         !
 ! R62   R(57,59)                1.5287                                         !
 ! R63   R(57,60)                1.543                                          !
 ! R64   R(59,63)                1.2057                                         !
 ! R65   R(59,78)                1.357                                          !
 ! R66   R(60,61)                1.0942                                         !
 ! R67   R(60,62)                1.0977                                         !
 ! R68   R(60,64)                1.5415                                         !
 ! R69   R(64,65)                1.0964                                         !
 ! R70   R(64,66)                1.0933                                         !
 ! R71   R(64,67)                1.5375                                         !
 ! R72   R(67,68)                1.0942                                         !
 ! R73   R(67,69)                1.0947                                         !
 ! R74   R(67,70)                1.4805                                         !
 ! R75   R(70,71)                1.013                                          !
 ! R76   R(70,77)                1.3931                                         !
 ! R77   R(72,73)                1.0123                                         !
 ! R78   R(72,74)                1.0127                                         !
 ! R79   R(72,77)                1.3817                                         !
 ! R80   R(75,76)                1.0221                                         !
 ! R81   R(75,77)                1.2981                                         !
 ! R82   R(78,80)                0.9765                                         !
 ! A1    A(2,1,3)              105.4778                                         !
 ! A2    A(2,1,4)              110.0931                                         !
 ! A3    A(3,1,4)              108.4958                                         !
 ! A4    A(1,4,5)              108.0862                                         !
 ! A5    A(1,4,6)              112.8015                                         !
 ! A6    A(1,4,7)              110.4555                                         !
 ! A7    A(5,4,6)              108.643                                          !
 ! A8    A(5,4,7)              108.2434                                         !
 ! A9    A(6,4,7)              108.5001                                         !
 ! A10   A(4,6,10)             122.7479                                         !
 ! A11   A(4,6,17)             115.9928                                         !
 ! A12   A(10,6,17)            121.2102                                         !
 ! A13   A(4,7,8)              108.3466                                         !
 ! A14   A(4,7,9)              109.8822                                         !
 ! A15   A(4,7,11)             112.0862                                         !
 ! A16   A(8,7,9)              106.8375                                         !
 ! A17   A(8,7,11)             109.7725                                         !
 ! A18   A(9,7,11)             109.7671                                         !
 ! A19   A(7,11,12)            110.5348                                         !
 ! A20   A(7,11,13)            109.3756                                         !
 ! A21   A(7,11,14)            112.2254                                         !
 ! A22   A(12,11,13)           108.1824                                         !
 ! A23   A(12,11,14)           108.3487                                         !
 ! A24   A(13,11,14)           108.0595                                         !
 ! A25   A(11,14,15)           126.1571                                         !
 ! A26   A(11,14,16)           111.4615                                         !
 ! A27   A(15,14,16)           122.3812                                         !
 ! A28   A(14,16,81)           105.8264                                         !
 ! A29   A(6,17,18)            120.5317                                         !
 ! A30   A(6,17,19)            119.3006                                         !
 ! A31   A(18,17,19)           119.535                                          !
 ! A32   A(17,19,20)           106.6963                                         !
 ! A33   A(17,19,21)           110.7949                                         !
 ! A34   A(17,19,22)           113.0607                                         !
 ! A35   A(20,19,21)           108.5154                                         !
 ! A36   A(20,19,22)           106.2282                                         !
 ! A37   A(21,19,22)           111.2387                                         !
 ! A38   A(19,21,25)           117.1718                                         !
 ! A39   A(19,21,41)           119.9334                                         !
 ! A40   A(25,21,41)           122.8388                                         !
 ! A41   A(19,22,23)           109.127                                          !
 ! A42   A(19,22,24)           104.0969                                         !
 ! A43   A(19,22,26)           113.6464                                         !
 ! A44   A(23,22,24)           107.365                                          !
 ! A45   A(23,22,26)           111.3518                                         !
 ! A46   A(24,22,26)           110.8419                                         !
 ! A47   A(22,26,27)           125.9469                                         !
 ! A48   A(22,26,29)           127.5207                                         !
 ! A49   A(27,26,29)           106.5262                                         !
 ! A50   A(26,27,28)           129.3459                                         !
 ! A51   A(26,27,33)           109.7263                                         !
 ! A52   A(28,27,33)           120.9102                                         !
 ! A53   A(26,29,30)           106.9717                                         !
 ! A54   A(26,29,31)           134.0485                                         !
 ! A55   A(30,29,31)           118.9792                                         !
 ! A56   A(29,30,33)           107.2256                                         !
 ! A57   A(29,30,37)           122.334                                          !
 ! A58   A(33,30,37)           130.4335                                         !
 ! A59   A(29,31,32)           120.5077                                         !
 ! A60   A(29,31,39)           118.9383                                         !
 ! A61   A(32,31,39)           120.5362                                         !
 ! A62   A(27,33,30)           109.5444                                         !
 ! A63   A(27,33,34)           125.138                                          !
 ! A64   A(30,33,34)           125.3176                                         !
 ! A65   A(36,35,37)           119.1739                                         !
 ! A66   A(36,35,39)           119.3451                                         !
 ! A67   A(37,35,39)           121.4776                                         !
 ! A68   A(30,37,35)           117.3074                                         !
 ! A69   A(30,37,38)           121.3242                                         !
 ! A70   A(35,37,38)           121.3631                                         !
 ! A71   A(31,39,35)           120.9327                                         !
 ! A72   A(31,39,40)           119.9605                                         !
 ! A73   A(35,39,40)           119.1063                                         !
 ! A74   A(21,41,42)           119.1769                                         !
 ! A75   A(21,41,43)           128.8891                                         !
 ! A76   A(42,41,43)           111.497                                          !
 ! A77   A(41,43,44)           109.8095                                         !
 ! A78   A(41,43,45)           103.6633                                         !
 ! A79   A(41,43,46)           110.4218                                         !
 ! A80   A(44,43,45)           110.5451                                         !
 ! A81   A(44,43,46)           108.9979                                         !
 ! A82   A(45,43,46)           113.2926                                         !
 ! A83   A(43,45,48)           118.9527                                         !
 ! A84   A(43,45,55)           116.3461                                         !
 ! A85   A(48,45,55)           124.6962                                         !
 ! A86   A(43,46,47)           107.5664                                         !
 ! A87   A(43,46,49)           115.8207                                         !
 ! A88   A(43,46,53)           103.4435                                         !
 ! A89   A(47,46,49)           110.9227                                         !
 ! A90   A(47,46,53)           109.397                                          !
 ! A91   A(49,46,53)           109.3301                                         !
 ! A92   A(46,49,50)           111.1354                                         !
 ! A93   A(46,49,51)           109.0182                                         !
 ! A94   A(46,49,52)           109.7472                                         !
 ! A95   A(50,49,51)           107.9512                                         !
 ! A96   A(50,49,52)           110.1393                                         !
 ! A97   A(51,49,52)           108.7927                                         !
 ! A98   A(46,53,54)           114.778                                          !
 ! A99   A(46,53,79)           110.4777                                         !
 ! A100  A(54,53,79)           124.2372                                         !
 ! A101  A(45,55,56)           119.9527                                         !
 ! A102  A(45,55,57)           119.9692                                         !
 ! A103  A(56,55,57)           120.0593                                         !
 ! A104  A(55,57,58)           108.5507                                         !
 ! A105  A(55,57,59)           112.9133                                         !
 ! A106  A(55,57,60)           110.83                                           !
 ! A107  A(58,57,59)           105.563                                          !
 ! A108  A(58,57,60)           109.8745                                         !
 ! A109  A(59,57,60)           108.9586                                         !
 ! A110  A(57,59,63)           123.0225                                         !
 ! A111  A(57,59,78)           113.2537                                         !
 ! A112  A(63,59,78)           123.5958                                         !
 ! A113  A(57,60,61)           107.8277                                         !
 ! A114  A(57,60,62)           107.6725                                         !
 ! A115  A(57,60,64)           112.9273                                         !
 ! A116  A(61,60,62)           106.4804                                         !
 ! A117  A(61,60,64)           110.3986                                         !
 ! A118  A(62,60,64)           111.254                                          !
 ! A119  A(60,64,65)           109.5437                                         !
 ! A120  A(60,64,66)           109.6933                                         !
 ! A121  A(60,64,67)           114.5184                                         !
 ! A122  A(65,64,66)           106.1899                                         !
 ! A123  A(65,64,67)           108.936                                          !
 ! A124  A(66,64,67)           107.6176                                         !
 ! A125  A(64,67,68)           111.6961                                         !
 ! A126  A(64,67,69)           109.3969                                         !
 ! A127  A(64,67,70)           113.1228                                         !
 ! A128  A(68,67,69)           106.6201                                         !
 ! A129  A(68,67,70)           106.4612                                         !
 ! A130  A(69,67,70)           109.2996                                         !
 ! A131  A(67,70,71)           112.4369                                         !
 ! A132  A(67,70,77)           118.1386                                         !
 ! A133  A(71,70,77)           111.4273                                         !
 ! A134  A(73,72,74)           113.3727                                         !
 ! A135  A(73,72,77)           112.9789                                         !
 ! A136  A(74,72,77)           115.3903                                         !
 ! A137  A(76,75,77)           109.9571                                         !
 ! A138  A(70,77,72)           114.0691                                         !
 ! A139  A(70,77,75)           126.4375                                         !
 ! A140  A(72,77,75)           119.4283                                         !
 ! A141  A(59,78,80)           106.2582                                         !
 ! D1    D(2,1,4,5)             53.0035                                         !
 ! D2    D(2,1,4,6)            -67.1346                                         !
 ! D3    D(2,1,4,7)            171.2526                                         !
 ! D4    D(3,1,4,5)            167.9648                                         !
 ! D5    D(3,1,4,6)             47.8267                                         !
 ! D6    D(3,1,4,7)            -73.7861                                         !
 ! D7    D(1,4,6,10)           -20.42                                           !
 ! D8    D(1,4,6,17)           162.1012                                         !
 ! D9    D(5,4,6,10)          -140.2377                                         !
 ! D10   D(5,4,6,17)            42.2835                                         !
 ! D11   D(7,4,6,10)           102.2927                                         !
 ! D12   D(7,4,6,17)           -75.1862                                         !
 ! D13   D(1,4,7,8)             61.7592                                         !
 ! D14   D(1,4,7,9)            178.1468                                         !
 ! D15   D(1,4,7,11)           -59.5187                                         !
 ! D16   D(5,4,7,8)            179.9121                                         !
 ! D17   D(5,4,7,9)            -63.7004                                         !
 ! D18   D(5,4,7,11)            58.6341                                         !
 ! D19   D(6,4,7,8)            -62.3633                                         !
 ! D20   D(6,4,7,9)             54.0242                                         !
 ! D21   D(6,4,7,11)           176.3587                                         !
 ! D22   D(4,6,17,18)           -9.3552                                         !
 ! D23   D(4,6,17,19)          179.8046                                         !
 ! D24   D(10,6,17,18)         173.124                                          !
 ! D25   D(10,6,17,19)           2.2839                                         !
 ! D26   D(4,7,11,12)           58.7284                                         !
 ! D27   D(4,7,11,13)          -60.2809                                         !
 ! D28   D(4,7,11,14)          179.8058                                         !
 ! D29   D(8,7,11,12)          -61.7253                                         !
 ! D30   D(8,7,11,13)          179.2654                                         !
 ! D31   D(8,7,11,14)           59.3521                                         !
 ! D32   D(9,7,11,12)         -178.8717                                         !
 ! D33   D(9,7,11,13)           62.1191                                         !
 ! D34   D(9,7,11,14)          -57.7943                                         !
 ! D35   D(7,11,14,15)        -120.9537                                         !
 ! D36   D(7,11,14,16)          58.852                                          !
 ! D37   D(12,11,14,15)          1.3731                                         !
 ! D38   D(12,11,14,16)       -178.8212                                         !
 ! D39   D(13,11,14,15)        118.3697                                         !
 ! D40   D(13,11,14,16)        -61.8246                                         !
 ! D41   D(11,14,16,81)        179.2189                                         !
 ! D42   D(15,14,16,81)         -0.9669                                         !
 ! D43   D(6,17,19,20)         -32.6136                                         !
 ! D44   D(6,17,19,21)        -150.5536                                         !
 ! D45   D(6,17,19,22)          83.7969                                         !
 ! D46   D(18,17,19,20)        156.4539                                         !
 ! D47   D(18,17,19,21)         38.5139                                         !
 ! D48   D(18,17,19,22)        -87.1357                                         !
 ! D49   D(17,19,21,25)        -22.4685                                         !
 ! D50   D(17,19,21,41)        160.1745                                         !
 ! D51   D(20,19,21,25)       -139.294                                          !
 ! D52   D(20,19,21,41)         43.349                                          !
 ! D53   D(22,19,21,25)        104.1961                                         !
 ! D54   D(22,19,21,41)        -73.161                                          !
 ! D55   D(17,19,22,23)         66.3805                                         !
 ! D56   D(17,19,22,24)        -48.0003                                         !
 ! D57   D(17,19,22,26)       -168.6919                                         !
 ! D58   D(20,19,22,23)       -176.9323                                         !
 ! D59   D(20,19,22,24)         68.687                                          !
 ! D60   D(20,19,22,26)        -52.0047                                         !
 ! D61   D(21,19,22,23)        -59.0303                                         !
 ! D62   D(21,19,22,24)       -173.4111                                         !
 ! D63   D(21,19,22,26)         65.8973                                         !
 ! D64   D(19,21,41,42)         -3.7552                                         !
 ! D65   D(19,21,41,43)        167.9634                                         !
 ! D66   D(25,21,41,42)        179.0435                                         !
 ! D67   D(25,21,41,43)         -9.238                                          !
 ! D68   D(19,22,26,27)         78.8601                                         !
 ! D69   D(19,22,26,29)       -100.1155                                         !
 ! D70   D(23,22,26,27)       -157.4137                                         !
 ! D71   D(23,22,26,29)         23.6107                                         !
 ! D72   D(24,22,26,27)        -37.9603                                         !
 ! D73   D(24,22,26,29)        143.0641                                         !
 ! D74   D(22,26,27,28)          1.9018                                         !
 ! D75   D(22,26,27,33)       -179.6443                                         !
 ! D76   D(29,26,27,28)       -178.9458                                         !
 ! D77   D(29,26,27,33)         -0.4919                                         !
 ! D78   D(22,26,29,30)        179.8803                                         !
 ! D79   D(22,26,29,31)          0.1783                                         !
 ! D80   D(27,26,29,30)          0.7454                                         !
 ! D81   D(27,26,29,31)       -178.9566                                         !
 ! D82   D(26,27,33,30)          0.0399                                         !
 ! D83   D(26,27,33,34)       -179.9453                                         !
 ! D84   D(28,27,33,30)        178.6463                                         !
 ! D85   D(28,27,33,34)         -1.3389                                         !
 ! D86   D(26,29,30,33)         -0.7253                                         !
 ! D87   D(26,29,30,37)        178.4088                                         !
 ! D88   D(31,29,30,33)        179.0299                                         !
 ! D89   D(31,29,30,37)         -1.836                                          !
 ! D90   D(26,29,31,32)         -0.5052                                         !
 ! D91   D(26,29,31,39)       -178.9804                                         !
 ! D92   D(30,29,31,32)        179.8206                                         !
 ! D93   D(30,29,31,39)          1.3453                                         !
 ! D94   D(29,30,33,27)          0.4372                                         !
 ! D95   D(29,30,33,34)       -179.5777                                         !
 ! D96   D(37,30,33,27)       -178.6016                                         !
 ! D97   D(37,30,33,34)          1.3836                                         !
 ! D98   D(29,30,37,35)          0.698                                          !
 ! D99   D(29,30,37,38)       -178.4803                                         !
 ! D100  D(33,30,37,35)        179.6114                                         !
 ! D101  D(33,30,37,38)          0.433                                          !
 ! D102  D(29,31,39,35)          0.1888                                         !
 ! D103  D(29,31,39,40)        179.9373                                         !
 ! D104  D(32,31,39,35)       -178.286                                          !
 ! D105  D(32,31,39,40)          1.4625                                         !
 ! D106  D(36,35,37,30)       -178.4288                                         !
 ! D107  D(36,35,37,38)          0.7492                                         !
 ! D108  D(39,35,37,30)          0.897                                          !
 ! D109  D(39,35,37,38)       -179.925                                          !
 ! D110  D(36,35,39,31)        177.9603                                         !
 ! D111  D(36,35,39,40)         -1.7903                                         !
 ! D112  D(37,35,39,31)         -1.3644                                         !
 ! D113  D(37,35,39,40)        178.885                                          !
 ! D114  D(21,41,43,44)        -44.8885                                         !
 ! D115  D(21,41,43,45)       -163.0167                                         !
 ! D116  D(21,41,43,46)         75.3321                                         !
 ! D117  D(42,41,43,44)        127.3435                                         !
 ! D118  D(42,41,43,45)          9.2153                                         !
 ! D119  D(42,41,43,46)       -112.4359                                         !
 ! D120  D(41,43,45,48)        -24.1313                                         !
 ! D121  D(41,43,45,55)        156.638                                          !
 ! D122  D(44,43,45,48)       -141.7484                                         !
 ! D123  D(44,43,45,55)         39.0209                                         !
 ! D124  D(46,43,45,48)         95.5787                                         !
 ! D125  D(46,43,45,55)        -83.652                                          !
 ! D126  D(41,43,46,47)         44.9242                                         !
 ! D127  D(41,43,46,49)        169.6255                                         !
 ! D128  D(41,43,46,53)        -70.7874                                         !
 ! D129  D(44,43,46,47)        165.6308                                         !
 ! D130  D(44,43,46,49)        -69.6679                                         !
 ! D131  D(44,43,46,53)         49.9191                                         !
 ! D132  D(45,43,46,47)        -70.8431                                         !
 ! D133  D(45,43,46,49)         53.8582                                         !
 ! D134  D(45,43,46,53)        173.4452                                         !
 ! D135  D(43,45,55,56)         -2.0178                                         !
 ! D136  D(43,45,55,57)        176.404                                          !
 ! D137  D(48,45,55,56)        178.8009                                         !
 ! D138  D(48,45,55,57)         -2.7772                                         !
 ! D139  D(43,46,49,50)        -64.0861                                         !
 ! D140  D(43,46,49,51)        177.0481                                         !
 ! D141  D(43,46,49,52)         57.9852                                         !
 ! D142  D(47,46,49,50)         58.8664                                         !
 ! D143  D(47,46,49,51)        -59.9995                                         !
 ! D144  D(47,46,49,52)       -179.0624                                         !
 ! D145  D(53,46,49,50)        179.5907                                         !
 ! D146  D(53,46,49,51)         60.7248                                         !
 ! D147  D(53,46,49,52)        -58.3381                                         !
 ! D148  D(43,46,53,54)         24.9381                                         !
 ! D149  D(43,46,53,79)        171.434                                          !
 ! D150  D(47,46,53,54)        -89.4648                                         !
 ! D151  D(47,46,53,79)         57.0311                                         !
 ! D152  D(49,46,53,54)        148.8855                                         !
 ! D153  D(49,46,53,79)        -64.6186                                         !
 ! D154  D(45,55,57,58)         56.4699                                         !
 ! D155  D(45,55,57,59)        -60.2155                                         !
 ! D156  D(45,55,57,60)        177.2234                                         !
 ! D157  D(56,55,57,58)       -125.1099                                         !
 ! D158  D(56,55,57,59)        118.2047                                         !
 ! D159  D(56,55,57,60)         -4.3565                                         !
 ! D160  D(55,57,59,63)        155.0514                                         !
 ! D161  D(55,57,59,78)        -28.9287                                         !
 ! D162  D(58,57,59,63)         36.6096                                         !
 ! D163  D(58,57,59,78)       -147.3705                                         !
 ! D164  D(60,57,59,63)        -81.3477                                         !
 ! D165  D(60,57,59,78)         94.6721                                         !
 ! D166  D(55,57,60,61)        166.7273                                         !
 ! D167  D(55,57,60,62)         52.1941                                         !
 ! D168  D(55,57,60,64)        -71.0261                                         !
 ! D169  D(58,57,60,61)        -73.3068                                         !
 ! D170  D(58,57,60,62)        172.16                                           !
 ! D171  D(58,57,60,64)         48.9398                                         !
 ! D172  D(59,57,60,61)         41.8965                                         !
 ! D173  D(59,57,60,62)        -72.6367                                         !
 ! D174  D(59,57,60,64)        164.1432                                         !
 ! D175  D(57,59,78,80)       -177.8463                                         !
 ! D176  D(63,59,78,80)         -1.8527                                         !
 ! D177  D(57,60,64,65)        -88.6512                                         !
 ! D178  D(57,60,64,66)         27.5357                                         !
 ! D179  D(57,60,64,67)        148.6387                                         !
 ! D180  D(61,60,64,65)         32.1425                                         !
 ! D181  D(61,60,64,66)        148.3294                                         !
 ! D182  D(61,60,64,67)        -90.5675                                         !
 ! D183  D(62,60,64,65)        150.1377                                         !
 ! D184  D(62,60,64,66)        -93.6754                                         !
 ! D185  D(62,60,64,67)         27.4276                                         !
 ! D186  D(60,64,67,68)         61.1898                                         !
 ! D187  D(60,64,67,69)        178.9935                                         !
 ! D188  D(60,64,67,70)        -58.9098                                         !
 ! D189  D(65,64,67,68)        -61.8485                                         !
 ! D190  D(65,64,67,69)         55.9552                                         !
 ! D191  D(65,64,67,70)        178.052                                          !
 ! D192  D(66,64,67,68)       -176.5712                                         !
 ! D193  D(66,64,67,69)        -58.7675                                         !
 ! D194  D(66,64,67,70)         63.3293                                         !
 ! D195  D(64,67,70,71)         87.4843                                         !
 ! D196  D(64,67,70,77)        -44.5097                                         !
 ! D197  D(68,67,70,71)        -35.5627                                         !
 ! D198  D(68,67,70,77)       -167.5567                                         !
 ! D199  D(69,67,70,71)       -150.3645                                         !
 ! D200  D(69,67,70,77)         77.6415                                         !
 ! D201  D(67,70,77,72)        -51.9074                                         !
 ! D202  D(67,70,77,75)        125.1182                                         !
 ! D203  D(71,70,77,72)        175.6505                                         !
 ! D204  D(71,70,77,75)         -7.3238                                         !
 ! D205  D(73,72,77,70)       -167.6324                                         !
 ! D206  D(73,72,77,75)         15.1147                                         !
 ! D207  D(74,72,77,70)        -34.9265                                         !
 ! D208  D(74,72,77,75)        147.8207                                         !
 ! D209  D(76,75,77,70)         -1.3914                                         !
 ! D210  D(76,75,77,72)        175.4904                                         !
 --------------------------------------------------------------------------------
 Symmetry turned off by external request.
 Stoichiometry    C26H39N8O8(1+)
 Framework group  C1[X(C26H39N8O8)]
 Deg. of freedom   237
 Full point group                 C1      NOp   1
                          Input orientation:                          
 ---------------------------------------------------------------------
 Center     Atomic      Atomic             Coordinates (Angstroms)
 Number     Number       Type             X           Y           Z
 ---------------------------------------------------------------------
      1          7           0       -6.243719    0.611617    3.264254
      2          1           0       -6.723993    1.218878    2.602603
      3          1           0       -6.303849   -0.326048    2.866438
      4          6           0       -4.841639    0.984126    3.357122
      5          1           0       -4.788156    2.060300    3.577168
      6          6           0       -4.063322    0.708137    2.056971
      7          6           0       -4.155136    0.219748    4.511152
      8          1           0       -4.208998   -0.855667    4.293819
      9          1           0       -3.092269    0.482465    4.551759
     10          8           0       -4.453701   -0.081824    1.205909
     11          6           0       -4.814253    0.509370    5.868608
     12          1           0       -5.868469    0.233659    5.848293
     13          1           0       -4.745147    1.583668    6.085332
     14          6           0       -4.147646   -0.240948    6.999875
     15          8           0       -4.679751   -1.032503    7.741216
     16          8           0       -2.824532    0.078418    7.099567
     17          7           0       -2.861712    1.364907    1.922493
     18          1           0       -2.596706    2.089341    2.575388
     19          6           0       -2.070625    1.154785    0.732462
     20          1           0       -2.247308    0.121706    0.415624
     21          6           0       -0.605881    1.319296    1.029253
     22          6           0       -2.512906    2.063344   -0.467951
     23          1           0       -2.304198    3.110648   -0.221567
     24          1           0       -3.600040    1.946783   -0.503911
     25          8           0       -0.286710    2.026985    2.075192
     26          6           0       -1.892839    1.676950   -1.772986
     27          6           0       -2.292136    0.633827   -2.581512
     28          1           0       -3.112057   -0.059958   -2.451303
     29          6           0       -0.763581    2.291612   -2.424478
     30          6           0       -0.543886    1.578239   -3.635296
     31          6           0        0.084396    3.367143   -2.103661
     32          1           0       -0.062932    3.931856   -1.185197
     33          7           0       -1.486777    0.574769   -3.694632
     34          1           0       -1.574283   -0.100121   -4.439593
     35          6           0        1.268539    3.012471   -4.204650
     36          1           0        2.042802    3.328454   -4.895942
     37          6           0        0.462667    1.930817   -4.538532
     38          1           0        0.600362    1.389539   -5.470157
     39          6           0        1.092671    3.716922   -2.993421
     40          1           0        1.756098    4.545044   -2.762908
     41          7           0        0.285516    0.805890    0.221231
     42          1           0       -0.029005    0.243819   -0.579827
     43          6           0        1.740620    1.041324    0.178121
     44          1           0        1.945996    2.114102    0.265994
     45          6           0        2.154351    0.521180   -1.222174
     46          6           0        2.441625    0.298320    1.337609
     47          1           0        2.020216   -0.714310    1.385073
     48          8           0        1.448650   -0.321100   -1.777557
     49          6           0        3.958141    0.252114    1.272658
     50          1           0        4.298176   -0.311396    0.400329
     51          1           0        4.338874   -0.250714    2.169061
     52          1           0        4.357354    1.268288    1.242907
     53          8           0        2.032996    1.046971    2.514815
     54          1           0        0.666958    1.833473    2.360165
     55          7           0        3.285233    1.025561   -1.733510
     56          1           0        3.806859    1.738168   -1.215948
     57          6           0        3.791223    0.533016   -3.013387
     58          1           0        3.010365    0.661239   -3.768994
     59          6           0        4.101760   -0.963693   -2.994386
     60          6           0        5.060279    1.302978   -3.434633
     61          1           0        5.529358    0.752089   -4.255415
     62          1           0        5.765155    1.268973   -2.593853
     63          8           0        4.102197   -1.647324   -3.987541
     64          6           0        4.767903    2.755377   -3.860306
     65          1           0        4.540726    2.784665   -4.932468
     66          1           0        3.871399    3.115845   -3.348787
     67          6           0        5.903834    3.748162   -3.563674
     68          1           0        6.822545    3.482322   -4.095338
     69          1           0        5.616488    4.744668   -3.914051
     70          7           0        6.255419    3.817091   -2.127142
     71          1           0        6.946506    3.124512   -1.864571
     72          7           0        4.292352    4.871843   -1.453609
     73          1           0        3.664205    5.035054   -0.676741
     74          1           0        4.667931    5.723637   -1.852397
     75          7           0        5.033908    3.076862   -0.194827
     76          1           0        5.759619    2.357124   -0.185121
     77          6           0        5.218230    3.878374   -1.199111
     78          8           0        4.458225   -1.421345   -1.767671
     79          1           0        2.309384    0.586007    3.323333
     80          1           0        4.665201   -2.369165   -1.878998
     81          1           0       -2.482536   -0.436689    7.854769
 ---------------------------------------------------------------------
 Rotational constants (GHZ):           0.1356226           0.0391170           0.0355216
 Standard basis: 6-31G(d) (6D, 7F)
   708 basis functions,  1332 primitive gaussians,   708 cartesian basis functions
   157 alpha electrons      157 beta electrons
       nuclear repulsion energy      5346.2193227092 Hartrees.
 NAtoms=   81 NActive=   81 NUniq=   81 SFac= 1.00D+00 NAtFMM=   60 NAOKFM=T Big=T
 Integral buffers will be    131072 words long.
 Raffenetti 2 integral format.
 Two-electron integral symmetry is turned off.
 Nuclear repulsion after empirical dispersion term =     5346.1038183816 Hartrees.
 One-electron integrals computed using PRISM.
 NBasis=   708 RedAO= T EigKep=  3.64D-04  NBF=   708
 NBsUse=   708 1.00D-06 EigRej= -1.00D+00 NBFU=   708
 Initial guess from the checkpoint file:  "conf-34.chk"
 B after Tr=     0.000000    0.000000    0.000000
         Rot=    1.000000    0.000000    0.000000    0.000000 Ang=   0.00 deg.
 Requested convergence on RMS density matrix=1.00D-08 within 128 cycles.
 Requested convergence on MAX density matrix=1.00D-06.
 Requested convergence on             energy=1.00D-06.
 No special actions if energy rises.
 SCF Done:  E(RB3LYP) =  -2054.02164235     A.U. after    1 cycles
            NFock=  1  Conv=0.48D-08     -V/T= 2.0093

 **********************************************************************

            Population analysis using the SCF Density.

 **********************************************************************

 Alpha  occ. eigenvalues --  -19.34593 -19.31428 -19.29523 -19.25574 -19.24312
 Alpha  occ. eigenvalues --  -19.23222 -19.21477 -19.19732 -14.53524 -14.47588
 Alpha  occ. eigenvalues --  -14.47570 -14.46796 -14.45239 -14.45233 -14.40296
 Alpha  occ. eigenvalues --  -14.39018 -10.47269 -10.41515 -10.41498 -10.39478
 Alpha  occ. eigenvalues --  -10.38872 -10.38287 -10.38038 -10.37908 -10.36682
 Alpha  occ. eigenvalues --  -10.34291 -10.32337 -10.31787 -10.31292 -10.31059
 Alpha  occ. eigenvalues --  -10.30794 -10.30051 -10.29099 -10.28516 -10.28304
 Alpha  occ. eigenvalues --  -10.28222 -10.28214 -10.28113 -10.27732 -10.27549
 Alpha  occ. eigenvalues --  -10.27427 -10.26236  -1.25396  -1.20114  -1.17860
 Alpha  occ. eigenvalues --   -1.16464  -1.16198  -1.13536  -1.11126  -1.10370
 Alpha  occ. eigenvalues --   -1.08642  -1.07559  -1.07259  -1.04520  -1.03612
 Alpha  occ. eigenvalues --   -0.99243  -0.96941  -0.95516  -0.93934  -0.93308
 Alpha  occ. eigenvalues --   -0.91131  -0.89857  -0.87930  -0.86325  -0.85039
 Alpha  occ. eigenvalues --   -0.84012  -0.82977  -0.81945  -0.79371  -0.78982
 Alpha  occ. eigenvalues --   -0.77615  -0.76488  -0.75182  -0.73672  -0.72566
 Alpha  occ. eigenvalues --   -0.71764  -0.71641  -0.70733  -0.69808  -0.69158
 Alpha  occ. eigenvalues --   -0.68974  -0.68370  -0.66937  -0.66331  -0.66069
 Alpha  occ. eigenvalues --   -0.65676  -0.65296  -0.63526  -0.62612  -0.62131
 Alpha  occ. eigenvalues --   -0.60474  -0.59915  -0.59350  -0.59113  -0.58858
 Alpha  occ. eigenvalues --   -0.58486  -0.57846  -0.57332  -0.57156  -0.56974
 Alpha  occ. eigenvalues --   -0.56640  -0.56547  -0.56166  -0.55432  -0.54972
 Alpha  occ. eigenvalues --   -0.54951  -0.54310  -0.53741  -0.53530  -0.53243
 Alpha  occ. eigenvalues --   -0.52927  -0.52614  -0.52564  -0.52179  -0.52017
 Alpha  occ. eigenvalues --   -0.51535  -0.51200  -0.50786  -0.50466  -0.50350
 Alpha  occ. eigenvalues --   -0.50009  -0.49928  -0.49726  -0.49027  -0.48785
 Alpha  occ. eigenvalues --   -0.48542  -0.47849  -0.47644  -0.47536  -0.46766
 Alpha  occ. eigenvalues --   -0.45694  -0.45370  -0.45086  -0.44747  -0.44317
 Alpha  occ. eigenvalues --   -0.44061  -0.43765  -0.43097  -0.43003  -0.42630
 Alpha  occ. eigenvalues --   -0.42499  -0.42273  -0.41184  -0.39193  -0.38853
 Alpha  occ. eigenvalues --   -0.38621  -0.37725  -0.37459  -0.36252  -0.36019
 Alpha  occ. eigenvalues --   -0.35790  -0.35405  -0.33561  -0.33146  -0.31661
 Alpha  occ. eigenvalues --   -0.31654  -0.29992
 Alpha virt. eigenvalues --   -0.16461  -0.11126  -0.10199  -0.08515  -0.07769
 Alpha virt. eigenvalues --   -0.07483  -0.06887  -0.06717  -0.05064  -0.04677
 Alpha virt. eigenvalues --   -0.04087  -0.02717  -0.02088  -0.01846  -0.01622
 Alpha virt. eigenvalues --   -0.01062  -0.00614  -0.00248   0.00630   0.00931
 Alpha virt. eigenvalues --    0.01382   0.01581   0.01938   0.02368   0.02869
 Alpha virt. eigenvalues --    0.03291   0.03650   0.04388   0.04925   0.05157
 Alpha virt. eigenvalues --    0.05415   0.05583   0.05972   0.06417   0.06507
 Alpha virt. eigenvalues --    0.06742   0.07084   0.07286   0.07549   0.07708
 Alpha virt. eigenvalues --    0.07957   0.08295   0.08485   0.08778   0.09192
 Alpha virt. eigenvalues --    0.09312   0.09600   0.09685   0.10265   0.10634
 Alpha virt. eigenvalues --    0.10714   0.11305   0.12089   0.12497   0.12686
 Alpha virt. eigenvalues --    0.13087   0.13293   0.13892   0.14138   0.14291
 Alpha virt. eigenvalues --    0.14769   0.15518   0.15719   0.15871   0.16247
 Alpha virt. eigenvalues --    0.16895   0.17446   0.17887   0.18138   0.18960
 Alpha virt. eigenvalues --    0.19154   0.19385   0.20499   0.21905   0.22959
 Alpha virt. eigenvalues --    0.23113   0.24015   0.24401   0.25057   0.25507
 Alpha virt. eigenvalues --    0.27259   0.28141   0.28742   0.29122   0.29313
 Alpha virt. eigenvalues --    0.30393   0.31247   0.33015   0.33278   0.33440
 Alpha virt. eigenvalues --    0.34293   0.36602   0.37675   0.38046   0.38784
 Alpha virt. eigenvalues --    0.39862   0.41039   0.41509   0.41985   0.42124
 Alpha virt. eigenvalues --    0.43183   0.43558   0.44487   0.44703   0.44861
 Alpha virt. eigenvalues --    0.45191   0.45388   0.45688   0.45867   0.46128
 Alpha virt. eigenvalues --    0.46461   0.46653   0.46930   0.47229   0.48361
 Alpha virt. eigenvalues --    0.49058   0.49368   0.49529   0.49760   0.50068
 Alpha virt. eigenvalues --    0.50433   0.50539   0.50800   0.51066   0.51567
 Alpha virt. eigenvalues --    0.52141   0.52226   0.52693   0.52883   0.53859
 Alpha virt. eigenvalues --    0.54346   0.54567   0.54907   0.55140   0.55931
 Alpha virt. eigenvalues --    0.56519   0.56694   0.57408   0.57905   0.58086
 Alpha virt. eigenvalues --    0.58124   0.59039   0.59714   0.60038   0.60653
 Alpha virt. eigenvalues --    0.61216   0.61628   0.61853   0.62173   0.63090
 Alpha virt. eigenvalues --    0.63217   0.64029   0.65317   0.65889   0.66022
 Alpha virt. eigenvalues --    0.66221   0.66859   0.67437   0.67825   0.67920
 Alpha virt. eigenvalues --    0.68817   0.69117   0.69531   0.70199   0.70624
 Alpha virt. eigenvalues --    0.70810   0.71115   0.71802   0.71940   0.72520
 Alpha virt. eigenvalues --    0.72661   0.72757   0.73364   0.73513   0.73771
 Alpha virt. eigenvalues --    0.73883   0.74205   0.74365   0.75233   0.75388
 Alpha virt. eigenvalues --    0.75924   0.76302   0.76650   0.77062   0.77407
 Alpha virt. eigenvalues --    0.77617   0.78097   0.78211   0.78461   0.79153
 Alpha virt. eigenvalues --    0.79559   0.79694   0.79794   0.79893   0.80472
 Alpha virt. eigenvalues --    0.80833   0.80960   0.81690   0.81850   0.82218
 Alpha virt. eigenvalues --    0.82519   0.83211   0.83658   0.84194   0.84446
 Alpha virt. eigenvalues --    0.85008   0.85512   0.85721   0.85956   0.86166
 Alpha virt. eigenvalues --    0.86296   0.86493   0.87300   0.87525   0.87981
 Alpha virt. eigenvalues --    0.88386   0.88752   0.89275   0.89630   0.90056
 Alpha virt. eigenvalues --    0.90542   0.90778   0.91084   0.91395   0.92098
 Alpha virt. eigenvalues --    0.92466   0.93437   0.93801   0.94022   0.94485
 Alpha virt. eigenvalues --    0.95546   0.96797   0.96909   0.96970   0.98565
 Alpha virt. eigenvalues --    0.98940   0.99964   1.00986   1.01175   1.01481
 Alpha virt. eigenvalues --    1.01902   1.02285   1.03251   1.03806   1.04434
 Alpha virt. eigenvalues --    1.04723   1.05677   1.06170   1.07667   1.08863
 Alpha virt. eigenvalues --    1.09323   1.09866   1.10931   1.11001   1.11727
 Alpha virt. eigenvalues --    1.12198   1.12954   1.15010   1.15402   1.16082
 Alpha virt. eigenvalues --    1.16207   1.17322   1.17800   1.19088   1.19777
 Alpha virt. eigenvalues --    1.20302   1.21562   1.22991   1.23887   1.24243
 Alpha virt. eigenvalues --    1.24782   1.25211   1.26417   1.26587   1.27070
 Alpha virt. eigenvalues --    1.28052   1.29677   1.29982   1.30569   1.30771
 Alpha virt. eigenvalues --    1.31346   1.31832   1.32205   1.32654   1.33436
 Alpha virt. eigenvalues --    1.33777   1.34697   1.35558   1.35997   1.36642
 Alpha virt. eigenvalues --    1.37707   1.38259   1.38665   1.39469   1.40496
 Alpha virt. eigenvalues --    1.40946   1.41722   1.42247   1.42573   1.43535
 Alpha virt. eigenvalues --    1.44653   1.46053   1.46201   1.46907   1.47230
 Alpha virt. eigenvalues --    1.48777   1.49116   1.50909   1.51504   1.52695
 Alpha virt. eigenvalues --    1.53443   1.54573   1.55002   1.55552   1.57308
 Alpha virt. eigenvalues --    1.57910   1.58778   1.59303   1.60308   1.61072
 Alpha virt. eigenvalues --    1.61818   1.63147   1.63316   1.63864   1.64133
 Alpha virt. eigenvalues --    1.64837   1.65853   1.66042   1.66345   1.67123
 Alpha virt. eigenvalues --    1.67696   1.68185   1.68435   1.69140   1.69484
 Alpha virt. eigenvalues --    1.69681   1.70533   1.70689   1.71205   1.71719
 Alpha virt. eigenvalues --    1.71743   1.72310   1.73197   1.73425   1.74174
 Alpha virt. eigenvalues --    1.74213   1.74295   1.74998   1.75585   1.76252
 Alpha virt. eigenvalues --    1.76546   1.76870   1.77110   1.77809   1.79585
 Alpha virt. eigenvalues --    1.80136   1.80175   1.81075   1.81670   1.82074
 Alpha virt. eigenvalues --    1.82413   1.82898   1.83840   1.84410   1.84868
 Alpha virt. eigenvalues --    1.85521   1.85952   1.86362   1.86650   1.87119
 Alpha virt. eigenvalues --    1.87739   1.87832   1.88461   1.88913   1.89419
 Alpha virt. eigenvalues --    1.89784   1.90624   1.90720   1.92322   1.92833
 Alpha virt. eigenvalues --    1.93152   1.93551   1.94295   1.95329   1.96042
 Alpha virt. eigenvalues --    1.96403   1.96859   1.97913   1.98225   1.98977
 Alpha virt. eigenvalues --    1.99932   2.00180   2.01372   2.02319   2.02815
 Alpha virt. eigenvalues --    2.04042   2.04774   2.05959   2.06333   2.07229
 Alpha virt. eigenvalues --    2.07377   2.08319   2.08547   2.09822   2.10700
 Alpha virt. eigenvalues --    2.11668   2.12145   2.12801   2.13700   2.14121
 Alpha virt. eigenvalues --    2.15030   2.15656   2.16564   2.17594   2.18240
 Alpha virt. eigenvalues --    2.18315   2.19543   2.19943   2.20595   2.20932
 Alpha virt. eigenvalues --    2.23162   2.23372   2.25383   2.25749   2.26689
 Alpha virt. eigenvalues --    2.27295   2.28017   2.28785   2.29258   2.30054
 Alpha virt. eigenvalues --    2.30343   2.30459   2.31364   2.32004   2.32407
 Alpha virt. eigenvalues --    2.32931   2.33750   2.34544   2.34849   2.35720
 Alpha virt. eigenvalues --    2.36569   2.36842   2.38032   2.38940   2.40641
 Alpha virt. eigenvalues --    2.41670   2.42502   2.43093   2.43726   2.44116
 Alpha virt. eigenvalues --    2.44990   2.46559   2.47106   2.47719   2.48451
 Alpha virt. eigenvalues --    2.48779   2.49943   2.50931   2.52282   2.54046
 Alpha virt. eigenvalues --    2.54849   2.55075   2.55915   2.56158   2.56745
 Alpha virt. eigenvalues --    2.56987   2.58760   2.59054   2.59788   2.60507
 Alpha virt. eigenvalues --    2.61757   2.61888   2.62336   2.64128   2.65238
 Alpha virt. eigenvalues --    2.65869   2.67841   2.69282   2.69707   2.70457
 Alpha virt. eigenvalues --    2.71649   2.71679   2.72500   2.73967   2.74323
 Alpha virt. eigenvalues --    2.75656   2.76551   2.77434   2.78346   2.78755
 Alpha virt. eigenvalues --    2.82055   2.83118   2.84902   2.86774   2.87126
 Alpha virt. eigenvalues --    2.89770   2.90963   2.91330   2.91646   2.91992
 Alpha virt. eigenvalues --    2.93930   3.00680   3.02118   3.03604   3.04752
 Alpha virt. eigenvalues --    3.06607   3.10707   3.15756   3.34953   3.73606
 Alpha virt. eigenvalues --    3.74103   3.74245   3.76407   3.77288   3.84941
 Alpha virt. eigenvalues --    3.89639   3.91418   3.93156   3.96141   3.99044
 Alpha virt. eigenvalues --    3.99364   4.00946   4.04395   4.06201   4.07066
 Alpha virt. eigenvalues --    4.08404   4.10622   4.11916   4.14223   4.15731
 Alpha virt. eigenvalues --    4.16309   4.17643   4.18940   4.23348   4.25139
 Alpha virt. eigenvalues --    4.25987   4.27666   4.29154   4.33079   4.33816
 Alpha virt. eigenvalues --    4.36218   4.36917   4.41834   4.43451   4.47777
 Alpha virt. eigenvalues --    4.48460   4.52227   4.57266   4.57986   4.65166
 Alpha virt. eigenvalues --    4.72413
          Condensed to atoms (all electrons):
 Mulliken charges:
               1
     1  N   -0.686284
     2  H    0.312034
     3  H    0.319803
     4  C   -0.088794
     5  H    0.144110
     6  C    0.597057
     7  C   -0.272131
     8  H    0.162975
     9  H    0.148470
    10  O   -0.514321
    11  C   -0.324262
    12  H    0.211598
    13  H    0.165571
    14  C    0.558500
    15  O   -0.441434
    16  O   -0.575789
    17  N   -0.618876
    18  H    0.349523
    19  C   -0.046979
    20  H    0.218279
    21  C    0.639036
    22  C   -0.357425
    23  H    0.167330
    24  H    0.205851
    25  O   -0.583972
    26  C    0.012347
    27  C    0.010253
    28  H    0.186615
    29  C    0.079018
    30  C    0.338575
    31  C   -0.237442
    32  H    0.118768
    33  N   -0.679342
    34  H    0.348592
    35  C   -0.162506
    36  H    0.140348
    37  C   -0.161840
    38  H    0.150639
    39  C   -0.139749
    40  H    0.138416
    41  N   -0.575943
    42  H    0.411042
    43  C   -0.105470
    44  H    0.211611
    45  C    0.654326
    46  C    0.150776
    47  H    0.171102
    48  O   -0.537700
    49  C   -0.524853
    50  H    0.203361
    51  H    0.162702
    52  H    0.211866
    53  O   -0.672084
    54  H    0.484315
    55  N   -0.653889
    56  H    0.391674
    57  C   -0.017402
    58  H    0.208239
    59  C    0.597204
    60  C   -0.313030
    61  H    0.193433
    62  H    0.129969
    63  O   -0.445609
    64  C   -0.304801
    65  H    0.164331
    66  H    0.189705
    67  C   -0.160184
    68  H    0.174759
    69  H    0.168702
    70  N   -0.562970
    71  H    0.326832
    72  N   -0.718462
    73  H    0.345973
    74  H    0.351984
    75  N   -0.686633
    76  H    0.284949
    77  C    0.557750
    78  O   -0.574478
    79  H    0.437841
    80  H    0.425008
    81  H    0.411491
 Sum of Mulliken charges =   1.00000
 Mulliken charges with hydrogens summed into heavy atoms:
               1
     1  N   -0.054448
     4  C    0.055316
     6  C    0.597057
     7  C    0.039314
    10  O   -0.514321
    11  C    0.052907
    14  C    0.558500
    15  O   -0.441434
    16  O   -0.164297
    17  N   -0.269352
    19  C    0.171300
    21  C    0.639036
    22  C    0.015756
    25  O   -0.099657
    26  C    0.012347
    27  C    0.196868
    29  C    0.079018
    30  C    0.338575
    31  C   -0.118674
    33  N   -0.330750
    35  C   -0.022158
    37  C   -0.011201
    39  C   -0.001333
    41  N   -0.164901
    43  C    0.106142
    45  C    0.654326
    46  C    0.321878
    48  O   -0.537700
    49  C    0.053075
    53  O   -0.234243
    55  N   -0.262216
    57  C    0.190837
    59  C    0.597204
    60  C    0.010371
    63  O   -0.445609
    64  C    0.049235
    67  C    0.183277
    70  N   -0.236138
    72  N   -0.020504
    75  N   -0.401684
    77  C    0.557750
    78  O   -0.149470
 Electronic spatial extent (au):  <R**2>=          32157.4414
 Charge=              1.0000 electrons
 Dipole moment (field-independent basis, Debye):
    X=             10.9804    Y=              9.5061    Z=             -2.0121  Tot=             14.6624
 Quadrupole moment (field-independent basis, Debye-Ang):
   XX=           -175.7423   YY=           -207.4279   ZZ=           -212.9209
   XY=             14.7435   XZ=             -0.0566   YZ=             -7.0061
 Traceless Quadrupole moment (field-independent basis, Debye-Ang):
   XX=             22.9547   YY=             -8.7309   ZZ=            -14.2239
   XY=             14.7435   XZ=             -0.0566   YZ=             -7.0061
 Octapole moment (field-independent basis, Debye-Ang**2):
  XXX=             74.4673  YYY=           -781.5122  ZZZ=            -31.8509  XYY=             13.0336
  XXY=           -120.6226  XXZ=           -208.7724  XZZ=             94.0200  YZZ=           -189.3124
  YYZ=             -7.7671  XYZ=           -190.1433
 Hexadecapole moment (field-independent basis, Debye-Ang**3):
 XXXX=         -17004.6413 YYYY=          -5075.8815 ZZZZ=         -15689.6589 XXXY=          -1415.1692
 XXXZ=           5230.4602 YYYX=          -1208.9821 YYYZ=           1272.2820 ZZZX=           6739.0270
 ZZZY=           1653.9650 XXYY=          -3537.5186 XXZZ=          -6315.0531 YYZZ=          -3621.8882
 XXYZ=            249.9799 YYXZ=           1413.2503 ZZXY=           -530.6461
 N-N= 5.346103818382D+03 E-N=-1.544868169881D+04  KE= 2.035149642819D+03
 Unable to Open any file for archive entry.
 1\1\GINC-VIM-000\SP\RB3LYP\6-31G(d)\C26H39N8O8(1+)\KENGMITH\15-May-202
 2\0\\# B3LYP/6-31G* empiricaldispersion=gd3 guess=read geom=check nosy
 mm integral(ultrafinegrid)\\Candidate Structure: Conf:34 Charge calc i
 n gas phase\\1,1\N,0,-6.2437190761,0.611617042,3.2642543633\H,0,-6.723
 99293,1.2188780164,2.6026028716\H,0,-6.3038491914,-0.3260476659,2.8664
 378955\C,0,-4.8416387782,0.9841256502,3.3571215541\H,0,-4.7881559296,2
 .0602995424,3.5771675133\C,0,-4.0633215623,0.7081366173,2.0569707178\C
 ,0,-4.1551359674,0.2197479286,4.5111518563\H,0,-4.2089978481,-0.855667
 373,4.2938188088\H,0,-3.0922687635,0.4824646956,4.5517589861\O,0,-4.45
 37010828,-0.0818241665,1.205909323\C,0,-4.8142531941,0.5093702755,5.86
 8607973\H,0,-5.8684693448,0.2336587106,5.8482928661\H,0,-4.7451470175,
 1.5836683478,6.0853315391\C,0,-4.1476463745,-0.2409477564,6.9998753243
 \O,0,-4.6797513245,-1.0325034071,7.7412155044\O,0,-2.824532148,0.07841
 80429,7.0995666585\N,0,-2.8617118604,1.3649073985,1.9224932986\H,0,-2.
 596706158,2.0893410515,2.5753884364\C,0,-2.0706245418,1.1547846576,0.7
 324622272\H,0,-2.2473081189,0.1217062386,0.4156238386\C,0,-0.605880866
 ,1.3192962734,1.0292526224\C,0,-2.512905511,2.0633437627,-0.4679505082
 \H,0,-2.3041982809,3.1106479895,-0.2215671954\H,0,-3.600040217,1.94678
 26646,-0.5039110816\O,0,-0.2867099758,2.0269852513,2.0751923413\C,0,-1
 .8928391572,1.6769497638,-1.7729857459\C,0,-2.292135898,0.6338267263,-
 2.5815120104\H,0,-3.1120572571,-0.0599584276,-2.4513029296\C,0,-0.7635
 810756,2.2916120164,-2.4244778361\C,0,-0.5438860723,1.5782394233,-3.63
 52960168\C,0,0.0843958839,3.3671430181,-2.1036609447\H,0,-0.0629320675
 ,3.9318558667,-1.1851966799\N,0,-1.4867765471,0.5747692045,-3.69463177
 45\H,0,-1.5742829364,-0.1001212978,-4.4395933557\C,0,1.2685392767,3.01
 24710604,-4.2046502523\H,0,2.0428019802,3.3284542892,-4.8959423993\C,0
 ,0.4626674654,1.9308168225,-4.5385318911\H,0,0.6003615846,1.3895385205
 ,-5.4701567928\C,0,1.0926705789,3.7169217356,-2.9934210374\H,0,1.75609
 81632,4.5450443971,-2.7629077468\N,0,0.2855160817,0.8058904722,0.22123
 06109\H,0,-0.0290047032,0.2438194303,-0.5798268165\C,0,1.7406204642,1.
 0413242862,0.1781213898\H,0,1.9459956063,2.1141016591,0.2659935\C,0,2.
 1543512578,0.5211796926,-1.2221742821\C,0,2.441625248,0.2983201917,1.3
 376085575\H,0,2.0202157687,-0.7143095603,1.3850726799\O,0,1.448650348,
 -0.3210999167,-1.7775573454\C,0,3.9581410322,0.2521143521,1.2726584858
 \H,0,4.29817586,-0.3113956538,0.4003286362\H,0,4.33887405,-0.250714357
 4,2.169061082\H,0,4.3573544893,1.2682884217,1.2429072169\O,0,2.0329964
 197,1.0469708824,2.5148151093\H,0,0.6669578238,1.833473297,2.360165076
 4\N,0,3.2852332894,1.0255606889,-1.7335099832\H,0,3.8068592351,1.73816
 79756,-1.2159479917\C,0,3.7912230337,0.53301579,-3.0133871536\H,0,3.01
 03649286,0.6612387423,-3.7689938754\C,0,4.1017599337,-0.9636931139,-2.
 9943862029\C,0,5.0602790654,1.3029783166,-3.4346328317\H,0,5.529358113
 8,0.7520893688,-4.2554149951\H,0,5.7651545411,1.2689734075,-2.59385296
 74\O,0,4.1021967759,-1.6473242992,-3.9875408009\C,0,4.7679027491,2.755
 3770612,-3.8603059089\H,0,4.5407260346,2.7846648566,-4.9324678149\H,0,
 3.8713987906,3.1158451554,-3.3487869634\C,0,5.9038342836,3.7481624078,
 -3.5636742318\H,0,6.8225450756,3.4823215795,-4.0953376726\H,0,5.616488
 1401,4.744668028,-3.9140506304\N,0,6.2554186141,3.817091005,-2.1271415
 099\H,0,6.946505714,3.1245115071,-1.8645706932\N,0,4.2923520464,4.8718
 429274,-1.4536093762\H,0,3.6642053242,5.0350536883,-0.6767409298\H,0,4
 .6679306443,5.7236366868,-1.8523966987\N,0,5.0339083674,3.0768615594,-
 0.1948270595\H,0,5.759618945,2.3571238835,-0.1851209126\C,0,5.21822996
 84,3.8783743978,-1.1991114166\O,0,4.4582248211,-1.4213454948,-1.767670
 5375\H,0,2.3093835291,0.5860071788,3.3233331612\H,0,4.6652005183,-2.36
 91654389,-1.8789982036\H,0,-2.4825357483,-0.4366892695,7.8547690983\\V
 ersion=ES64L-G16RevC.01\HF=-2054.0216423\RMSD=4.783e-09\Dipole=3.42244
 58,1.3797277,-0.6295915\Quadrupole=17.0662683,-6.4911776,-10.5750907,1
 0.9614003,-0.0420686,-5.2088647\PG=C01 [X(C26H39N8O8)]\\@
 The archive entry for this job was punched.


 TRUST EVERYONE, BUT CUT THE CARDS.
 Job cpu time:       0 days  0 hours  3 minutes 25.7 seconds.
 Elapsed time:       0 days  0 hours  0 minutes 52.3 seconds.
 File lengths (MBytes):  RWF=    376 Int=      0 D2E=      0 Chk=     56 Scr=     16
 Normal termination of Gaussian 16 at Sun May 15 18:54:46 2022.
