 Entering Gaussian System, Link 0=/opt/software/Gaussian/g16-AVX2-C.01/g16/g16
 Input=charge-conf-879.com
 Output=charge-conf-879.log
 Initial command:
 /opt/software/Gaussian/g16-AVX2-C.01/g16/l1.exe "/mnt/gs21/scratch/kengmith/Gau-12871.inp" -scrdir="/mnt/gs21/scratch/kengmith/"
 Entering Link 1 = /opt/software/Gaussian/g16-AVX2-C.01/g16/l1.exe PID=     12882.
  
 Copyright (c) 1988-2019, Gaussian, Inc.  All Rights Reserved.
  
 This is part of the Gaussian(R) 16 program.  It is based on
 the Gaussian(R) 09 system (copyright 2009, Gaussian, Inc.),
 the Gaussian(R) 03 system (copyright 2003, Gaussian, Inc.),
 the Gaussian(R) 98 system (copyright 1998, Gaussian, Inc.),
 the Gaussian(R) 94 system (copyright 1995, Gaussian, Inc.),
 the Gaussian 92(TM) system (copyright 1992, Gaussian, Inc.),
 the Gaussian 90(TM) system (copyright 1990, Gaussian, Inc.),
 the Gaussian 88(TM) system (copyright 1988, Gaussian, Inc.),
 the Gaussian 86(TM) system (copyright 1986, Carnegie Mellon
 University), and the Gaussian 82(TM) system (copyright 1983,
 Carnegie Mellon University). Gaussian is a federally registered
 trademark of Gaussian, Inc.
  
 This software contains proprietary and confidential information,
 including trade secrets, belonging to Gaussian, Inc.
  
 This software is provided under written license and may be
 used, copied, transmitted, or stored only in accord with that
 written license.
  
 The following legend is applicable only to US Government
 contracts under FAR:
  
                    RESTRICTED RIGHTS LEGEND
  
 Use, reproduction and disclosure by the US Government is
 subject to restrictions as set forth in subparagraphs (a)
 and (c) of the Commercial Computer Software - Restricted
 Rights clause in FAR 52.227-19.
  
 Gaussian, Inc.
 340 Quinnipiac St., Bldg. 40, Wallingford CT 06492
  
  
 ---------------------------------------------------------------
 Warning -- This program may not be used in any manner that
 competes with the business of Gaussian, Inc. or will provide
 assistance to any competitor of Gaussian, Inc.  The licensee
 of this program is prohibited from giving any competitor of
 Gaussian, Inc. access to this program.  By using this program,
 the user acknowledges that Gaussian, Inc. is engaged in the
 business of creating and licensing software in the field of
 computational chemistry and represents and warrants to the
 licensee that it is not a competitor of Gaussian, Inc. and that
 it will not use this program in any manner prohibited above.
 ---------------------------------------------------------------
  

 Cite this work as:
 Gaussian 16, Revision C.01,
 M. J. Frisch, G. W. Trucks, H. B. Schlegel, G. E. Scuseria, 
 M. A. Robb, J. R. Cheeseman, G. Scalmani, V. Barone, 
 G. A. Petersson, H. Nakatsuji, X. Li, M. Caricato, A. V. Marenich, 
 J. Bloino, B. G. Janesko, R. Gomperts, B. Mennucci, H. P. Hratchian, 
 J. V. Ortiz, A. F. Izmaylov, J. L. Sonnenberg, D. Williams-Young, 
 F. Ding, F. Lipparini, F. Egidi, J. Goings, B. Peng, A. Petrone, 
 T. Henderson, D. Ranasinghe, V. G. Zakrzewski, J. Gao, N. Rega, 
 G. Zheng, W. Liang, M. Hada, M. Ehara, K. Toyota, R. Fukuda, 
 J. Hasegawa, M. Ishida, T. Nakajima, Y. Honda, O. Kitao, H. Nakai, 
 T. Vreven, K. Throssell, J. A. Montgomery, Jr., J. E. Peralta, 
 F. Ogliaro, M. J. Bearpark, J. J. Heyd, E. N. Brothers, K. N. Kudin, 
 V. N. Staroverov, T. A. Keith, R. Kobayashi, J. Normand, 
 K. Raghavachari, A. P. Rendell, J. C. Burant, S. S. Iyengar, 
 J. Tomasi, M. Cossi, J. M. Millam, M. Klene, C. Adamo, R. Cammi, 
 J. W. Ochterski, R. L. Martin, K. Morokuma, O. Farkas, 
 J. B. Foresman, and D. J. Fox, Gaussian, Inc., Wallingford CT, 2019.
 
 ******************************************
 Gaussian 16:  ES64L-G16RevC.01  3-Jul-2019
                 8-Sep-2022 
 ******************************************
 %mem=8gb
 %nproc=4
 Will use up to    4 processors via shared memory.
 %chk=conf-879.chk
 ----------------------------------------------------------------------
 # B3LYP/6-31G** empiricaldispersion=gd3bj guess=read geom=check nosymm
  integral(ultrafinegrid)
 ----------------------------------------------------------------------
 1/29=2,38=1,172=1/1;
 2/12=2,15=1,40=1/2;
 3/5=1,6=6,7=101,11=2,14=-4,25=1,30=1,74=-5,75=-5,116=-2,124=41/1,2,3;
 4/5=1/1;
 5/5=2,38=6/2;
 6/7=2,8=2,9=2,10=2,28=1/1;
 99/5=1,9=1/99;
 ------------------------------------------------------
 Candidate Structure: Conf:879 Charge calc in gas phase
 ------------------------------------------------------
 Structure from the checkpoint file:  "conf-879.chk"
 Charge =  1 Multiplicity = 1
 Redundant internal coordinates found in file.  (old form).
 N,0,-5.4154448695,-3.1374981341,-5.4675831641
 H,0,-4.8171569006,-2.7343880897,-6.2088495093
 H,0,-6.3669668672,-3.2793012824,-5.8094992978
 H,0,-4.9547665983,-4.0319906048,-5.1839708199
 C,0,-5.3405755746,-2.2948773502,-4.2158558776
 H,0,-5.2502147676,-1.2565820746,-4.5336185079
 C,0,-4.0197742787,-2.7930723876,-3.5975441032
 C,0,-6.5841447852,-2.4929163071,-3.3259918091
 H,0,-7.4449405098,-2.1721902042,-3.932162298
 O,0,-3.6639185727,-3.9492397349,-3.855678122
 C,0,-6.5219596585,-1.5688077151,-2.0929257717
 H,0,-5.6829422894,-1.8717055161,-1.4552187288
 H,0,-7.4264562815,-1.7617920933,-1.5075114123
 C,0,-6.7837594918,-3.9564918087,-2.9105522968
 H,0,-5.9464743479,-4.3190715098,-2.3087033945
 H,0,-7.6942837458,-4.0463189103,-2.3139988954
 H,0,-6.8961114076,-4.6335799856,-3.7643847003
 C,0,-6.4415387187,-0.0708975889,-2.4018365639
 H,0,-6.5111406413,0.5112930563,-1.4803761562
 H,0,-5.5017230148,0.2226556916,-2.8842079668
 H,0,-7.2598129764,0.245171791,-3.0573924105
 N,0,-3.3194827323,-1.919994409,-2.8738164809
 H,0,-3.6780464984,-1.0064102776,-2.6108571896
 C,0,-1.9145854416,-2.1150054323,-2.5642849198
 H,0,-1.7403112161,-3.1785817573,-2.3907760753
 C,0,-1.6406179454,-1.2602775635,-1.320642226
 C,0,-1.016282189,-1.5974012462,-3.7417671849
 H,0,-0.0127469949,-2.0146161863,-3.6167863028
 H,0,-0.9308827658,-0.51070961,-3.6436752599
 O,0,-2.3781295376,-0.3068395541,-1.0717983199
 C,0,-1.5780921969,-1.9312850503,-5.1039929312
 C,0,-2.432275393,-1.0258007125,-5.7460033878
 H,0,-2.6127497674,-0.0527765865,-5.2974436937
 C,0,-1.3299422622,-3.1662661172,-5.7160641131
 H,0,-0.6737321334,-3.881434991,-5.2296782732
 C,0,-3.0365349159,-1.3472755969,-6.9666485741
 H,0,-3.6592867799,-0.613949859,-7.4714353889
 C,0,-1.9287346179,-3.496884157,-6.9298195729
 H,0,-1.7175323703,-4.4556282975,-7.3918511677
 C,0,-2.7886428574,-2.5907585879,-7.5604726229
 H,0,-3.2262611931,-2.8337759956,-8.5241988167
 N,0,-0.5455359151,-1.5861636426,-0.6090959719
 H,0,0.0573468141,-2.347775099,-0.8944205705
 C,0,-0.0247967361,-0.7420287112,0.4633800575
 H,0,-0.5268120486,0.2252468929,0.3737769289
 C,0,1.4761834944,-0.6222856749,0.2026662782
 C,0,-0.2945062881,-1.3253315304,1.8712050958
 H,0,0.2503355959,-2.2793146803,1.9221413213
 O,0,2.1288790963,-1.6555403103,-0.0477168754
 C,0,0.2505392446,-0.3824914057,2.9520187678
 H,0,-0.263050756,0.585535748,2.9099808863
 H,0,0.0652451732,-0.8008042762,3.9452538243
 H,0,1.3244036353,-0.2032622845,2.8516570054
 C,0,-1.7875860016,-1.6003824931,2.0709349515
 H,0,-2.3697162054,-0.6787796828,1.971813291
 H,0,-2.1689822551,-2.3202130508,1.3420296728
 H,0,-1.9645805447,-2.0072988179,3.07037562
 N,0,1.9920118759,0.6091573227,0.2170926354
 H,0,1.4006183906,1.3776299891,0.5027040022
 C,0,3.4107175744,0.8833446325,0.0458745395
 H,0,3.7676872234,0.1894038009,-0.7232167082
 C,0,4.1817021551,0.5513785704,1.3415065801
 C,0,3.6307250174,2.3303082846,-0.4241083057
 H,0,4.6545259537,2.4220043162,-0.7971345503
 H,0,2.9749169261,2.5327394278,-1.2768231318
 O,0,3.6169789034,-0.0675958333,2.281847606
 C,0,3.4096737796,3.3893551533,0.6672105699
 H,0,4.0355228473,3.1712814062,1.5347860046
 H,0,2.3615842772,3.4250138725,0.9826429104
 C,0,3.749483522,4.7702556042,0.097257993
 N,0,5.0198269582,5.1669799949,0.3306800249
 H,0,5.7145564996,4.554797038,0.7733105818
 H,0,5.3152637003,6.0351175707,-0.090535698
 O,0,2.9184250901,5.402526924,-0.5491023653
 N,0,5.4487433697,0.9174728947,1.3381357993
 H,0,5.7763191276,1.7092268308,0.7298837696
 C,0,6.2844461352,1.0592313934,2.5342013107
 H,0,5.6311317243,1.1219891928,3.4109678623
 C,0,6.9956740118,2.4562667405,2.340746052
 C,0,7.2845252781,-0.0779720612,2.738844816
 H,0,7.8850752421,0.207898256,3.6058379319
 H,0,7.9735654958,-0.1246026266,1.8861191797
 O,0,7.7652230902,2.8109816022,3.2274547825
 C,0,6.6225207267,-1.448297103,2.9623600273
 H,0,7.2828894845,-2.0980479492,3.5486214417
 H,0,5.7221635199,-1.2990122951,3.572299964
 C,0,6.2659381906,-2.1852758478,1.6551013019
 H,0,7.1599649243,-2.6763534977,1.2568793214
 H,0,5.9461942456,-1.4771103408,0.8842025284
 C,0,5.1905946929,-3.2538469189,1.8390339303
 H,0,5.149793841,-3.9533422234,1.0012686224
 H,0,5.3639389656,-3.8254095233,2.7541991929
 N,0,3.8235228652,-2.6237687745,1.9589779506
 H,0,3.1869978318,-3.1860041955,2.5233016535
 H,0,3.3578188414,-2.4571019237,1.0456184815
 H,0,3.8532777281,-1.6283657287,2.3477484896
 O,0,6.6568142068,3.0398479493,1.2466886866
 Recover connectivity data from disk.
                           ----------------------------
                           !    Current Parameters    !
                           ! (Angstroms and Degrees)  !
 --------------------------                            --------------------------
 ! Name  Definition              Value                                          !
 --------------------------------------------------------------------------------
 ! R1    R(1,2)                  1.0344                                         !
 ! R2    R(1,3)                  1.021                                          !
 ! R3    R(1,4)                  1.0454                                         !
 ! R4    R(1,5)                  1.5108                                         !
 ! R5    R(5,6)                  1.0896                                         !
 ! R6    R(5,7)                  1.5411                                         !
 ! R7    R(5,8)                  1.5419                                         !
 ! R8    R(7,10)                 1.2369                                         !
 ! R9    R(7,22)                 1.3328                                         !
 ! R10   R(8,9)                  1.1006                                         !
 ! R11   R(8,11)                 1.5422                                         !
 ! R12   R(8,14)                 1.5344                                         !
 ! R13   R(11,12)                1.0965                                         !
 ! R14   R(11,13)                1.0946                                         !
 ! R15   R(11,18)                1.5315                                         !
 ! R16   R(14,15)                1.093                                          !
 ! R17   R(14,16)                1.0922                                         !
 ! R18   R(14,17)                1.0955                                         !
 ! R19   R(18,19)                1.0922                                         !
 ! R20   R(18,20)                1.0964                                         !
 ! R21   R(18,21)                1.0951                                         !
 ! R22   R(22,23)                1.016                                          !
 ! R23   R(22,24)                1.4517                                         !
 ! R24   R(24,25)                1.0916                                         !
 ! R25   R(24,26)                1.5337                                         !
 ! R26   R(24,27)                1.5689                                         !
 ! R27   R(26,30)                1.2308                                         !
 ! R28   R(26,42)                1.346                                          !
 ! R29   R(27,28)                1.094                                          !
 ! R30   R(27,29)                1.0944                                         !
 ! R31   R(27,31)                1.5109                                         !
 ! R32   R(31,32)                1.4006                                         !
 ! R33   R(31,34)                1.4005                                         !
 ! R34   R(32,33)                1.0865                                         !
 ! R35   R(32,36)                1.3994                                         !
 ! R36   R(34,35)                1.0857                                         !
 ! R37   R(34,38)                1.3932                                         !
 ! R38   R(36,37)                1.0865                                         !
 ! R39   R(36,40)                1.4001                                         !
 ! R40   R(38,39)                1.085                                          !
 ! R41   R(38,40)                1.3994                                         !
 ! R42   R(40,41)                1.086                                          !
 ! R43   R(42,43)                1.0124                                         !
 ! R44   R(42,44)                1.4608                                         !
 ! R45   R(44,45)                1.0935                                         !
 ! R46   R(44,46)                1.5282                                         !
 ! R47   R(44,47)                1.5476                                         !
 ! R48   R(46,49)                1.2475                                         !
 ! R49   R(46,58)                1.3352                                         !
 ! R50   R(47,48)                1.0998                                         !
 ! R51   R(47,50)                1.5343                                         !
 ! R52   R(47,54)                1.5313                                         !
 ! R53   R(50,51)                1.0966                                         !
 ! R54   R(50,52)                1.0935                                         !
 ! R55   R(50,53)                1.0933                                         !
 ! R56   R(54,55)                1.0946                                         !
 ! R57   R(54,56)                1.0931                                         !
 ! R58   R(54,57)                1.0935                                         !
 ! R59   R(58,59)                1.0109                                         !
 ! R60   R(58,60)                1.4551                                         !
 ! R61   R(60,61)                1.0957                                         !
 ! R62   R(60,62)                1.5438                                         !
 ! R63   R(60,63)                1.5372                                         !
 ! R64   R(62,66)                1.2595                                         !
 ! R65   R(62,75)                1.3189                                         !
 ! R66   R(63,64)                1.0935                                         !
 ! R67   R(63,65)                1.0946                                         !
 ! R68   R(63,67)                1.5367                                         !
 ! R69   R(67,68)                1.0918                                         !
 ! R70   R(67,69)                1.0951                                         !
 ! R71   R(67,70)                1.5321                                         !
 ! R72   R(70,71)                1.3512                                         !
 ! R73   R(70,74)                1.2281                                         !
 ! R74   R(71,72)                1.0263                                         !
 ! R75   R(71,73)                1.0091                                         !
 ! R76   R(75,76)                1.0508                                         !
 ! R77   R(75,77)                1.466                                          !
 ! R78   R(77,78)                1.0952                                         !
 ! R79   R(77,79)                1.5795                                         !
 ! R80   R(77,80)                1.5282                                         !
 ! R81   R(79,83)                1.2265                                         !
 ! R82   R(79,97)                1.2854                                         !
 ! R83   R(80,81)                1.0927                                         !
 ! R84   R(80,82)                1.0973                                         !
 ! R85   R(80,84)                1.5382                                         !
 ! R86   R(84,85)                1.0963                                         !
 ! R87   R(84,86)                1.0977                                         !
 ! R88   R(84,87)                1.5425                                         !
 ! R89   R(87,88)                1.095                                          !
 ! R90   R(87,89)                1.0945                                         !
 ! R91   R(87,90)                1.5271                                         !
 ! R92   R(90,91)                1.0922                                         !
 ! R93   R(90,92)                1.0928                                         !
 ! R94   R(90,93)                1.5101                                         !
 ! R95   R(93,94)                1.0197                                         !
 ! R96   R(93,95)                1.0387                                         !
 ! R97   R(93,96)                1.069                                          !
 ! A1    A(2,1,3)              110.6826                                         !
 ! A2    A(2,1,4)              105.8429                                         !
 ! A3    A(2,1,5)              110.3487                                         !
 ! A4    A(3,1,4)              112.5023                                         !
 ! A5    A(3,1,5)              113.648                                          !
 ! A6    A(4,1,5)              103.3337                                         !
 ! A7    A(1,5,6)              107.0956                                         !
 ! A8    A(1,5,7)              101.2207                                         !
 ! A9    A(1,5,8)              111.5033                                         !
 ! A10   A(6,5,7)              110.7312                                         !
 ! A11   A(6,5,8)              110.9517                                         !
 ! A12   A(7,5,8)              114.7176                                         !
 ! A13   A(5,7,10)             117.7103                                         !
 ! A14   A(5,7,22)             117.1552                                         !
 ! A15   A(10,7,22)            125.0606                                         !
 ! A16   A(5,8,9)              105.992                                          !
 ! A17   A(5,8,11)             110.6069                                         !
 ! A18   A(5,8,14)             112.5614                                         !
 ! A19   A(9,8,11)             107.2951                                         !
 ! A20   A(9,8,14)             108.9856                                         !
 ! A21   A(11,8,14)            111.1199                                         !
 ! A22   A(8,11,12)            109.2888                                         !
 ! A23   A(8,11,13)            106.7781                                         !
 ! A24   A(8,11,18)            115.2717                                         !
 ! A25   A(12,11,13)           105.8157                                         !
 ! A26   A(12,11,18)           110.3218                                         !
 ! A27   A(13,11,18)           108.8873                                         !
 ! A28   A(8,14,15)            111.4584                                         !
 ! A29   A(8,14,16)            109.5581                                         !
 ! A30   A(8,14,17)            113.0696                                         !
 ! A31   A(15,14,16)           108.0928                                         !
 ! A32   A(15,14,17)           107.6195                                         !
 ! A33   A(16,14,17)           106.8199                                         !
 ! A34   A(11,18,19)           110.3544                                         !
 ! A35   A(11,18,20)           113.304                                          !
 ! A36   A(11,18,21)           111.3333                                         !
 ! A37   A(19,18,20)           106.4447                                         !
 ! A38   A(19,18,21)           107.6731                                         !
 ! A39   A(20,18,21)           107.4487                                         !
 ! A40   A(7,22,23)            122.9636                                         !
 ! A41   A(7,22,24)            122.428                                          !
 ! A42   A(23,22,24)           114.0236                                         !
 ! A43   A(22,24,25)           108.618                                          !
 ! A44   A(22,24,26)           105.7175                                         !
 ! A45   A(22,24,27)           110.4728                                         !
 ! A46   A(25,24,26)           112.679                                          !
 ! A47   A(25,24,27)           110.446                                          !
 ! A48   A(26,24,27)           108.8106                                         !
 ! A49   A(24,26,30)           119.2492                                         !
 ! A50   A(24,26,42)           116.044                                          !
 ! A51   A(30,26,42)           124.6234                                         !
 ! A52   A(24,27,28)           108.2811                                         !
 ! A53   A(24,27,29)           107.7579                                         !
 ! A54   A(24,27,31)           113.0085                                         !
 ! A55   A(28,27,29)           107.2688                                         !
 ! A56   A(28,27,31)           111.0897                                         !
 ! A57   A(29,27,31)           109.2228                                         !
 ! A58   A(27,31,32)           119.814                                          !
 ! A59   A(27,31,34)           121.5352                                         !
 ! A60   A(32,31,34)           118.5431                                         !
 ! A61   A(31,32,33)           119.4076                                         !
 ! A62   A(31,32,36)           120.9731                                         !
 ! A63   A(33,32,36)           119.6096                                         !
 ! A64   A(31,34,35)           119.4847                                         !
 ! A65   A(31,34,38)           120.9205                                         !
 ! A66   A(35,34,38)           119.588                                          !
 ! A67   A(32,36,37)           119.8479                                         !
 ! A68   A(32,36,40)           119.8351                                         !
 ! A69   A(37,36,40)           120.2575                                         !
 ! A70   A(34,38,39)           119.8019                                         !
 ! A71   A(34,38,40)           120.2028                                         !
 ! A72   A(39,38,40)           119.9915                                         !
 ! A73   A(36,40,38)           119.521                                          !
 ! A74   A(36,40,41)           120.2503                                         !
 ! A75   A(38,40,41)           120.1764                                         !
 ! A76   A(26,42,43)           121.1746                                         !
 ! A77   A(26,42,44)           122.563                                          !
 ! A78   A(43,42,44)           115.4262                                         !
 ! A79   A(42,44,45)           106.6994                                         !
 ! A80   A(42,44,46)           105.6739                                         !
 ! A81   A(42,44,47)           112.8268                                         !
 ! A82   A(45,44,46)           111.5705                                         !
 ! A83   A(45,44,47)           109.1444                                         !
 ! A84   A(46,44,47)           110.8497                                         !
 ! A85   A(44,46,49)           118.8967                                         !
 ! A86   A(44,46,58)           116.7366                                         !
 ! A87   A(49,46,58)           124.3279                                         !
 ! A88   A(44,47,48)           106.4238                                         !
 ! A89   A(44,47,50)           110.3216                                         !
 ! A90   A(44,47,54)           110.8725                                         !
 ! A91   A(48,47,50)           108.9304                                         !
 ! A92   A(48,47,54)           108.7354                                         !
 ! A93   A(50,47,54)           111.3994                                         !
 ! A94   A(47,50,51)           110.4297                                         !
 ! A95   A(47,50,52)           110.1543                                         !
 ! A96   A(47,50,53)           112.6424                                         !
 ! A97   A(51,50,52)           107.0454                                         !
 ! A98   A(51,50,53)           108.1658                                         !
 ! A99   A(52,50,53)           108.2105                                         !
 ! A100  A(47,54,55)           110.8254                                         !
 ! A101  A(47,54,56)           111.8086                                         !
 ! A102  A(47,54,57)           110.1128                                         !
 ! A103  A(55,54,56)           107.9693                                         !
 ! A104  A(55,54,57)           108.0593                                         !
 ! A105  A(56,54,57)           107.9343                                         !
 ! A106  A(46,58,59)           118.566                                          !
 ! A107  A(46,58,60)           123.3122                                         !
 ! A108  A(59,58,60)           117.4134                                         !
 ! A109  A(58,60,61)           106.3146                                         !
 ! A110  A(58,60,62)           110.344                                          !
 ! A111  A(58,60,63)           110.6646                                         !
 ! A112  A(61,60,62)           106.8703                                         !
 ! A113  A(61,60,63)           109.5684                                         !
 ! A114  A(62,60,63)           112.8007                                         !
 ! A115  A(60,62,66)           120.5541                                         !
 ! A116  A(60,62,75)           114.7052                                         !
 ! A117  A(66,62,75)           124.6863                                         !
 ! A118  A(60,63,64)           108.4956                                         !
 ! A119  A(60,63,65)           109.0567                                         !
 ! A120  A(60,63,67)           114.2677                                         !
 ! A121  A(64,63,65)           106.2414                                         !
 ! A122  A(64,63,67)           108.6117                                         !
 ! A123  A(65,63,67)           109.8523                                         !
 ! A124  A(63,67,68)           110.1346                                         !
 ! A125  A(63,67,69)           111.3873                                         !
 ! A126  A(63,67,70)           108.9701                                         !
 ! A127  A(68,67,69)           109.0413                                         !
 ! A128  A(68,67,70)           110.3968                                         !
 ! A129  A(69,67,70)           106.8629                                         !
 ! A130  A(67,70,71)           114.1365                                         !
 ! A131  A(67,70,74)           120.6471                                         !
 ! A132  A(71,70,74)           125.1688                                         !
 ! A133  A(70,71,72)           122.3975                                         !
 ! A134  A(70,71,73)           117.1119                                         !
 ! A135  A(72,71,73)           119.6684                                         !
 ! A136  A(62,75,76)           120.6721                                         !
 ! A137  A(62,75,77)           124.9192                                         !
 ! A138  A(76,75,77)           102.8091                                         !
 ! A139  A(75,77,78)           108.5807                                         !
 ! A140  A(75,77,79)           104.0215                                         !
 ! A141  A(75,77,80)           114.2282                                         !
 ! A142  A(78,77,79)           108.419                                          !
 ! A143  A(78,77,80)           109.0153                                         !
 ! A144  A(79,77,80)           112.3279                                         !
 ! A145  A(77,79,83)           116.7287                                         !
 ! A146  A(77,79,97)           112.7728                                         !
 ! A147  A(83,79,97)           130.4985                                         !
 ! A148  A(77,80,81)           105.7379                                         !
 ! A149  A(77,80,82)           109.7855                                         !
 ! A150  A(77,80,84)           113.6258                                         !
 ! A151  A(81,80,82)           106.4144                                         !
 ! A152  A(81,80,84)           110.7506                                         !
 ! A153  A(82,80,84)           110.2011                                         !
 ! A154  A(80,84,85)           110.2702                                         !
 ! A155  A(80,84,86)           108.2155                                         !
 ! A156  A(80,84,87)           113.7028                                         !
 ! A157  A(85,84,86)           106.1121                                         !
 ! A158  A(85,84,87)           108.016                                          !
 ! A159  A(86,84,87)           110.2601                                         !
 ! A160  A(84,87,88)           109.4963                                         !
 ! A161  A(84,87,89)           110.8127                                         !
 ! A162  A(84,87,90)           113.2683                                         !
 ! A163  A(88,87,89)           105.815                                          !
 ! A164  A(88,87,90)           107.7534                                         !
 ! A165  A(89,87,90)           109.3813                                         !
 ! A166  A(87,90,91)           112.4624                                         !
 ! A167  A(87,90,92)           110.8022                                         !
 ! A168  A(87,90,93)           110.7992                                         !
 ! A169  A(91,90,92)           108.2596                                         !
 ! A170  A(91,90,93)           107.1184                                         !
 ! A171  A(92,90,93)           107.1764                                         !
 ! A172  A(90,93,94)           112.2734                                         !
 ! A173  A(90,93,95)           113.7664                                         !
 ! A174  A(90,93,96)           113.0915                                         !
 ! A175  A(94,93,95)           107.1723                                         !
 ! A176  A(94,93,96)           109.2394                                         !
 ! A177  A(95,93,96)           100.5361                                         !
 ! D1    D(2,1,5,6)             35.3927                                         !
 ! D2    D(2,1,5,7)            -80.6206                                         !
 ! D3    D(2,1,5,8)            156.9444                                         !
 ! D4    D(3,1,5,6)            -89.6113                                         !
 ! D5    D(3,1,5,7)            154.3755                                         !
 ! D6    D(3,1,5,8)             31.9404                                         !
 ! D7    D(4,1,5,6)            148.1693                                         !
 ! D8    D(4,1,5,7)             32.1561                                         !
 ! D9    D(4,1,5,8)            -90.2789                                         !
 ! D10   D(1,5,7,10)           -27.4728                                         !
 ! D11   D(1,5,7,22)           149.5607                                         !
 ! D12   D(6,5,7,10)          -140.7718                                         !
 ! D13   D(6,5,7,22)            36.2617                                         !
 ! D14   D(8,5,7,10)            92.7065                                         !
 ! D15   D(8,5,7,22)           -90.26                                           !
 ! D16   D(1,5,8,9)            -61.0045                                         !
 ! D17   D(1,5,8,11)          -176.9914                                         !
 ! D18   D(1,5,8,14)            58.0436                                         !
 ! D19   D(6,5,8,9)             58.2822                                         !
 ! D20   D(6,5,8,11)           -57.7047                                         !
 ! D21   D(6,5,8,14)           177.3303                                         !
 ! D22   D(7,5,8,9)           -175.3097                                         !
 ! D23   D(7,5,8,11)            68.7034                                         !
 ! D24   D(7,5,8,14)           -56.2616                                         !
 ! D25   D(5,7,22,23)            8.8653                                         !
 ! D26   D(5,7,22,24)         -161.8385                                         !
 ! D27   D(10,7,22,23)        -174.3435                                         !
 ! D28   D(10,7,22,24)          14.9528                                         !
 ! D29   D(5,8,11,12)          -65.7929                                         !
 ! D30   D(5,8,11,13)         -179.8163                                         !
 ! D31   D(5,8,11,18)           59.1046                                         !
 ! D32   D(9,8,11,12)          179.034                                          !
 ! D33   D(9,8,11,13)           65.0106                                         !
 ! D34   D(9,8,11,18)          -56.0685                                         !
 ! D35   D(14,8,11,12)          59.9859                                         !
 ! D36   D(14,8,11,13)         -54.0375                                         !
 ! D37   D(14,8,11,18)        -175.1167                                         !
 ! D38   D(5,8,14,15)           62.4305                                         !
 ! D39   D(5,8,14,16)         -177.9814                                         !
 ! D40   D(5,8,14,17)          -58.9635                                         !
 ! D41   D(9,8,14,15)          179.7169                                         !
 ! D42   D(9,8,14,16)          -60.695                                          !
 ! D43   D(9,8,14,17)           58.3228                                         !
 ! D44   D(11,8,14,15)         -62.2534                                         !
 ! D45   D(11,8,14,16)          57.3347                                         !
 ! D46   D(11,8,14,17)         176.3525                                         !
 ! D47   D(8,11,18,19)         173.8399                                         !
 ! D48   D(8,11,18,20)         -66.9136                                         !
 ! D49   D(8,11,18,21)          54.3339                                         !
 ! D50   D(12,11,18,19)        -61.8013                                         !
 ! D51   D(12,11,18,20)         57.4453                                         !
 ! D52   D(12,11,18,21)        178.6927                                         !
 ! D53   D(13,11,18,19)         53.9126                                         !
 ! D54   D(13,11,18,20)        173.1591                                         !
 ! D55   D(13,11,18,21)        -65.5934                                         !
 ! D56   D(7,22,24,25)         -36.9521                                         !
 ! D57   D(7,22,24,26)        -158.1147                                         !
 ! D58   D(7,22,24,27)          84.3294                                         !
 ! D59   D(23,22,24,25)        151.5814                                         !
 ! D60   D(23,22,24,26)         30.4188                                         !
 ! D61   D(23,22,24,27)        -87.1371                                         !
 ! D62   D(22,24,26,30)        -22.9881                                         !
 ! D63   D(22,24,26,42)        160.1789                                         !
 ! D64   D(25,24,26,30)       -141.4809                                         !
 ! D65   D(25,24,26,42)         41.6861                                         !
 ! D66   D(27,24,26,30)         95.6784                                         !
 ! D67   D(27,24,26,42)        -81.1546                                         !
 ! D68   D(22,24,27,28)       -163.6549                                         !
 ! D69   D(22,24,27,29)         80.6187                                         !
 ! D70   D(22,24,27,31)        -40.1512                                         !
 ! D71   D(25,24,27,28)        -43.4642                                         !
 ! D72   D(25,24,27,29)       -159.1905                                         !
 ! D73   D(25,24,27,31)         80.0396                                         !
 ! D74   D(26,24,27,28)         80.7094                                         !
 ! D75   D(26,24,27,29)        -35.0169                                         !
 ! D76   D(26,24,27,31)       -155.7868                                         !
 ! D77   D(24,26,42,43)          0.5269                                         !
 ! D78   D(24,26,42,44)        169.5742                                         !
 ! D79   D(30,26,42,43)       -176.115                                          !
 ! D80   D(30,26,42,44)         -7.0677                                         !
 ! D81   D(24,27,31,32)         90.9893                                         !
 ! D82   D(24,27,31,34)        -85.1815                                         !
 ! D83   D(28,27,31,32)       -147.071                                          !
 ! D84   D(28,27,31,34)         36.7582                                         !
 ! D85   D(29,27,31,32)        -28.944                                          !
 ! D86   D(29,27,31,34)        154.8852                                         !
 ! D87   D(27,31,32,33)          5.4093                                         !
 ! D88   D(27,31,32,36)       -175.7336                                         !
 ! D89   D(34,31,32,33)       -178.3057                                         !
 ! D90   D(34,31,32,36)          0.5514                                         !
 ! D91   D(27,31,34,35)         -3.5122                                         !
 ! D92   D(27,31,34,38)        175.5368                                         !
 ! D93   D(32,31,34,35)       -179.7303                                         !
 ! D94   D(32,31,34,38)         -0.6813                                         !
 ! D95   D(31,32,36,37)       -177.1739                                         !
 ! D96   D(31,32,36,40)          0.0281                                         !
 ! D97   D(33,32,36,37)          1.6809                                         !
 ! D98   D(33,32,36,40)        178.883                                          !
 ! D99   D(31,34,38,39)        179.5175                                         !
 ! D100  D(31,34,38,40)          0.2311                                         !
 ! D101  D(35,34,38,39)         -1.4346                                         !
 ! D102  D(35,34,38,40)        179.279                                          !
 ! D103  D(32,36,40,38)         -0.4876                                         !
 ! D104  D(32,36,40,41)       -177.8615                                         !
 ! D105  D(37,36,40,38)        176.7028                                         !
 ! D106  D(37,36,40,41)         -0.6711                                         !
 ! D107  D(34,38,40,36)          0.3607                                         !
 ! D108  D(34,38,40,41)        177.7366                                         !
 ! D109  D(39,38,40,36)       -178.9243                                         !
 ! D110  D(39,38,40,41)         -1.5484                                         !
 ! D111  D(26,42,44,45)        -13.279                                          !
 ! D112  D(26,42,44,46)       -132.1499                                         !
 ! D113  D(26,42,44,47)        106.5728                                         !
 ! D114  D(43,42,44,45)        156.3514                                         !
 ! D115  D(43,42,44,46)         37.4805                                         !
 ! D116  D(43,42,44,47)        -83.7968                                         !
 ! D117  D(42,44,46,49)        -47.4518                                         !
 ! D118  D(42,44,46,58)        130.3791                                         !
 ! D119  D(45,44,46,49)       -163.0369                                         !
 ! D120  D(45,44,46,58)         14.794                                          !
 ! D121  D(47,44,46,49)         75.0979                                         !
 ! D122  D(47,44,46,58)       -107.0712                                         !
 ! D123  D(42,44,47,48)         63.0747                                         !
 ! D124  D(42,44,47,50)       -178.9019                                         !
 ! D125  D(42,44,47,54)        -55.0101                                         !
 ! D126  D(45,44,47,48)       -178.4918                                         !
 ! D127  D(45,44,47,50)        -60.4684                                         !
 ! D128  D(45,44,47,54)         63.4234                                         !
 ! D129  D(46,44,47,48)        -55.2172                                         !
 ! D130  D(46,44,47,50)         62.8062                                         !
 ! D131  D(46,44,47,54)       -173.302                                          !
 ! D132  D(44,46,58,59)          7.0798                                         !
 ! D133  D(44,46,58,60)        177.1746                                         !
 ! D134  D(49,46,58,59)       -175.2199                                         !
 ! D135  D(49,46,58,60)         -5.125                                          !
 ! D136  D(44,47,50,51)         62.3959                                         !
 ! D137  D(44,47,50,52)       -179.5751                                         !
 ! D138  D(44,47,50,53)        -58.6586                                         !
 ! D139  D(48,47,50,51)        178.868                                          !
 ! D140  D(48,47,50,52)        -63.103                                          !
 ! D141  D(48,47,50,53)         57.8135                                         !
 ! D142  D(54,47,50,51)        -61.1909                                         !
 ! D143  D(54,47,50,52)         56.8381                                         !
 ! D144  D(54,47,50,53)        177.7546                                         !
 ! D145  D(44,47,54,55)        -60.2229                                         !
 ! D146  D(44,47,54,56)         60.2892                                         !
 ! D147  D(44,47,54,57)       -179.7281                                         !
 ! D148  D(48,47,54,55)       -176.8934                                         !
 ! D149  D(48,47,54,56)        -56.3812                                         !
 ! D150  D(48,47,54,57)         63.6014                                         !
 ! D151  D(50,47,54,55)         63.0503                                         !
 ! D152  D(50,47,54,56)       -176.4376                                         !
 ! D153  D(50,47,54,57)        -56.455                                          !
 ! D154  D(46,58,60,61)         39.3587                                         !
 ! D155  D(46,58,60,62)        -76.174                                          !
 ! D156  D(46,58,60,63)        158.2647                                         !
 ! D157  D(59,58,60,61)       -150.4401                                         !
 ! D158  D(59,58,60,62)         94.0272                                         !
 ! D159  D(59,58,60,63)        -31.5341                                         !
 ! D160  D(58,60,62,66)         10.3215                                         !
 ! D161  D(58,60,62,75)       -172.2373                                         !
 ! D162  D(61,60,62,66)       -104.8619                                         !
 ! D163  D(61,60,62,75)         72.5794                                         !
 ! D164  D(63,60,62,66)        134.6644                                         !
 ! D165  D(63,60,62,75)        -47.8943                                         !
 ! D166  D(58,60,63,64)       -164.9414                                         !
 ! D167  D(58,60,63,65)        -49.6281                                         !
 ! D168  D(58,60,63,67)         73.7285                                         !
 ! D169  D(61,60,63,64)        -48.0246                                         !
 ! D170  D(61,60,63,65)         67.2888                                         !
 ! D171  D(61,60,63,67)       -169.3546                                         !
 ! D172  D(62,60,63,64)         70.8916                                         !
 ! D173  D(62,60,63,65)       -173.795                                          !
 ! D174  D(62,60,63,67)        -50.4384                                         !
 ! D175  D(60,62,75,76)         25.4844                                         !
 ! D176  D(60,62,75,77)        162.2375                                         !
 ! D177  D(66,62,75,76)       -157.1954                                         !
 ! D178  D(66,62,75,77)        -20.4423                                         !
 ! D179  D(60,63,67,68)         55.0429                                         !
 ! D180  D(60,63,67,69)        -66.0731                                         !
 ! D181  D(60,63,67,70)        176.278                                          !
 ! D182  D(64,63,67,68)        -66.223                                          !
 ! D183  D(64,63,67,69)        172.661                                          !
 ! D184  D(64,63,67,70)         55.0121                                         !
 ! D185  D(65,63,67,68)        177.969                                          !
 ! D186  D(65,63,67,69)         56.853                                          !
 ! D187  D(65,63,67,70)        -60.7958                                         !
 ! D188  D(63,67,70,71)        -93.7783                                         !
 ! D189  D(63,67,70,74)         83.8387                                         !
 ! D190  D(68,67,70,71)         27.2967                                         !
 ! D191  D(68,67,70,74)       -155.0863                                         !
 ! D192  D(69,67,70,71)        145.7486                                         !
 ! D193  D(69,67,70,74)        -36.6344                                         !
 ! D194  D(67,70,71,72)          5.469                                          !
 ! D195  D(67,70,71,73)        175.0395                                         !
 ! D196  D(74,70,71,72)       -172.0229                                         !
 ! D197  D(74,70,71,73)         -2.4524                                         !
 ! D198  D(62,75,77,78)        -17.4101                                         !
 ! D199  D(62,75,77,79)       -132.7206                                         !
 ! D200  D(62,75,77,80)        104.4749                                         !
 ! D201  D(76,75,77,78)        125.4092                                         !
 ! D202  D(76,75,77,79)         10.0987                                         !
 ! D203  D(76,75,77,80)       -112.7058                                         !
 ! D204  D(75,77,79,83)       -179.9523                                         !
 ! D205  D(75,77,79,97)         -0.0154                                         !
 ! D206  D(78,77,79,83)         64.623                                          !
 ! D207  D(78,77,79,97)       -115.4401                                         !
 ! D208  D(80,77,79,83)        -55.9091                                         !
 ! D209  D(80,77,79,97)        124.0278                                         !
 ! D210  D(75,77,80,81)        175.1823                                         !
 ! D211  D(75,77,80,82)         60.7649                                         !
 ! D212  D(75,77,80,84)        -63.1465                                         !
 ! D213  D(78,77,80,81)        -63.1716                                         !
 ! D214  D(78,77,80,82)       -177.589                                          !
 ! D215  D(78,77,80,84)         58.4995                                         !
 ! D216  D(79,77,80,81)         57.0155                                         !
 ! D217  D(79,77,80,82)        -57.4019                                         !
 ! D218  D(79,77,80,84)        178.6866                                         !
 ! D219  D(77,80,84,85)       -153.3281                                         !
 ! D220  D(77,80,84,86)        -37.6709                                         !
 ! D221  D(77,80,84,87)         85.1908                                         !
 ! D222  D(81,80,84,85)        -34.4911                                         !
 ! D223  D(81,80,84,86)         81.166                                          !
 ! D224  D(81,80,84,87)       -155.9722                                         !
 ! D225  D(82,80,84,85)         82.9864                                         !
 ! D226  D(82,80,84,86)       -161.3565                                         !
 ! D227  D(82,80,84,87)        -38.4947                                         !
 ! D228  D(80,84,87,88)         80.7417                                         !
 ! D229  D(80,84,87,89)        -35.6094                                         !
 ! D230  D(80,84,87,90)       -158.9701                                         !
 ! D231  D(85,84,87,88)        -41.9868                                         !
 ! D232  D(85,84,87,89)       -158.3379                                         !
 ! D233  D(85,84,87,90)         78.3015                                         !
 ! D234  D(86,84,87,88)       -157.5254                                         !
 ! D235  D(86,84,87,89)         86.1235                                         !
 ! D236  D(86,84,87,90)        -37.2372                                         !
 ! D237  D(84,87,90,91)       -163.4548                                         !
 ! D238  D(84,87,90,92)        -42.1386                                         !
 ! D239  D(84,87,90,93)         76.693                                          !
 ! D240  D(88,87,90,91)        -42.1804                                         !
 ! D241  D(88,87,90,92)         79.1358                                         !
 ! D242  D(88,87,90,93)       -162.0326                                         !
 ! D243  D(89,87,90,91)         72.4008                                         !
 ! D244  D(89,87,90,92)       -166.2831                                         !
 ! D245  D(89,87,90,93)        -47.4514                                         !
 ! D246  D(87,90,93,94)       -151.1172                                         !
 ! D247  D(87,90,93,95)         86.9463                                         !
 ! D248  D(87,90,93,96)        -26.9416                                         !
 ! D249  D(91,90,93,94)         85.8821                                         !
 ! D250  D(91,90,93,95)        -36.0544                                         !
 ! D251  D(91,90,93,96)       -149.9423                                         !
 ! D252  D(92,90,93,94)        -30.1167                                         !
 ! D253  D(92,90,93,95)       -152.0531                                         !
 ! D254  D(92,90,93,96)         94.0589                                         !
 --------------------------------------------------------------------------------
 Symmetry turned off by external request.
 Stoichiometry    C31H52N7O7(1+)
 Framework group  C1[X(C31H52N7O7)]
 Deg. of freedom   285
 Full point group                 C1      NOp   1
                          Input orientation:                          
 ---------------------------------------------------------------------
 Center     Atomic      Atomic             Coordinates (Angstroms)
 Number     Number       Type             X           Y           Z
 ---------------------------------------------------------------------
      1          7           0       -5.415445   -3.137498   -5.467583
      2          1           0       -4.817157   -2.734388   -6.208850
      3          1           0       -6.366967   -3.279301   -5.809499
      4          1           0       -4.954767   -4.031991   -5.183971
      5          6           0       -5.340576   -2.294877   -4.215856
      6          1           0       -5.250215   -1.256582   -4.533619
      7          6           0       -4.019774   -2.793072   -3.597544
      8          6           0       -6.584145   -2.492916   -3.325992
      9          1           0       -7.444941   -2.172190   -3.932162
     10          8           0       -3.663919   -3.949240   -3.855678
     11          6           0       -6.521960   -1.568808   -2.092926
     12          1           0       -5.682942   -1.871706   -1.455219
     13          1           0       -7.426456   -1.761792   -1.507511
     14          6           0       -6.783759   -3.956492   -2.910552
     15          1           0       -5.946474   -4.319072   -2.308703
     16          1           0       -7.694284   -4.046319   -2.313999
     17          1           0       -6.896111   -4.633580   -3.764385
     18          6           0       -6.441539   -0.070898   -2.401837
     19          1           0       -6.511141    0.511293   -1.480376
     20          1           0       -5.501723    0.222656   -2.884208
     21          1           0       -7.259813    0.245172   -3.057392
     22          7           0       -3.319483   -1.919994   -2.873816
     23          1           0       -3.678046   -1.006410   -2.610857
     24          6           0       -1.914585   -2.115005   -2.564285
     25          1           0       -1.740311   -3.178582   -2.390776
     26          6           0       -1.640618   -1.260278   -1.320642
     27          6           0       -1.016282   -1.597401   -3.741767
     28          1           0       -0.012747   -2.014616   -3.616786
     29          1           0       -0.930883   -0.510710   -3.643675
     30          8           0       -2.378130   -0.306840   -1.071798
     31          6           0       -1.578092   -1.931285   -5.103993
     32          6           0       -2.432275   -1.025801   -5.746003
     33          1           0       -2.612750   -0.052777   -5.297444
     34          6           0       -1.329942   -3.166266   -5.716064
     35          1           0       -0.673732   -3.881435   -5.229678
     36          6           0       -3.036535   -1.347276   -6.966649
     37          1           0       -3.659287   -0.613950   -7.471435
     38          6           0       -1.928735   -3.496884   -6.929820
     39          1           0       -1.717532   -4.455628   -7.391851
     40          6           0       -2.788643   -2.590759   -7.560473
     41          1           0       -3.226261   -2.833776   -8.524199
     42          7           0       -0.545536   -1.586164   -0.609096
     43          1           0        0.057347   -2.347775   -0.894421
     44          6           0       -0.024797   -0.742029    0.463380
     45          1           0       -0.526812    0.225247    0.373777
     46          6           0        1.476183   -0.622286    0.202666
     47          6           0       -0.294506   -1.325332    1.871205
     48          1           0        0.250336   -2.279315    1.922141
     49          8           0        2.128879   -1.655540   -0.047717
     50          6           0        0.250539   -0.382491    2.952019
     51          1           0       -0.263051    0.585536    2.909981
     52          1           0        0.065245   -0.800804    3.945254
     53          1           0        1.324404   -0.203262    2.851657
     54          6           0       -1.787586   -1.600382    2.070935
     55          1           0       -2.369716   -0.678780    1.971813
     56          1           0       -2.168982   -2.320213    1.342030
     57          1           0       -1.964581   -2.007299    3.070376
     58          7           0        1.992012    0.609157    0.217093
     59          1           0        1.400618    1.377630    0.502704
     60          6           0        3.410718    0.883345    0.045875
     61          1           0        3.767687    0.189404   -0.723217
     62          6           0        4.181702    0.551379    1.341507
     63          6           0        3.630725    2.330308   -0.424108
     64          1           0        4.654526    2.422004   -0.797135
     65          1           0        2.974917    2.532739   -1.276823
     66          8           0        3.616979   -0.067596    2.281848
     67          6           0        3.409674    3.389355    0.667211
     68          1           0        4.035523    3.171281    1.534786
     69          1           0        2.361584    3.425014    0.982643
     70          6           0        3.749484    4.770256    0.097258
     71          7           0        5.019827    5.166980    0.330680
     72          1           0        5.714556    4.554797    0.773311
     73          1           0        5.315264    6.035118   -0.090536
     74          8           0        2.918425    5.402527   -0.549102
     75          7           0        5.448743    0.917473    1.338136
     76          1           0        5.776319    1.709227    0.729884
     77          6           0        6.284446    1.059231    2.534201
     78          1           0        5.631132    1.121989    3.410968
     79          6           0        6.995674    2.456267    2.340746
     80          6           0        7.284525   -0.077972    2.738845
     81          1           0        7.885075    0.207898    3.605838
     82          1           0        7.973565   -0.124603    1.886119
     83          8           0        7.765223    2.810982    3.227455
     84          6           0        6.622521   -1.448297    2.962360
     85          1           0        7.282889   -2.098048    3.548621
     86          1           0        5.722164   -1.299012    3.572300
     87          6           0        6.265938   -2.185276    1.655101
     88          1           0        7.159965   -2.676353    1.256879
     89          1           0        5.946194   -1.477110    0.884203
     90          6           0        5.190595   -3.253847    1.839034
     91          1           0        5.149794   -3.953342    1.001269
     92          1           0        5.363939   -3.825410    2.754199
     93          7           0        3.823523   -2.623769    1.958978
     94          1           0        3.186998   -3.186004    2.523302
     95          1           0        3.357819   -2.457102    1.045618
     96          1           0        3.853278   -1.628366    2.347748
     97          8           0        6.656814    3.039848    1.246689
 ---------------------------------------------------------------------
 Rotational constants (GHZ):           0.1199836           0.0265303           0.0257683
 Standard basis: 6-31G(d,p) (6D, 7F)
   935 basis functions,  1624 primitive gaussians,   935 cartesian basis functions
   171 alpha electrons      171 beta electrons
       nuclear repulsion energy      5862.2621615598 Hartrees.
 NAtoms=   97 NActive=   97 NUniq=   97 SFac= 1.00D+00 NAtFMM=   60 NAOKFM=T Big=T
 Integral buffers will be    131072 words long.
 Raffenetti 2 integral format.
 Two-electron integral symmetry is turned off.
 Nuclear repulsion after empirical dispersion term =     5862.0439669105 Hartrees.
 One-electron integrals computed using PRISM.
 NBasis=   935 RedAO= T EigKep=  4.62D-04  NBF=   935
 NBsUse=   935 1.00D-06 EigRej= -1.00D+00 NBFU=   935
 Initial guess from the checkpoint file:  "conf-879.chk"
 B after Tr=     0.000000    0.000000    0.000000
         Rot=    1.000000    0.000000    0.000000    0.000000 Ang=   0.00 deg.
 Requested convergence on RMS density matrix=1.00D-08 within 128 cycles.
 Requested convergence on MAX density matrix=1.00D-06.
 Requested convergence on             energy=1.00D-06.
 No special actions if energy rises.
 SCF Done:  E(RB3LYP) =  -2122.63634217     A.U. after    3 cycles
            NFock=  3  Conv=0.57D-09     -V/T= 2.0093

 **********************************************************************

            Population analysis using the SCF Density.

 **********************************************************************

 Alpha  occ. eigenvalues --  -19.27039 -19.23633 -19.23325 -19.20450 -19.12947
 Alpha  occ. eigenvalues --  -19.11872 -19.10014 -14.59833 -14.52215 -14.50225
 Alpha  occ. eigenvalues --  -14.47956 -14.47138 -14.41286 -14.36328 -10.43987
 Alpha  occ. eigenvalues --  -10.40884 -10.40322 -10.40022 -10.36603 -10.36544
 Alpha  occ. eigenvalues --  -10.34444 -10.34050 -10.33699 -10.32194 -10.32131
 Alpha  occ. eigenvalues --  -10.32058 -10.31842 -10.31638 -10.31538 -10.31212
 Alpha  occ. eigenvalues --  -10.31111 -10.31018 -10.30945 -10.30686 -10.29436
 Alpha  occ. eigenvalues --  -10.29187 -10.28969 -10.27453 -10.26443 -10.26177
 Alpha  occ. eigenvalues --  -10.25649 -10.25640 -10.25273 -10.23931 -10.23115
 Alpha  occ. eigenvalues --   -1.19736  -1.15918  -1.14732  -1.14000  -1.11484
 Alpha  occ. eigenvalues --   -1.07407  -1.07218  -1.04702  -1.04460  -1.04376
 Alpha  occ. eigenvalues --   -1.03431  -0.98914  -0.98174  -0.95980  -0.95539
 Alpha  occ. eigenvalues --   -0.92158  -0.91589  -0.90349  -0.88294  -0.88030
 Alpha  occ. eigenvalues --   -0.87187  -0.86816  -0.86145  -0.84639  -0.82673
 Alpha  occ. eigenvalues --   -0.81821  -0.79242  -0.78379  -0.77090  -0.76647
 Alpha  occ. eigenvalues --   -0.76144  -0.74703  -0.73727  -0.72740  -0.72540
 Alpha  occ. eigenvalues --   -0.71830  -0.70795  -0.70716  -0.69914  -0.69341
 Alpha  occ. eigenvalues --   -0.69251  -0.68070  -0.67247  -0.66235  -0.65814
 Alpha  occ. eigenvalues --   -0.64399  -0.63658  -0.63174  -0.62701  -0.62517
 Alpha  occ. eigenvalues --   -0.61354  -0.61004  -0.60453  -0.60230  -0.59389
 Alpha  occ. eigenvalues --   -0.58800  -0.58212  -0.58075  -0.57322  -0.56840
 Alpha  occ. eigenvalues --   -0.56648  -0.55927  -0.55700  -0.55441  -0.55108
 Alpha  occ. eigenvalues --   -0.54677  -0.54260  -0.54123  -0.53745  -0.53405
 Alpha  occ. eigenvalues --   -0.53209  -0.52526  -0.52437  -0.52120  -0.51821
 Alpha  occ. eigenvalues --   -0.51425  -0.50950  -0.50294  -0.49916  -0.49870
 Alpha  occ. eigenvalues --   -0.49506  -0.49058  -0.49031  -0.48904  -0.48803
 Alpha  occ. eigenvalues --   -0.48152  -0.47765  -0.47620  -0.47472  -0.46610
 Alpha  occ. eigenvalues --   -0.46556  -0.46203  -0.46033  -0.45948  -0.45779
 Alpha  occ. eigenvalues --   -0.45581  -0.45204  -0.44798  -0.44197  -0.43498
 Alpha  occ. eigenvalues --   -0.43054  -0.42569  -0.42372  -0.41705  -0.41578
 Alpha  occ. eigenvalues --   -0.41364  -0.41028  -0.40363  -0.40123  -0.39748
 Alpha  occ. eigenvalues --   -0.39145  -0.38974  -0.38527  -0.37954  -0.37840
 Alpha  occ. eigenvalues --   -0.37389  -0.37091  -0.36677  -0.36062  -0.34295
 Alpha  occ. eigenvalues --   -0.32952  -0.28146  -0.27399  -0.26618  -0.26550
 Alpha  occ. eigenvalues --   -0.23915
 Alpha virt. eigenvalues --   -0.14267  -0.13215  -0.12654  -0.10063  -0.09867
 Alpha virt. eigenvalues --   -0.08356  -0.06933  -0.05908  -0.05379  -0.04704
 Alpha virt. eigenvalues --   -0.03269  -0.02346  -0.02220  -0.01640  -0.00905
 Alpha virt. eigenvalues --    0.00183   0.00310   0.00574   0.00769   0.01205
 Alpha virt. eigenvalues --    0.01509   0.01824   0.02255   0.02658   0.02750
 Alpha virt. eigenvalues --    0.03013   0.03225   0.03527   0.03612   0.03980
 Alpha virt. eigenvalues --    0.04252   0.04797   0.05142   0.05223   0.05575
 Alpha virt. eigenvalues --    0.05597   0.05739   0.05837   0.06336   0.06723
 Alpha virt. eigenvalues --    0.06959   0.07169   0.07454   0.07848   0.07984
 Alpha virt. eigenvalues --    0.08184   0.08266   0.08427   0.08475   0.08939
 Alpha virt. eigenvalues --    0.09205   0.09391   0.09594   0.09924   0.10055
 Alpha virt. eigenvalues --    0.10280   0.10684   0.10860   0.10942   0.11111
 Alpha virt. eigenvalues --    0.11547   0.11971   0.12424   0.12580   0.12805
 Alpha virt. eigenvalues --    0.12996   0.13154   0.13782   0.13934   0.14453
 Alpha virt. eigenvalues --    0.14880   0.15492   0.15538   0.15814   0.16417
 Alpha virt. eigenvalues --    0.17042   0.17311   0.17822   0.18190   0.18353
 Alpha virt. eigenvalues --    0.18772   0.19069   0.20038   0.20287   0.20549
 Alpha virt. eigenvalues --    0.21129   0.21505   0.21934   0.22063   0.22305
 Alpha virt. eigenvalues --    0.23244   0.24861   0.24935   0.25745   0.26952
 Alpha virt. eigenvalues --    0.28447   0.29447   0.30339   0.30803   0.32439
 Alpha virt. eigenvalues --    0.32990   0.33556   0.34417   0.34659   0.35531
 Alpha virt. eigenvalues --    0.36291   0.36882   0.37830   0.38150   0.39436
 Alpha virt. eigenvalues --    0.39720   0.40199   0.40751   0.40803   0.41233
 Alpha virt. eigenvalues --    0.41516   0.41692   0.41982   0.42052   0.42444
 Alpha virt. eigenvalues --    0.42695   0.43304   0.43752   0.44415   0.44791
 Alpha virt. eigenvalues --    0.45238   0.45579   0.46017   0.46319   0.46936
 Alpha virt. eigenvalues --    0.47156   0.47436   0.47736   0.48220   0.48702
 Alpha virt. eigenvalues --    0.48799   0.48980   0.49470   0.49504   0.49845
 Alpha virt. eigenvalues --    0.50252   0.50416   0.51017   0.51454   0.51658
 Alpha virt. eigenvalues --    0.51711   0.52578   0.52728   0.52811   0.53448
 Alpha virt. eigenvalues --    0.53743   0.53849   0.54399   0.54994   0.55374
 Alpha virt. eigenvalues --    0.55644   0.56687   0.57590   0.57762   0.58111
 Alpha virt. eigenvalues --    0.58454   0.58970   0.59239   0.59468   0.59892
 Alpha virt. eigenvalues --    0.60209   0.60511   0.60853   0.61261   0.61872
 Alpha virt. eigenvalues --    0.61992   0.63130   0.63375   0.63431   0.63804
 Alpha virt. eigenvalues --    0.64148   0.64609   0.65010   0.65348   0.65645
 Alpha virt. eigenvalues --    0.65929   0.66666   0.67067   0.67178   0.67578
 Alpha virt. eigenvalues --    0.67966   0.68336   0.68446   0.68938   0.69530
 Alpha virt. eigenvalues --    0.69692   0.69895   0.70148   0.70338   0.70586
 Alpha virt. eigenvalues --    0.70751   0.71289   0.71503   0.71772   0.72104
 Alpha virt. eigenvalues --    0.72520   0.72697   0.73101   0.73362   0.73776
 Alpha virt. eigenvalues --    0.74032   0.74319   0.74714   0.75119   0.75525
 Alpha virt. eigenvalues --    0.75622   0.76194   0.76256   0.76647   0.76972
 Alpha virt. eigenvalues --    0.77510   0.77794   0.77995   0.78187   0.78378
 Alpha virt. eigenvalues --    0.78664   0.78907   0.79408   0.79920   0.80063
 Alpha virt. eigenvalues --    0.80349   0.80507   0.80724   0.80925   0.81155
 Alpha virt. eigenvalues --    0.81493   0.81950   0.82278   0.82488   0.82598
 Alpha virt. eigenvalues --    0.82805   0.83370   0.83409   0.83676   0.83830
 Alpha virt. eigenvalues --    0.84111   0.84506   0.84677   0.85145   0.85563
 Alpha virt. eigenvalues --    0.85826   0.85942   0.86453   0.87070   0.87361
 Alpha virt. eigenvalues --    0.87767   0.88110   0.88384   0.88442   0.89507
 Alpha virt. eigenvalues --    0.89632   0.89939   0.90756   0.91170   0.91837
 Alpha virt. eigenvalues --    0.92616   0.92947   0.93992   0.94343   0.95011
 Alpha virt. eigenvalues --    0.95310   0.95729   0.96356   0.97479   0.97926
 Alpha virt. eigenvalues --    0.98145   0.99474   1.00664   1.01250   1.01784
 Alpha virt. eigenvalues --    1.02402   1.03159   1.03727   1.03803   1.04177
 Alpha virt. eigenvalues --    1.04710   1.05288   1.05531   1.06279   1.06716
 Alpha virt. eigenvalues --    1.07971   1.08342   1.08961   1.09746   1.10022
 Alpha virt. eigenvalues --    1.11079   1.11745   1.12085   1.12862   1.13660
 Alpha virt. eigenvalues --    1.14160   1.14948   1.15391   1.16008   1.16776
 Alpha virt. eigenvalues --    1.17606   1.18029   1.18738   1.19715   1.20270
 Alpha virt. eigenvalues --    1.20555   1.21429   1.21999   1.22356   1.23384
 Alpha virt. eigenvalues --    1.24237   1.25618   1.25823   1.26547   1.26998
 Alpha virt. eigenvalues --    1.27578   1.27753   1.28907   1.29039   1.29439
 Alpha virt. eigenvalues --    1.29652   1.30145   1.30524   1.31224   1.31613
 Alpha virt. eigenvalues --    1.31896   1.32645   1.33279   1.33578   1.34065
 Alpha virt. eigenvalues --    1.35358   1.35917   1.36223   1.36766   1.37197
 Alpha virt. eigenvalues --    1.37497   1.38543   1.39255   1.40417   1.41097
 Alpha virt. eigenvalues --    1.41797   1.43014   1.43558   1.44053   1.44879
 Alpha virt. eigenvalues --    1.45904   1.46142   1.47307   1.47787   1.48388
 Alpha virt. eigenvalues --    1.49150   1.49874   1.50274   1.51040   1.51960
 Alpha virt. eigenvalues --    1.52419   1.52899   1.53180   1.53983   1.55184
 Alpha virt. eigenvalues --    1.55563   1.56454   1.57209   1.57425   1.58441
 Alpha virt. eigenvalues --    1.58491   1.59683   1.60400   1.60748   1.61485
 Alpha virt. eigenvalues --    1.61688   1.62010   1.62306   1.63045   1.63781
 Alpha virt. eigenvalues --    1.64652   1.65014   1.65399   1.67039   1.67251
 Alpha virt. eigenvalues --    1.67825   1.68019   1.68399   1.68945   1.69020
 Alpha virt. eigenvalues --    1.70032   1.70567   1.71557   1.72036   1.72079
 Alpha virt. eigenvalues --    1.72580   1.72777   1.73095   1.73546   1.74002
 Alpha virt. eigenvalues --    1.74265   1.74459   1.74825   1.75516   1.75921
 Alpha virt. eigenvalues --    1.76286   1.77049   1.77480   1.77702   1.77908
 Alpha virt. eigenvalues --    1.78227   1.78301   1.78965   1.79436   1.80129
 Alpha virt. eigenvalues --    1.80480   1.80678   1.80936   1.81178   1.81652
 Alpha virt. eigenvalues --    1.81916   1.82417   1.83196   1.83369   1.83656
 Alpha virt. eigenvalues --    1.83809   1.84109   1.84480   1.84624   1.85129
 Alpha virt. eigenvalues --    1.85938   1.86200   1.86765   1.86991   1.87380
 Alpha virt. eigenvalues --    1.87888   1.88104   1.88669   1.88778   1.88896
 Alpha virt. eigenvalues --    1.89273   1.89849   1.90138   1.90685   1.91041
 Alpha virt. eigenvalues --    1.92169   1.92483   1.92803   1.93348   1.93863
 Alpha virt. eigenvalues --    1.94613   1.95083   1.95409   1.95611   1.96009
 Alpha virt. eigenvalues --    1.96709   1.96819   1.96917   1.97271   1.98232
 Alpha virt. eigenvalues --    1.98514   1.99223   1.99709   1.99902   2.00144
 Alpha virt. eigenvalues --    2.00552   2.00966   2.01146   2.01646   2.01723
 Alpha virt. eigenvalues --    2.02410   2.02742   2.02960   2.03236   2.03586
 Alpha virt. eigenvalues --    2.04084   2.04693   2.05021   2.05504   2.06114
 Alpha virt. eigenvalues --    2.06429   2.06807   2.07001   2.08012   2.08332
 Alpha virt. eigenvalues --    2.08771   2.09095   2.10006   2.10234   2.10703
 Alpha virt. eigenvalues --    2.10975   2.11585   2.11821   2.12623   2.13176
 Alpha virt. eigenvalues --    2.13485   2.13866   2.14172   2.15031   2.15558
 Alpha virt. eigenvalues --    2.15813   2.16663   2.17100   2.17187   2.17551
 Alpha virt. eigenvalues --    2.18321   2.18389   2.18897   2.19019   2.19590
 Alpha virt. eigenvalues --    2.19884   2.20178   2.20762   2.20911   2.21383
 Alpha virt. eigenvalues --    2.21629   2.22541   2.23393   2.23520   2.23976
 Alpha virt. eigenvalues --    2.24260   2.24870   2.25513   2.25704   2.26471
 Alpha virt. eigenvalues --    2.26721   2.27016   2.27554   2.27797   2.27963
 Alpha virt. eigenvalues --    2.28459   2.29136   2.29918   2.30400   2.30548
 Alpha virt. eigenvalues --    2.31043   2.31576   2.31798   2.33131   2.33207
 Alpha virt. eigenvalues --    2.33362   2.34872   2.34961   2.35468   2.36353
 Alpha virt. eigenvalues --    2.37085   2.37403   2.37870   2.38667   2.39004
 Alpha virt. eigenvalues --    2.39188   2.40390   2.40786   2.41280   2.41731
 Alpha virt. eigenvalues --    2.42134   2.42665   2.43216   2.43756   2.45081
 Alpha virt. eigenvalues --    2.45760   2.46066   2.46662   2.46768   2.48008
 Alpha virt. eigenvalues --    2.48746   2.48790   2.49066   2.49989   2.50351
 Alpha virt. eigenvalues --    2.50799   2.51380   2.52096   2.52492   2.52915
 Alpha virt. eigenvalues --    2.53465   2.53856   2.54405   2.54668   2.55376
 Alpha virt. eigenvalues --    2.56325   2.56577   2.57347   2.57962   2.58050
 Alpha virt. eigenvalues --    2.58144   2.58719   2.59405   2.59683   2.60213
 Alpha virt. eigenvalues --    2.60473   2.60615   2.60825   2.61511   2.61704
 Alpha virt. eigenvalues --    2.62072   2.62519   2.62776   2.63304   2.63655
 Alpha virt. eigenvalues --    2.64555   2.64843   2.65082   2.65915   2.66381
 Alpha virt. eigenvalues --    2.67000   2.67320   2.67425   2.67938   2.68628
 Alpha virt. eigenvalues --    2.69133   2.70103   2.70339   2.70557   2.71331
 Alpha virt. eigenvalues --    2.72255   2.72404   2.72846   2.73472   2.74369
 Alpha virt. eigenvalues --    2.74493   2.74909   2.75924   2.76055   2.76456
 Alpha virt. eigenvalues --    2.77016   2.77368   2.77637   2.78135   2.78792
 Alpha virt. eigenvalues --    2.79094   2.79860   2.80483   2.81221   2.81616
 Alpha virt. eigenvalues --    2.82130   2.82459   2.82836   2.83136   2.83499
 Alpha virt. eigenvalues --    2.84115   2.84247   2.85016   2.85437   2.85517
 Alpha virt. eigenvalues --    2.86114   2.86422   2.86922   2.87396   2.88024
 Alpha virt. eigenvalues --    2.88781   2.90686   2.91422   2.92429   2.92992
 Alpha virt. eigenvalues --    2.93696   2.95018   2.95241   2.96429   2.97753
 Alpha virt. eigenvalues --    2.98786   3.01420   3.02149   3.03136   3.04166
 Alpha virt. eigenvalues --    3.05634   3.05898   3.06544   3.07659   3.08461
 Alpha virt. eigenvalues --    3.09820   3.09990   3.10403   3.10847   3.11422
 Alpha virt. eigenvalues --    3.11915   3.13147   3.15124   3.16257   3.16606
 Alpha virt. eigenvalues --    3.18274   3.19347   3.20155   3.20300   3.21781
 Alpha virt. eigenvalues --    3.22349   3.22817   3.24221   3.25896   3.27283
 Alpha virt. eigenvalues --    3.28052   3.28618   3.30053   3.30437   3.31732
 Alpha virt. eigenvalues --    3.32006   3.32117   3.32568   3.34477   3.34879
 Alpha virt. eigenvalues --    3.35208   3.35847   3.36072   3.36382   3.37889
 Alpha virt. eigenvalues --    3.38340   3.38677   3.38981   3.39217   3.40032
 Alpha virt. eigenvalues --    3.40977   3.42088   3.43087   3.43587   3.44416
 Alpha virt. eigenvalues --    3.45557   3.46176   3.47044   3.48118   3.49798
 Alpha virt. eigenvalues --    3.51294   3.52111   3.58880   3.77123   3.97451
 Alpha virt. eigenvalues --    3.97681   3.99664   4.02682   4.03616   4.05170
 Alpha virt. eigenvalues --    4.07544   4.08571   4.10573   4.13957   4.16276
 Alpha virt. eigenvalues --    4.16916   4.18590   4.19218   4.20759   4.24026
 Alpha virt. eigenvalues --    4.24871   4.25500   4.26903   4.29816   4.32044
 Alpha virt. eigenvalues --    4.33852   4.35697   4.36945   4.38409   4.40225
 Alpha virt. eigenvalues --    4.42310   4.44127   4.45735   4.46941   4.47170
 Alpha virt. eigenvalues --    4.49810   4.53331   4.54083   4.54767   4.57679
 Alpha virt. eigenvalues --    4.58660   4.63755   4.65307   4.66073   4.67900
 Alpha virt. eigenvalues --    4.72006   4.73832   4.75751   4.76165
          Condensed to atoms (all electrons):
 Mulliken charges:
               1
     1  N   -0.548769
     2  H    0.338028
     3  H    0.339470
     4  H    0.361040
     5  C   -0.076464
     6  H    0.159892
     7  C    0.658408
     8  C   -0.078693
     9  H    0.114745
    10  O   -0.547900
    11  C   -0.196903
    12  H    0.122213
    13  H    0.136032
    14  C   -0.336962
    15  H    0.145257
    16  H    0.148704
    17  H    0.094128
    18  C   -0.339090
    19  H    0.150408
    20  H    0.093162
    21  H    0.124242
    22  N   -0.526773
    23  H    0.303570
    24  C   -0.023199
    25  H    0.153494
    26  C    0.617423
    27  C   -0.249253
    28  H    0.134959
    29  H    0.139295
    30  O   -0.535800
    31  C    0.110381
    32  C   -0.128378
    33  H    0.106827
    34  C   -0.081364
    35  H    0.108404
    36  C   -0.146900
    37  H    0.119566
    38  C   -0.082781
    39  H    0.122695
    40  C   -0.132025
    41  H    0.121043
    42  N   -0.529193
    43  H    0.279337
    44  C   -0.004954
    45  H    0.140382
    46  C    0.626503
    47  C   -0.048339
    48  H    0.074389
    49  O   -0.613245
    50  C   -0.356452
    51  H    0.111992
    52  H    0.118514
    53  H    0.146666
    54  C   -0.311942
    55  H    0.125353
    56  H    0.095630
    57  H    0.117903
    58  N   -0.486480
    59  H    0.290759
    60  C   -0.026509
    61  H    0.146446
    62  C    0.581286
    63  C   -0.227831
    64  H    0.148004
    65  H    0.127273
    66  O   -0.610903
    67  C   -0.255649
    68  H    0.129933
    69  H    0.098946
    70  C    0.538589
    71  N   -0.610499
    72  H    0.327207
    73  H    0.267871
    74  O   -0.528678
    75  N   -0.489022
    76  H    0.315030
    77  C   -0.058916
    78  H    0.125863
    79  C    0.603388
    80  C   -0.173985
    81  H    0.144829
    82  H    0.101893
    83  O   -0.530525
    84  C   -0.196783
    85  H    0.109177
    86  H    0.095775
    87  C   -0.202736
    88  H    0.133429
    89  H    0.124053
    90  C   -0.103036
    91  H    0.144123
    92  H    0.152128
    93  N   -0.600287
    94  H    0.317044
    95  H    0.360088
    96  H    0.394352
    97  O   -0.640323
 Sum of Mulliken charges =   1.00000
 Mulliken charges with hydrogens summed into heavy atoms:
               1
     1  N    0.489768
     5  C    0.083428
     7  C    0.658408
     8  C    0.036052
    10  O   -0.547900
    11  C    0.061342
    14  C    0.051127
    18  C    0.028722
    22  N   -0.223203
    24  C    0.130295
    26  C    0.617423
    27  C    0.025001
    30  O   -0.535800
    31  C    0.110381
    32  C   -0.021551
    34  C    0.027040
    36  C   -0.027334
    38  C    0.039914
    40  C   -0.010982
    42  N   -0.249856
    44  C    0.135428
    46  C    0.626503
    47  C    0.026050
    49  O   -0.613245
    50  C    0.020720
    54  C    0.026944
    58  N   -0.195721
    60  C    0.119937
    62  C    0.581286
    63  C    0.047446
    66  O   -0.610903
    67  C   -0.026769
    70  C    0.538589
    71  N   -0.015421
    74  O   -0.528678
    75  N   -0.173992
    77  C    0.066947
    79  C    0.603388
    80  C    0.072737
    83  O   -0.530525
    84  C    0.008168
    87  C    0.054746
    90  C    0.193216
    93  N    0.471196
    97  O   -0.640323
 Electronic spatial extent (au):  <R**2>=          44240.2926
 Charge=              1.0000 electrons
 Dipole moment (field-independent basis, Debye):
    X=            -23.4658    Y=            -25.4439    Z=            -19.8260  Tot=             39.8887
 Quadrupole moment (field-independent basis, Debye-Ang):
   XX=           -186.9533   YY=           -252.3088   ZZ=           -149.9845
   XY=            -20.2579   XZ=             86.7084   YZ=             29.8441
 Traceless Quadrupole moment (field-independent basis, Debye-Ang):
   XX=              9.4623   YY=            -55.8933   ZZ=             46.4310
   XY=            -20.2579   XZ=             86.7084   YZ=             29.8441
 Octapole moment (field-independent basis, Debye-Ang**2):
  XXX=          -1729.6310  YYY=            137.2361  ZZZ=              0.3057  XYY=           -351.7589
  XXY=           -614.7116  XXZ=           -549.3153  XZZ=           -825.4912  YZZ=           -277.2134
  YYZ=            101.4192  XYZ=           -456.7291
 Hexadecapole moment (field-independent basis, Debye-Ang**3):
 XXXX=         -30571.9990 YYYY=         -10155.1987 ZZZZ=         -11945.9817 XXXY=          -5585.7395
 XXXZ=          -5725.0471 YYYX=          -4673.8300 YYYZ=          -2634.6736 ZZZX=          -4057.7769
 ZZZY=          -1121.8923 XXYY=          -6256.1466 XXZZ=          -5475.8481 YYZZ=          -3327.6658
 XXYZ=           -712.7283 YYXZ=          -1775.8917 ZZXY=           -417.3435
 N-N= 5.862043966910D+03 E-N=-1.663349818052D+04  KE= 2.102979384466D+03
 Unable to Open any file for archive entry.
 1\1\GINC-LAC-315\SP\RB3LYP\6-31G(d,p)\C31H52N7O7(1+)\KENGMITH\08-Sep-2
 022\0\\# B3LYP/6-31G** empiricaldispersion=gd3bj guess=read geom=check
  nosymm integral(ultrafinegrid)\\Candidate Structure: Conf:879 Charge 
 calc in gas phase\\1,1\N,0,-5.4154448695,-3.1374981341,-5.4675831641\H
 ,0,-4.8171569006,-2.7343880897,-6.2088495093\H,0,-6.3669668672,-3.2793
 012824,-5.8094992978\H,0,-4.9547665983,-4.0319906048,-5.1839708199\C,0
 ,-5.3405755746,-2.2948773502,-4.2158558776\H,0,-5.2502147676,-1.256582
 0746,-4.5336185079\C,0,-4.0197742787,-2.7930723876,-3.5975441032\C,0,-
 6.5841447852,-2.4929163071,-3.3259918091\H,0,-7.4449405098,-2.17219020
 42,-3.932162298\O,0,-3.6639185727,-3.9492397349,-3.855678122\C,0,-6.52
 19596585,-1.5688077151,-2.0929257717\H,0,-5.6829422894,-1.8717055161,-
 1.4552187288\H,0,-7.4264562815,-1.7617920933,-1.5075114123\C,0,-6.7837
 594918,-3.9564918087,-2.9105522968\H,0,-5.9464743479,-4.3190715098,-2.
 3087033945\H,0,-7.6942837458,-4.0463189103,-2.3139988954\H,0,-6.896111
 4076,-4.6335799856,-3.7643847003\C,0,-6.4415387187,-0.0708975889,-2.40
 18365639\H,0,-6.5111406413,0.5112930563,-1.4803761562\H,0,-5.501723014
 8,0.2226556916,-2.8842079668\H,0,-7.2598129764,0.245171791,-3.05739241
 05\N,0,-3.3194827323,-1.919994409,-2.8738164809\H,0,-3.6780464984,-1.0
 064102776,-2.6108571896\C,0,-1.9145854416,-2.1150054323,-2.5642849198\
 H,0,-1.7403112161,-3.1785817573,-2.3907760753\C,0,-1.6406179454,-1.260
 2775635,-1.320642226\C,0,-1.016282189,-1.5974012462,-3.7417671849\H,0,
 -0.0127469949,-2.0146161863,-3.6167863028\H,0,-0.9308827658,-0.5107096
 1,-3.6436752599\O,0,-2.3781295376,-0.3068395541,-1.0717983199\C,0,-1.5
 780921969,-1.9312850503,-5.1039929312\C,0,-2.432275393,-1.0258007125,-
 5.7460033878\H,0,-2.6127497674,-0.0527765865,-5.2974436937\C,0,-1.3299
 422622,-3.1662661172,-5.7160641131\H,0,-0.6737321334,-3.881434991,-5.2
 296782732\C,0,-3.0365349159,-1.3472755969,-6.9666485741\H,0,-3.6592867
 799,-0.613949859,-7.4714353889\C,0,-1.9287346179,-3.496884157,-6.92981
 95729\H,0,-1.7175323703,-4.4556282975,-7.3918511677\C,0,-2.7886428574,
 -2.5907585879,-7.5604726229\H,0,-3.2262611931,-2.8337759956,-8.5241988
 167\N,0,-0.5455359151,-1.5861636426,-0.6090959719\H,0,0.0573468141,-2.
 347775099,-0.8944205705\C,0,-0.0247967361,-0.7420287112,0.4633800575\H
 ,0,-0.5268120486,0.2252468929,0.3737769289\C,0,1.4761834944,-0.6222856
 749,0.2026662782\C,0,-0.2945062881,-1.3253315304,1.8712050958\H,0,0.25
 03355959,-2.2793146803,1.9221413213\O,0,2.1288790963,-1.6555403103,-0.
 0477168754\C,0,0.2505392446,-0.3824914057,2.9520187678\H,0,-0.26305075
 6,0.585535748,2.9099808863\H,0,0.0652451732,-0.8008042762,3.9452538243
 \H,0,1.3244036353,-0.2032622845,2.8516570054\C,0,-1.7875860016,-1.6003
 824931,2.0709349515\H,0,-2.3697162054,-0.6787796828,1.971813291\H,0,-2
 .1689822551,-2.3202130508,1.3420296728\H,0,-1.9645805447,-2.0072988179
 ,3.07037562\N,0,1.9920118759,0.6091573227,0.2170926354\H,0,1.400618390
 6,1.3776299891,0.5027040022\C,0,3.4107175744,0.8833446325,0.0458745395
 \H,0,3.7676872234,0.1894038009,-0.7232167082\C,0,4.1817021551,0.551378
 5704,1.3415065801\C,0,3.6307250174,2.3303082846,-0.4241083057\H,0,4.65
 45259537,2.4220043162,-0.7971345503\H,0,2.9749169261,2.5327394278,-1.2
 768231318\O,0,3.6169789034,-0.0675958333,2.281847606\C,0,3.4096737796,
 3.3893551533,0.6672105699\H,0,4.0355228473,3.1712814062,1.5347860046\H
 ,0,2.3615842772,3.4250138725,0.9826429104\C,0,3.749483522,4.7702556042
 ,0.097257993\N,0,5.0198269582,5.1669799949,0.3306800249\H,0,5.71455649
 96,4.554797038,0.7733105818\H,0,5.3152637003,6.0351175707,-0.090535698
 \O,0,2.9184250901,5.402526924,-0.5491023653\N,0,5.4487433697,0.9174728
 947,1.3381357993\H,0,5.7763191276,1.7092268308,0.7298837696\C,0,6.2844
 461352,1.0592313934,2.5342013107\H,0,5.6311317243,1.1219891928,3.41096
 78623\C,0,6.9956740118,2.4562667405,2.340746052\C,0,7.2845252781,-0.07
 79720612,2.738844816\H,0,7.8850752421,0.207898256,3.6058379319\H,0,7.9
 735654958,-0.1246026266,1.8861191797\O,0,7.7652230902,2.8109816022,3.2
 274547825\C,0,6.6225207267,-1.448297103,2.9623600273\H,0,7.2828894845,
 -2.0980479492,3.5486214417\H,0,5.7221635199,-1.2990122951,3.572299964\
 C,0,6.2659381906,-2.1852758478,1.6551013019\H,0,7.1599649243,-2.676353
 4977,1.2568793214\H,0,5.9461942456,-1.4771103408,0.8842025284\C,0,5.19
 05946929,-3.2538469189,1.8390339303\H,0,5.149793841,-3.9533422234,1.00
 12686224\H,0,5.3639389656,-3.8254095233,2.7541991929\N,0,3.8235228652,
 -2.6237687745,1.9589779506\H,0,3.1869978318,-3.1860041955,2.5233016535
 \H,0,3.3578188414,-2.4571019237,1.0456184815\H,0,3.8532777281,-1.62836
 57287,2.3477484896\O,0,6.6568142068,3.0398479493,1.2466886866\\Version
 =ES64L-G16RevC.01\HF=-2122.6363422\RMSD=5.672e-10\Dipole=-10.3562071,-
 8.9265052,-6.0671526\Quadrupole=7.0349808,-41.5553044,34.5203236,-15.0
 612155,64.4655686,22.188343\PG=C01 [X(C31H52N7O7)]\\@
 The archive entry for this job was punched.


 ALL SCIENCE IS EITHER PHYSICS, OR STAMP COLLECTING.
   --ERNEST RUTHERFORD, 1871-1937.
 Job cpu time:       0 days  0 hours  9 minutes 30.2 seconds.
 Elapsed time:       0 days  0 hours  2 minutes 30.8 seconds.
 File lengths (MBytes):  RWF=    688 Int=      0 D2E=      0 Chk=     96 Scr=     32
 Normal termination of Gaussian 16 at Thu Sep  8 14:46:42 2022.
