 Entering Gaussian System, Link 0=/opt/software/Gaussian/g16-AVX2-C.01/g16/g16
 Input=charge-conf-879.com
 Output=charge-conf-879.log
 Initial command:
 /opt/software/Gaussian/g16-AVX2-C.01/g16/l1.exe "/mnt/gs18/scratch/users/kengmith/Gau-27786.inp" -scrdir="/mnt/gs18/scratch/users/kengmith/"
 Entering Link 1 = /opt/software/Gaussian/g16-AVX2-C.01/g16/l1.exe PID=     27796.
  
 Copyright (c) 1988-2019, Gaussian, Inc.  All Rights Reserved.
  
 This is part of the Gaussian(R) 16 program.  It is based on
 the Gaussian(R) 09 system (copyright 2009, Gaussian, Inc.),
 the Gaussian(R) 03 system (copyright 2003, Gaussian, Inc.),
 the Gaussian(R) 98 system (copyright 1998, Gaussian, Inc.),
 the Gaussian(R) 94 system (copyright 1995, Gaussian, Inc.),
 the Gaussian 92(TM) system (copyright 1992, Gaussian, Inc.),
 the Gaussian 90(TM) system (copyright 1990, Gaussian, Inc.),
 the Gaussian 88(TM) system (copyright 1988, Gaussian, Inc.),
 the Gaussian 86(TM) system (copyright 1986, Carnegie Mellon
 University), and the Gaussian 82(TM) system (copyright 1983,
 Carnegie Mellon University). Gaussian is a federally registered
 trademark of Gaussian, Inc.
  
 This software contains proprietary and confidential information,
 including trade secrets, belonging to Gaussian, Inc.
  
 This software is provided under written license and may be
 used, copied, transmitted, or stored only in accord with that
 written license.
  
 The following legend is applicable only to US Government
 contracts under FAR:
  
                    RESTRICTED RIGHTS LEGEND
  
 Use, reproduction and disclosure by the US Government is
 subject to restrictions as set forth in subparagraphs (a)
 and (c) of the Commercial Computer Software - Restricted
 Rights clause in FAR 52.227-19.
  
 Gaussian, Inc.
 340 Quinnipiac St., Bldg. 40, Wallingford CT 06492
  
  
 ---------------------------------------------------------------
 Warning -- This program may not be used in any manner that
 competes with the business of Gaussian, Inc. or will provide
 assistance to any competitor of Gaussian, Inc.  The licensee
 of this program is prohibited from giving any competitor of
 Gaussian, Inc. access to this program.  By using this program,
 the user acknowledges that Gaussian, Inc. is engaged in the
 business of creating and licensing software in the field of
 computational chemistry and represents and warrants to the
 licensee that it is not a competitor of Gaussian, Inc. and that
 it will not use this program in any manner prohibited above.
 ---------------------------------------------------------------
  

 Cite this work as:
 Gaussian 16, Revision C.01,
 M. J. Frisch, G. W. Trucks, H. B. Schlegel, G. E. Scuseria, 
 M. A. Robb, J. R. Cheeseman, G. Scalmani, V. Barone, 
 G. A. Petersson, H. Nakatsuji, X. Li, M. Caricato, A. V. Marenich, 
 J. Bloino, B. G. Janesko, R. Gomperts, B. Mennucci, H. P. Hratchian, 
 J. V. Ortiz, A. F. Izmaylov, J. L. Sonnenberg, D. Williams-Young, 
 F. Ding, F. Lipparini, F. Egidi, J. Goings, B. Peng, A. Petrone, 
 T. Henderson, D. Ranasinghe, V. G. Zakrzewski, J. Gao, N. Rega, 
 G. Zheng, W. Liang, M. Hada, M. Ehara, K. Toyota, R. Fukuda, 
 J. Hasegawa, M. Ishida, T. Nakajima, Y. Honda, O. Kitao, H. Nakai, 
 T. Vreven, K. Throssell, J. A. Montgomery, Jr., J. E. Peralta, 
 F. Ogliaro, M. J. Bearpark, J. J. Heyd, E. N. Brothers, K. N. Kudin, 
 V. N. Staroverov, T. A. Keith, R. Kobayashi, J. Normand, 
 K. Raghavachari, A. P. Rendell, J. C. Burant, S. S. Iyengar, 
 J. Tomasi, M. Cossi, J. M. Millam, M. Klene, C. Adamo, R. Cammi, 
 J. W. Ochterski, R. L. Martin, K. Morokuma, O. Farkas, 
 J. B. Foresman, and D. J. Fox, Gaussian, Inc., Wallingford CT, 2019.
 
 ******************************************
 Gaussian 16:  ES64L-G16RevC.01  3-Jul-2019
                 2-Jun-2022 
 ******************************************
 %mem=8gb
 %nproc=4
 Will use up to    4 processors via shared memory.
 %chk=conf-879.chk
 ----------------------------------------------------------------------
 # B3LYP/6-31G* empiricaldispersion=gd3 guess=read geom=check nosymm in
 tegral(ultrafinegrid)
 ----------------------------------------------------------------------
 1/29=2,38=1,172=1/1;
 2/12=2,15=1,40=1/2;
 3/5=1,6=6,7=1,11=2,14=-4,25=1,30=1,74=-5,75=-5,116=-2,124=31/1,2,3;
 4/5=1/1;
 5/5=2,38=6/2;
 6/7=2,8=2,9=2,10=2,28=1/1;
 99/5=1,9=1/99;
 ------------------------------------------------------
 Candidate Structure: Conf:879 Charge calc in gas phase
 ------------------------------------------------------
 Structure from the checkpoint file:  "conf-879.chk"
 Charge =  1 Multiplicity = 1
 Redundant internal coordinates found in file.  (old form).
 N,0,-3.7252403697,0.4760718881,3.2130118154
 H,0,-4.6977416617,0.384653211,3.4905947627
 H,0,-3.1958005459,0.6948634678,4.0528136455
 C,0,-3.2328697791,-0.7515524164,2.5814759018
 H,0,-4.0702642085,-1.319878033,2.1609566595
 H,0,-2.7057192615,-1.4376547361,3.256909086
 C,0,-2.2975401096,-0.4632820609,1.4067069581
 O,0,-1.6709049074,-1.373727657,0.8444076624
 N,0,-2.2325407881,0.8325520242,1.035810425
 H,0,-2.8229619174,1.4559092337,1.5850279485
 C,0,-1.6393436709,1.2849871727,-0.2206647711
 H,0,-1.8544727782,0.516256644,-0.9751672043
 C,0,-0.1027654379,1.3520507278,-0.1148174092
 C,0,-2.2280482535,2.6302357588,-0.6535407448
 H,0,-1.9421580872,3.3913916985,0.0835799184
 H,0,-1.7366713915,2.9211411543,-1.5899892371
 O,0,0.5417288535,2.3965548993,-0.3030865947
 C,0,-3.7558242876,2.6407531419,-0.8580248214
 H,0,-4.2406606469,2.4110093836,0.1021892128
 C,0,-4.2014136032,4.0487639038,-1.2788326519
 H,0,-3.7633053565,4.3229585861,-2.2469644332
 H,0,-5.2905778825,4.1007598923,-1.3797596763
 H,0,-3.8945430888,4.8037666121,-0.5455629176
 C,0,-4.2149015848,1.5918687866,-1.8808712776
 H,0,-3.7123162644,1.740744907,-2.8455414027
 H,0,-4.012325153,0.5676767672,-1.5467596736
 H,0,-5.2932394391,1.6691417844,-2.0550198416
 N,0,0.4998336488,0.1708465642,0.1578294074
 H,0,-0.1206051623,-0.6360297258,0.3195953101
 C,0,1.903816389,0.0921132971,0.5543761701
 H,0,2.1478670092,1.0285275947,1.0765203248
 C,0,2.7741283061,0.1288184426,-0.7062467761
 C,0,2.1483115484,-1.0764421227,1.5381935857
 H,0,1.4712681227,-0.8427779927,2.3713948599
 O,0,3.5229999326,-0.8991090756,-0.9960911589
 C,0,1.7541280509,-2.4619404387,0.9995592137
 H,0,2.3552847445,-2.7483953901,0.1325840922
 H,0,1.9228016138,-3.2092960429,1.7814463172
 H,0,0.6943412001,-2.5189493508,0.7309940807
 C,0,3.5827531455,-1.0544179765,2.0899622765
 H,0,4.3133705142,-1.3516741386,1.3322367361
 H,0,3.6669342464,-1.7596730998,2.9220964856
 H,0,3.8577208595,-0.0623069171,2.4681406778
 N,0,2.7114771368,1.2023964793,-1.4513912831
 H,0,2.0661617024,1.9301610394,-1.0782565073
 C,0,3.1808526954,1.3802852732,-2.8468254912
 H,0,2.9864538551,0.4360244434,-3.3752383717
 C,0,4.6964038145,1.6034300406,-2.9158773288
 C,0,2.3869080031,2.5231055755,-3.4902021669
 H,0,2.6869588412,2.5809639698,-4.5409035107
 H,0,1.3338625483,2.2152882051,-3.481190864
 O,0,5.2664608946,2.5083156198,-3.4523278957
 C,0,2.5613201273,3.8834906398,-2.7809728291
 H,0,3.3573124208,4.4510351126,-3.2723133485
 H,0,2.895098965,3.7521012325,-1.7445274947
 C,0,1.26697346,4.7055424772,-2.7273539233
 H,0,1.0039063183,5.0835695575,-3.7233806585
 H,0,0.4414555266,4.0541697635,-2.4054440647
 C,0,1.3644185152,5.875130719,-1.7396765499
 H,0,2.1781111648,6.5465130803,-2.0427486023
 H,0,0.4314582119,6.4622404476,-1.796988419
 N,0,1.6735850588,5.3711084295,-0.3945242534
 H,0,1.7678893571,6.1474744635,0.2570069064
 H,0,0.904550386,4.7912704924,-0.0615672635
 O,0,5.3456573542,0.5523853076,-2.3139589743
 H,0,4.2382293491,-0.6637209492,-1.639783693
 H,0,6.3116434257,0.6855829607,-2.3856784245
 Recover connectivity data from disk.
                           ----------------------------
                           !    Current Parameters    !
                           ! (Angstroms and Degrees)  !
 --------------------------                            --------------------------
 ! Name  Definition              Value                                          !
 --------------------------------------------------------------------------------
 ! R1    R(1,2)                  1.0155                                         !
 ! R2    R(1,3)                  1.0166                                         !
 ! R3    R(1,4)                  1.4657                                         !
 ! R4    R(4,5)                  1.0959                                         !
 ! R5    R(4,6)                  1.0976                                         !
 ! R6    R(4,7)                  1.5291                                         !
 ! R7    R(7,8)                  1.2401                                         !
 ! R8    R(7,9)                  1.3494                                         !
 ! R9    R(9,10)                 1.0192                                         !
 ! R10   R(9,11)                 1.4613                                         !
 ! R11   R(11,12)                1.0984                                         !
 ! R12   R(11,13)                1.5417                                         !
 ! R13   R(11,14)                1.5309                                         !
 ! R14   R(13,17)                1.2417                                         !
 ! R15   R(13,28)                1.3538                                         !
 ! R16   R(14,15)                1.0975                                         !
 ! R17   R(14,16)                1.0968                                         !
 ! R18   R(14,18)                1.5414                                         !
 ! R19   R(18,19)                1.0999                                         !
 ! R20   R(18,20)                1.5356                                         !
 ! R21   R(18,24)                1.5353                                         !
 ! R22   R(20,21)                1.0975                                         !
 ! R23   R(20,22)                1.0951                                         !
 ! R24   R(20,23)                1.0963                                         !
 ! R25   R(24,25)                1.0979                                         !
 ! R26   R(24,26)                1.0962                                         !
 ! R27   R(24,27)                1.095                                          !
 ! R28   R(28,29)                1.0306                                         !
 ! R29   R(28,30)                1.461                                          !
 ! R30   R(30,31)                1.0996                                         !
 ! R31   R(30,32)                1.5323                                         !
 ! R32   R(30,33)                1.547                                          !
 ! R33   R(32,35)                1.3044                                         !
 ! R34   R(32,44)                1.3083                                         !
 ! R35   R(33,34)                1.0987                                         !
 ! R36   R(33,36)                1.5379                                         !
 ! R37   R(33,40)                1.5371                                         !
 ! R38   R(36,37)                1.0932                                         !
 ! R39   R(36,38)                1.0947                                         !
 ! R40   R(36,39)                1.0948                                         !
 ! R41   R(40,41)                1.0938                                         !
 ! R42   R(40,42)                1.094                                          !
 ! R43   R(40,43)                1.0968                                         !
 ! R44   R(44,45)                1.0418                                         !
 ! R45   R(44,46)                1.483                                          !
 ! R46   R(46,47)                1.0994                                         !
 ! R47   R(46,48)                1.5334                                         !
 ! R48   R(46,49)                1.5331                                         !
 ! R49   R(48,52)                1.1965                                         !
 ! R50   R(48,65)                1.3742                                         !
 ! R51   R(49,50)                1.0942                                         !
 ! R52   R(49,51)                1.0971                                         !
 ! R53   R(49,53)                1.544                                          !
 ! R54   R(53,54)                1.0941                                         !
 ! R55   R(53,55)                1.0968                                         !
 ! R56   R(53,56)                1.5343                                         !
 ! R57   R(56,57)                1.0974                                         !
 ! R58   R(56,58)                1.0997                                         !
 ! R59   R(56,59)                1.5339                                         !
 ! R60   R(59,60)                1.0976                                         !
 ! R61   R(59,61)                1.1038                                         !
 ! R62   R(59,62)                1.4694                                         !
 ! R63   R(62,63)                1.0179                                         !
 ! R64   R(62,64)                1.0191                                         !
 ! R65   R(65,66)                1.7776                                         !
 ! R66   R(65,67)                0.9778                                         !
 ! A1    A(2,1,3)              106.9972                                         !
 ! A2    A(2,1,4)              111.3516                                         !
 ! A3    A(3,1,4)              111.1773                                         !
 ! A4    A(1,4,5)              110.0592                                         !
 ! A5    A(1,4,6)              114.8171                                         !
 ! A6    A(1,4,7)              112.2482                                         !
 ! A7    A(5,4,6)              106.1963                                         !
 ! A8    A(5,4,7)              105.6859                                         !
 ! A9    A(6,4,7)              107.2677                                         !
 ! A10   A(4,7,8)              121.2699                                         !
 ! A11   A(4,7,9)              114.9402                                         !
 ! A12   A(8,7,9)              123.7836                                         !
 ! A13   A(7,9,10)             114.2864                                         !
 ! A14   A(7,9,11)             123.5872                                         !
 ! A15   A(10,9,11)            120.6063                                         !
 ! A16   A(9,11,12)            107.124                                          !
 ! A17   A(9,11,13)            111.041                                          !
 ! A18   A(9,11,14)            111.0447                                         !
 ! A19   A(12,11,13)           105.8317                                         !
 ! A20   A(12,11,14)           110.2088                                         !
 ! A21   A(13,11,14)           111.3746                                         !
 ! A22   A(11,13,17)           122.9228                                         !
 ! A23   A(11,13,28)           114.8046                                         !
 ! A24   A(17,13,28)           122.2395                                         !
 ! A25   A(11,14,15)           108.6241                                         !
 ! A26   A(11,14,16)           107.5898                                         !
 ! A27   A(11,14,18)           115.1283                                         !
 ! A28   A(15,14,16)           105.8307                                         !
 ! A29   A(15,14,18)           110.0329                                         !
 ! A30   A(16,14,18)           109.2057                                         !
 ! A31   A(14,18,19)           108.6416                                         !
 ! A32   A(14,18,20)           109.2813                                         !
 ! A33   A(14,18,24)           112.3389                                         !
 ! A34   A(19,18,20)           107.6278                                         !
 ! A35   A(19,18,24)           107.8843                                         !
 ! A36   A(20,18,24)           110.9209                                         !
 ! A37   A(18,20,21)           110.7927                                         !
 ! A38   A(18,20,22)           110.9405                                         !
 ! A39   A(18,20,23)           111.5271                                         !
 ! A40   A(21,20,22)           107.6911                                         !
 ! A41   A(21,20,23)           107.8324                                         !
 ! A42   A(22,20,23)           107.8996                                         !
 ! A43   A(18,24,25)           110.8463                                         !
 ! A44   A(18,24,26)           112.3331                                         !
 ! A45   A(18,24,27)           110.6218                                         !
 ! A46   A(25,24,26)           108.0538                                         !
 ! A47   A(25,24,27)           107.547                                          !
 ! A48   A(26,24,27)           107.2406                                         !
 ! A49   A(13,28,29)           116.5354                                         !
 ! A50   A(13,28,30)           121.9667                                         !
 ! A51   A(29,28,30)           119.5848                                         !
 ! A52   A(28,30,31)           107.234                                          !
 ! A53   A(28,30,32)           108.7364                                         !
 ! A54   A(28,30,33)           111.4191                                         !
 ! A55   A(31,30,32)           104.1348                                         !
 ! A56   A(31,30,33)           107.8314                                         !
 ! A57   A(32,30,33)           116.8416                                         !
 ! A58   A(30,32,35)           119.3414                                         !
 ! A59   A(30,32,44)           117.4526                                         !
 ! A60   A(35,32,44)           123.2015                                         !
 ! A61   A(30,33,34)           102.9577                                         !
 ! A62   A(30,33,36)           114.6625                                         !
 ! A63   A(30,33,40)           111.4053                                         !
 ! A64   A(34,33,36)           107.4126                                         !
 ! A65   A(34,33,40)           107.4453                                         !
 ! A66   A(36,33,40)           112.1999                                         !
 ! A67   A(33,36,37)           111.8935                                         !
 ! A68   A(33,36,38)           108.99                                           !
 ! A69   A(33,36,39)           112.393                                          !
 ! A70   A(37,36,38)           107.6273                                         !
 ! A71   A(37,36,39)           108.9132                                         !
 ! A72   A(38,36,39)           106.7878                                         !
 ! A73   A(33,40,41)           111.7654                                         !
 ! A74   A(33,40,42)           109.6097                                         !
 ! A75   A(33,40,43)           111.7593                                         !
 ! A76   A(41,40,42)           107.4776                                         !
 ! A77   A(41,40,43)           108.4965                                         !
 ! A78   A(42,40,43)           107.5515                                         !
 ! A79   A(32,44,45)           113.5096                                         !
 ! A80   A(32,44,46)           128.2573                                         !
 ! A81   A(45,44,46)           116.6981                                         !
 ! A82   A(44,46,47)           107.0543                                         !
 ! A83   A(44,46,48)           111.8789                                         !
 ! A84   A(44,46,49)           108.687                                          !
 ! A85   A(47,46,48)           106.1471                                         !
 ! A86   A(47,46,49)           110.3026                                         !
 ! A87   A(48,46,49)           112.6102                                         !
 ! A88   A(46,48,52)           126.9508                                         !
 ! A89   A(46,48,65)           109.6281                                         !
 ! A90   A(52,48,65)           123.3473                                         !
 ! A91   A(46,49,50)           107.4802                                         !
 ! A92   A(46,49,51)           106.5272                                         !
 ! A93   A(46,49,53)           113.9232                                         !
 ! A94   A(50,49,51)           106.6132                                         !
 ! A95   A(50,49,53)           111.3151                                         !
 ! A96   A(51,49,53)           110.5995                                         !
 ! A97   A(49,53,54)           109.4463                                         !
 ! A98   A(49,53,55)           111.2784                                         !
 ! A99   A(49,53,56)           113.1302                                         !
 ! A100  A(54,53,55)           105.3734                                         !
 ! A101  A(54,53,56)           110.58                                           !
 ! A102  A(55,53,56)           106.7324                                         !
 ! A103  A(53,56,57)           110.7994                                         !
 ! A104  A(53,56,58)           109.0353                                         !
 ! A105  A(53,56,59)           112.1753                                         !
 ! A106  A(57,56,58)           106.8448                                         !
 ! A107  A(57,56,59)           109.694                                          !
 ! A108  A(58,56,59)           108.1092                                         !
 ! A109  A(56,59,60)           109.6151                                         !
 ! A110  A(56,59,61)           108.5681                                         !
 ! A111  A(56,59,62)           109.9546                                         !
 ! A112  A(60,59,61)           106.673                                          !
 ! A113  A(60,59,62)           107.8555                                         !
 ! A114  A(61,59,62)           114.0681                                         !
 ! A115  A(59,62,63)           110.1103                                         !
 ! A116  A(59,62,64)           109.6029                                         !
 ! A117  A(63,62,64)           107.1432                                         !
 ! A118  A(48,65,66)           113.2675                                         !
 ! A119  A(48,65,67)           109.2955                                         !
 ! A120  A(66,65,67)           137.4349                                         !
 ! D1    D(2,1,4,5)             24.1262                                         !
 ! D2    D(2,1,4,6)            -95.6099                                         !
 ! D3    D(2,1,4,7)            141.5355                                         !
 ! D4    D(3,1,4,5)            143.3386                                         !
 ! D5    D(3,1,4,6)             23.6025                                         !
 ! D6    D(3,1,4,7)            -99.2521                                         !
 ! D7    D(1,4,7,8)            172.0652                                         !
 ! D8    D(1,4,7,9)             -8.8126                                         !
 ! D9    D(5,4,7,8)            -67.9486                                         !
 ! D10   D(5,4,7,9)            111.1737                                         !
 ! D11   D(6,4,7,8)             45.0486                                         !
 ! D12   D(6,4,7,9)           -135.8292                                         !
 ! D13   D(4,7,9,10)            -0.3839                                         !
 ! D14   D(4,7,9,11)          -166.3536                                         !
 ! D15   D(8,7,9,10)           178.7134                                         !
 ! D16   D(8,7,9,11)            12.7437                                         !
 ! D17   D(7,9,11,12)           34.5657                                         !
 ! D18   D(7,9,11,13)          -80.5458                                         !
 ! D19   D(7,9,11,14)          154.9531                                         !
 ! D20   D(10,9,11,12)        -130.557                                          !
 ! D21   D(10,9,11,13)         114.3314                                         !
 ! D22   D(10,9,11,14)         -10.1696                                         !
 ! D23   D(9,11,13,17)        -121.2466                                         !
 ! D24   D(9,11,13,28)          60.8058                                         !
 ! D25   D(12,11,13,17)        122.8408                                         !
 ! D26   D(12,11,13,28)        -55.1068                                         !
 ! D27   D(14,11,13,17)          3.0675                                         !
 ! D28   D(14,11,13,28)       -174.8801                                         !
 ! D29   D(9,11,14,15)          65.147                                          !
 ! D30   D(9,11,14,16)         179.2783                                         !
 ! D31   D(9,11,14,18)         -58.7254                                         !
 ! D32   D(12,11,14,15)       -176.3105                                         !
 ! D33   D(12,11,14,16)        -62.1793                                         !
 ! D34   D(12,11,14,18)         59.8171                                         !
 ! D35   D(13,11,14,15)        -59.1651                                         !
 ! D36   D(13,11,14,16)         54.9662                                         !
 ! D37   D(13,11,14,18)        176.9626                                         !
 ! D38   D(11,13,28,29)         -3.3636                                         !
 ! D39   D(11,13,28,30)       -167.5415                                         !
 ! D40   D(17,13,28,29)        178.6732                                         !
 ! D41   D(17,13,28,30)         14.4953                                         !
 ! D42   D(11,14,18,19)         62.4624                                         !
 ! D43   D(11,14,18,20)        179.6306                                         !
 ! D44   D(11,14,18,24)        -56.8138                                         !
 ! D45   D(15,14,18,19)        -60.6634                                         !
 ! D46   D(15,14,18,20)         56.5049                                         !
 ! D47   D(15,14,18,24)       -179.9395                                         !
 ! D48   D(16,14,18,19)       -176.4164                                         !
 ! D49   D(16,14,18,20)        -59.2481                                         !
 ! D50   D(16,14,18,24)         64.3075                                         !
 ! D51   D(14,18,20,21)         63.4698                                         !
 ! D52   D(14,18,20,22)       -176.9691                                         !
 ! D53   D(14,18,20,23)        -56.6569                                         !
 ! D54   D(19,18,20,21)       -178.7237                                         !
 ! D55   D(19,18,20,22)        -59.1626                                         !
 ! D56   D(19,18,20,23)         61.1496                                         !
 ! D57   D(24,18,20,21)        -60.9203                                         !
 ! D58   D(24,18,20,22)         58.6408                                         !
 ! D59   D(24,18,20,23)        178.953                                          !
 ! D60   D(14,18,24,25)        -56.9444                                         !
 ! D61   D(14,18,24,26)         64.049                                          !
 ! D62   D(14,18,24,27)       -176.1528                                         !
 ! D63   D(19,18,24,25)       -176.6623                                         !
 ! D64   D(19,18,24,26)        -55.6689                                         !
 ! D65   D(19,18,24,27)         64.1293                                         !
 ! D66   D(20,18,24,25)         65.6905                                         !
 ! D67   D(20,18,24,26)       -173.3161                                         !
 ! D68   D(20,18,24,27)        -53.5179                                         !
 ! D69   D(13,28,30,31)         29.4627                                         !
 ! D70   D(13,28,30,32)        -82.5745                                         !
 ! D71   D(13,28,30,33)        147.2431                                         !
 ! D72   D(29,28,30,31)       -134.2473                                         !
 ! D73   D(29,28,30,32)        113.7155                                         !
 ! D74   D(29,28,30,33)        -16.4668                                         !
 ! D75   D(28,30,32,35)       -117.1305                                         !
 ! D76   D(28,30,32,44)         62.1256                                         !
 ! D77   D(31,30,32,35)        128.7877                                         !
 ! D78   D(31,30,32,44)        -51.9562                                         !
 ! D79   D(33,30,32,35)         10.0144                                         !
 ! D80   D(33,30,32,44)       -170.7295                                         !
 ! D81   D(28,30,33,34)        -58.0811                                         !
 ! D82   D(28,30,33,36)         58.2488                                         !
 ! D83   D(28,30,33,40)       -172.9546                                         !
 ! D84   D(31,30,33,34)         59.3383                                         !
 ! D85   D(31,30,33,36)        175.6682                                         !
 ! D86   D(31,30,33,40)        -55.5352                                         !
 ! D87   D(32,30,33,34)        176.1002                                         !
 ! D88   D(32,30,33,36)        -67.5699                                         !
 ! D89   D(32,30,33,40)         61.2267                                         !
 ! D90   D(30,32,44,45)          0.7832                                         !
 ! D91   D(30,32,44,46)       -164.4542                                         !
 ! D92   D(35,32,44,45)       -179.9918                                         !
 ! D93   D(35,32,44,46)         14.7708                                         !
 ! D94   D(30,33,36,37)         63.5873                                         !
 ! D95   D(30,33,36,38)       -177.5023                                         !
 ! D96   D(30,33,36,39)        -59.328                                          !
 ! D97   D(34,33,36,37)        177.3276                                         !
 ! D98   D(34,33,36,38)        -63.7621                                         !
 ! D99   D(34,33,36,39)         54.4122                                         !
 ! D100  D(40,33,36,37)        -64.811                                          !
 ! D101  D(40,33,36,38)         54.0993                                         !
 ! D102  D(40,33,36,39)        172.2736                                         !
 ! D103  D(30,33,40,41)        -72.15                                           !
 ! D104  D(30,33,40,42)        168.8015                                         !
 ! D105  D(30,33,40,43)         49.6647                                         !
 ! D106  D(34,33,40,41)        175.786                                          !
 ! D107  D(34,33,40,42)         56.7375                                         !
 ! D108  D(34,33,40,43)        -62.3994                                         !
 ! D109  D(36,33,40,41)         57.944                                          !
 ! D110  D(36,33,40,42)        -61.1045                                         !
 ! D111  D(36,33,40,43)        179.7586                                         !
 ! D112  D(32,44,46,47)         36.4089                                         !
 ! D113  D(32,44,46,48)        -79.4823                                         !
 ! D114  D(32,44,46,49)        155.5455                                         !
 ! D115  D(45,44,46,47)       -128.4292                                         !
 ! D116  D(45,44,46,48)        115.6796                                         !
 ! D117  D(45,44,46,49)         -9.2926                                         !
 ! D118  D(44,46,48,52)       -126.3358                                         !
 ! D119  D(44,46,48,65)         56.7267                                         !
 ! D120  D(47,46,48,52)        117.2226                                         !
 ! D121  D(47,46,48,65)        -59.715                                          !
 ! D122  D(49,46,48,52)         -3.5668                                         !
 ! D123  D(49,46,48,65)        179.4957                                         !
 ! D124  D(44,46,49,50)       -175.2465                                         !
 ! D125  D(44,46,49,51)        -61.2855                                         !
 ! D126  D(44,46,49,53)         60.9312                                         !
 ! D127  D(47,46,49,50)        -58.1661                                         !
 ! D128  D(47,46,49,51)         55.7949                                         !
 ! D129  D(47,46,49,53)        178.0117                                         !
 ! D130  D(48,46,49,50)         60.2124                                         !
 ! D131  D(48,46,49,51)        174.1734                                         !
 ! D132  D(48,46,49,53)        -63.6099                                         !
 ! D133  D(46,48,65,66)         -1.3444                                         !
 ! D134  D(46,48,65,67)        178.2233                                         !
 ! D135  D(52,48,65,66)       -178.4147                                         !
 ! D136  D(52,48,65,67)          1.1529                                         !
 ! D137  D(46,49,53,54)         94.216                                          !
 ! D138  D(46,49,53,55)        -21.8379                                         !
 ! D139  D(46,49,53,56)       -141.992                                          !
 ! D140  D(50,49,53,54)        -27.5083                                         !
 ! D141  D(50,49,53,55)       -143.5621                                         !
 ! D142  D(50,49,53,56)         96.2837                                         !
 ! D143  D(51,49,53,54)       -145.8366                                         !
 ! D144  D(51,49,53,55)         98.1095                                         !
 ! D145  D(51,49,53,56)        -22.0446                                         !
 ! D146  D(49,53,56,57)        -70.9937                                         !
 ! D147  D(49,53,56,58)         46.3268                                         !
 ! D148  D(49,53,56,59)        166.0426                                         !
 ! D149  D(54,53,56,57)         52.1739                                         !
 ! D150  D(54,53,56,58)        169.4944                                         !
 ! D151  D(54,53,56,59)        -70.7898                                         !
 ! D152  D(55,53,56,57)        166.2896                                         !
 ! D153  D(55,53,56,58)        -76.3899                                         !
 ! D154  D(55,53,56,59)         43.3259                                         !
 ! D155  D(53,56,59,60)         60.16                                           !
 ! D156  D(53,56,59,61)        176.3293                                         !
 ! D157  D(53,56,59,62)        -58.2443                                         !
 ! D158  D(57,56,59,60)        -63.425                                          !
 ! D159  D(57,56,59,61)         52.7443                                         !
 ! D160  D(57,56,59,62)        178.1707                                         !
 ! D161  D(58,56,59,60)       -179.5849                                         !
 ! D162  D(58,56,59,61)        -63.4156                                         !
 ! D163  D(58,56,59,62)         62.0108                                         !
 ! D164  D(56,59,62,63)        178.2165                                         !
 ! D165  D(56,59,62,64)        -64.163                                          !
 ! D166  D(60,59,62,63)         58.733                                          !
 ! D167  D(60,59,62,64)        176.3535                                         !
 ! D168  D(61,59,62,63)        -59.5619                                         !
 ! D169  D(61,59,62,64)         58.0586                                         !
 --------------------------------------------------------------------------------
 Symmetry turned off by external request.
 Stoichiometry    C19H38N5O5(1+)
 Framework group  C1[X(C19H38N5O5)]
 Deg. of freedom   195
 Full point group                 C1      NOp   1
                          Input orientation:                          
 ---------------------------------------------------------------------
 Center     Atomic      Atomic             Coordinates (Angstroms)
 Number     Number       Type             X           Y           Z
 ---------------------------------------------------------------------
      1          7           0       -3.725240    0.476072    3.213012
      2          1           0       -4.697742    0.384653    3.490595
      3          1           0       -3.195801    0.694863    4.052814
      4          6           0       -3.232870   -0.751552    2.581476
      5          1           0       -4.070264   -1.319878    2.160957
      6          1           0       -2.705719   -1.437655    3.256909
      7          6           0       -2.297540   -0.463282    1.406707
      8          8           0       -1.670905   -1.373728    0.844408
      9          7           0       -2.232541    0.832552    1.035810
     10          1           0       -2.822962    1.455909    1.585028
     11          6           0       -1.639344    1.284987   -0.220665
     12          1           0       -1.854473    0.516257   -0.975167
     13          6           0       -0.102765    1.352051   -0.114817
     14          6           0       -2.228048    2.630236   -0.653541
     15          1           0       -1.942158    3.391392    0.083580
     16          1           0       -1.736671    2.921141   -1.589989
     17          8           0        0.541729    2.396555   -0.303087
     18          6           0       -3.755824    2.640753   -0.858025
     19          1           0       -4.240661    2.411009    0.102189
     20          6           0       -4.201414    4.048764   -1.278833
     21          1           0       -3.763305    4.322959   -2.246964
     22          1           0       -5.290578    4.100760   -1.379760
     23          1           0       -3.894543    4.803767   -0.545563
     24          6           0       -4.214902    1.591869   -1.880871
     25          1           0       -3.712316    1.740745   -2.845541
     26          1           0       -4.012325    0.567677   -1.546760
     27          1           0       -5.293239    1.669142   -2.055020
     28          7           0        0.499834    0.170847    0.157829
     29          1           0       -0.120605   -0.636030    0.319595
     30          6           0        1.903816    0.092113    0.554376
     31          1           0        2.147867    1.028528    1.076520
     32          6           0        2.774128    0.128818   -0.706247
     33          6           0        2.148312   -1.076442    1.538194
     34          1           0        1.471268   -0.842778    2.371395
     35          8           0        3.523000   -0.899109   -0.996091
     36          6           0        1.754128   -2.461940    0.999559
     37          1           0        2.355285   -2.748395    0.132584
     38          1           0        1.922802   -3.209296    1.781446
     39          1           0        0.694341   -2.518949    0.730994
     40          6           0        3.582753   -1.054418    2.089962
     41          1           0        4.313371   -1.351674    1.332237
     42          1           0        3.666934   -1.759673    2.922096
     43          1           0        3.857721   -0.062307    2.468141
     44          7           0        2.711477    1.202396   -1.451391
     45          1           0        2.066162    1.930161   -1.078257
     46          6           0        3.180853    1.380285   -2.846825
     47          1           0        2.986454    0.436024   -3.375238
     48          6           0        4.696404    1.603430   -2.915877
     49          6           0        2.386908    2.523106   -3.490202
     50          1           0        2.686959    2.580964   -4.540904
     51          1           0        1.333863    2.215288   -3.481191
     52          8           0        5.266461    2.508316   -3.452328
     53          6           0        2.561320    3.883491   -2.780973
     54          1           0        3.357312    4.451035   -3.272313
     55          1           0        2.895099    3.752101   -1.744527
     56          6           0        1.266973    4.705542   -2.727354
     57          1           0        1.003906    5.083570   -3.723381
     58          1           0        0.441456    4.054170   -2.405444
     59          6           0        1.364419    5.875131   -1.739677
     60          1           0        2.178111    6.546513   -2.042749
     61          1           0        0.431458    6.462240   -1.796988
     62          7           0        1.673585    5.371108   -0.394524
     63          1           0        1.767889    6.147474    0.257007
     64          1           0        0.904550    4.791270   -0.061567
     65          8           0        5.345657    0.552385   -2.313959
     66          1           0        4.238229   -0.663721   -1.639784
     67          1           0        6.311643    0.685583   -2.385678
 ---------------------------------------------------------------------
 Rotational constants (GHZ):           0.1812776           0.1124817           0.0790966
 Standard basis: 6-31G(d) (6D, 7F)
   511 basis functions,   964 primitive gaussians,   511 cartesian basis functions
   113 alpha electrons      113 beta electrons
       nuclear repulsion energy      3165.1274036254 Hartrees.
 NAtoms=   67 NActive=   67 NUniq=   67 SFac= 1.00D+00 NAtFMM=   60 NAOKFM=T Big=T
 Integral buffers will be    131072 words long.
 Raffenetti 2 integral format.
 Two-electron integral symmetry is turned off.
 Nuclear repulsion after empirical dispersion term =     3165.0438283334 Hartrees.
 One-electron integrals computed using PRISM.
 NBasis=   511 RedAO= T EigKep=  1.65D-03  NBF=   511
 NBsUse=   511 1.00D-06 EigRej= -1.00D+00 NBFU=   511
 Initial guess from the checkpoint file:  "conf-879.chk"
 B after Tr=     0.000000    0.000000    0.000000
         Rot=    1.000000    0.000000    0.000000    0.000000 Ang=   0.00 deg.
 Requested convergence on RMS density matrix=1.00D-08 within 128 cycles.
 Requested convergence on MAX density matrix=1.00D-06.
 Requested convergence on             energy=1.00D-06.
 No special actions if energy rises.
 SCF Done:  E(RB3LYP) =  -1396.71231072     A.U. after    1 cycles
            NFock=  1  Conv=0.98D-08     -V/T= 2.0095

 **********************************************************************

            Population analysis using the SCF Density.

 **********************************************************************

 Alpha  occ. eigenvalues --  -19.36624 -19.35213 -19.28791 -19.25473 -19.22472
 Alpha  occ. eigenvalues --  -14.54189 -14.48178 -14.46455 -14.43006 -14.38372
 Alpha  occ. eigenvalues --  -10.48300 -10.46742 -10.41539 -10.39442 -10.39144
 Alpha  occ. eigenvalues --  -10.37963 -10.34573 -10.32232 -10.31619 -10.30929
 Alpha  occ. eigenvalues --  -10.28451 -10.28144 -10.28127 -10.27980 -10.27442
 Alpha  occ. eigenvalues --  -10.27338 -10.26404 -10.25709 -10.25284  -1.27130
 Alpha  occ. eigenvalues --   -1.24974  -1.17012  -1.16714  -1.14028  -1.11591
 Alpha  occ. eigenvalues --   -1.05441  -1.03457  -0.98950  -0.95365  -0.94782
 Alpha  occ. eigenvalues --   -0.92243  -0.90421  -0.87098  -0.85808  -0.84173
 Alpha  occ. eigenvalues --   -0.80909  -0.79877  -0.79429  -0.79098  -0.76569
 Alpha  occ. eigenvalues --   -0.76191  -0.74634  -0.73858  -0.72295  -0.70268
 Alpha  occ. eigenvalues --   -0.69522  -0.68428  -0.67191  -0.66247  -0.65491
 Alpha  occ. eigenvalues --   -0.64389  -0.64069  -0.63090  -0.61945  -0.61046
 Alpha  occ. eigenvalues --   -0.60482  -0.59756  -0.58251  -0.58067  -0.57588
 Alpha  occ. eigenvalues --   -0.57072  -0.56538  -0.55518  -0.55401  -0.54849
 Alpha  occ. eigenvalues --   -0.54541  -0.54169  -0.53797  -0.53240  -0.52579
 Alpha  occ. eigenvalues --   -0.52309  -0.51967  -0.51682  -0.51209  -0.50205
 Alpha  occ. eigenvalues --   -0.49774  -0.49581  -0.48821  -0.48386  -0.47746
 Alpha  occ. eigenvalues --   -0.47527  -0.47050  -0.46643  -0.46399  -0.46039
 Alpha  occ. eigenvalues --   -0.45502  -0.45274  -0.45073  -0.44585  -0.43964
 Alpha  occ. eigenvalues --   -0.42889  -0.41955  -0.41607  -0.41577  -0.41409
 Alpha  occ. eigenvalues --   -0.41256  -0.40854  -0.39920  -0.38945  -0.37812
 Alpha  occ. eigenvalues --   -0.35961  -0.34574  -0.30721
 Alpha virt. eigenvalues --   -0.17855  -0.14004  -0.11304  -0.08380  -0.07081
 Alpha virt. eigenvalues --   -0.03840  -0.02337  -0.02184  -0.01714   0.00426
 Alpha virt. eigenvalues --    0.00738   0.00984   0.01322   0.01801   0.02181
 Alpha virt. eigenvalues --    0.02487   0.03020   0.03302   0.03553   0.04231
 Alpha virt. eigenvalues --    0.04348   0.04759   0.05088   0.05453   0.05707
 Alpha virt. eigenvalues --    0.05818   0.06379   0.06975   0.07297   0.07553
 Alpha virt. eigenvalues --    0.07888   0.08061   0.08648   0.08779   0.08951
 Alpha virt. eigenvalues --    0.09523   0.09854   0.09945   0.10379   0.10842
 Alpha virt. eigenvalues --    0.10996   0.11264   0.11529   0.11816   0.12387
 Alpha virt. eigenvalues --    0.12727   0.13258   0.14005   0.14552   0.14734
 Alpha virt. eigenvalues --    0.15431   0.15538   0.16050   0.16258   0.16624
 Alpha virt. eigenvalues --    0.16859   0.17036   0.17630   0.18550   0.18856
 Alpha virt. eigenvalues --    0.19240   0.20585   0.21231   0.21987   0.23645
 Alpha virt. eigenvalues --    0.24554   0.26501   0.27995   0.31011   0.33269
 Alpha virt. eigenvalues --    0.34395   0.36338   0.36992   0.38920   0.39439
 Alpha virt. eigenvalues --    0.39483   0.40273   0.41227   0.41293   0.42321
 Alpha virt. eigenvalues --    0.42901   0.43269   0.43519   0.43919   0.44847
 Alpha virt. eigenvalues --    0.45575   0.46074   0.46619   0.47416   0.48168
 Alpha virt. eigenvalues --    0.48276   0.48651   0.50049   0.50196   0.50454
 Alpha virt. eigenvalues --    0.50952   0.51370   0.52760   0.52935   0.53761
 Alpha virt. eigenvalues --    0.54150   0.54584   0.54780   0.55849   0.56382
 Alpha virt. eigenvalues --    0.57249   0.57853   0.58142   0.58699   0.59297
 Alpha virt. eigenvalues --    0.60111   0.60381   0.61230   0.61923   0.62515
 Alpha virt. eigenvalues --    0.62633   0.63263   0.64153   0.64645   0.65569
 Alpha virt. eigenvalues --    0.66015   0.67115   0.67790   0.69259   0.69432
 Alpha virt. eigenvalues --    0.70129   0.70435   0.70724   0.71202   0.71652
 Alpha virt. eigenvalues --    0.72004   0.72609   0.73057   0.73622   0.74774
 Alpha virt. eigenvalues --    0.74886   0.75853   0.76137   0.76653   0.77442
 Alpha virt. eigenvalues --    0.77712   0.77778   0.78520   0.79030   0.79540
 Alpha virt. eigenvalues --    0.79986   0.80174   0.80713   0.80842   0.80981
 Alpha virt. eigenvalues --    0.81163   0.81939   0.82256   0.82581   0.83160
 Alpha virt. eigenvalues --    0.83462   0.83625   0.84076   0.84460   0.84861
 Alpha virt. eigenvalues --    0.85280   0.85469   0.86212   0.86255   0.86796
 Alpha virt. eigenvalues --    0.87111   0.87170   0.87482   0.88236   0.89317
 Alpha virt. eigenvalues --    0.89844   0.90204   0.90929   0.91449   0.92154
 Alpha virt. eigenvalues --    0.92597   0.93760   0.94605   0.94891   0.95829
 Alpha virt. eigenvalues --    0.96126   0.97860   0.98269   0.99186   1.00263
 Alpha virt. eigenvalues --    1.01371   1.02420   1.04030   1.05061   1.06774
 Alpha virt. eigenvalues --    1.08241   1.09077   1.09828   1.11868   1.13430
 Alpha virt. eigenvalues --    1.15559   1.16782   1.17277   1.17731   1.17984
 Alpha virt. eigenvalues --    1.19331   1.20048   1.20839   1.22144   1.23273
 Alpha virt. eigenvalues --    1.24847   1.26243   1.27113   1.28593   1.29011
 Alpha virt. eigenvalues --    1.30162   1.31787   1.33459   1.33764   1.34753
 Alpha virt. eigenvalues --    1.35726   1.37720   1.38483   1.39049   1.39616
 Alpha virt. eigenvalues --    1.40904   1.41693   1.42924   1.43510   1.44047
 Alpha virt. eigenvalues --    1.45718   1.46349   1.50073   1.50858   1.51766
 Alpha virt. eigenvalues --    1.52373   1.53677   1.55357   1.56766   1.56828
 Alpha virt. eigenvalues --    1.57622   1.58279   1.59740   1.59963   1.61195
 Alpha virt. eigenvalues --    1.61666   1.62517   1.63530   1.64948   1.65904
 Alpha virt. eigenvalues --    1.66962   1.67220   1.68263   1.68525   1.69336
 Alpha virt. eigenvalues --    1.69968   1.70209   1.70790   1.71087   1.72022
 Alpha virt. eigenvalues --    1.73037   1.74432   1.74873   1.75787   1.76215
 Alpha virt. eigenvalues --    1.77533   1.79258   1.79438   1.80637   1.80878
 Alpha virt. eigenvalues --    1.81163   1.81585   1.81906   1.82608   1.84267
 Alpha virt. eigenvalues --    1.85015   1.86274   1.86568   1.88550   1.88945
 Alpha virt. eigenvalues --    1.89239   1.89480   1.90441   1.90810   1.92444
 Alpha virt. eigenvalues --    1.93066   1.93417   1.93640   1.95098   1.96343
 Alpha virt. eigenvalues --    1.96576   1.97087   1.97732   1.98127   1.98588
 Alpha virt. eigenvalues --    1.99018   1.99551   2.00328   2.02345   2.02975
 Alpha virt. eigenvalues --    2.03218   2.04443   2.05354   2.07779   2.09207
 Alpha virt. eigenvalues --    2.11135   2.12483   2.13397   2.14852   2.15454
 Alpha virt. eigenvalues --    2.16069   2.16556   2.17054   2.17575   2.18921
 Alpha virt. eigenvalues --    2.20700   2.21818   2.22378   2.24032   2.24755
 Alpha virt. eigenvalues --    2.25080   2.26734   2.28269   2.28865   2.29157
 Alpha virt. eigenvalues --    2.29846   2.32350   2.32739   2.33492   2.34467
 Alpha virt. eigenvalues --    2.35124   2.35909   2.36239   2.37845   2.38886
 Alpha virt. eigenvalues --    2.39796   2.40333   2.41438   2.42786   2.44866
 Alpha virt. eigenvalues --    2.45194   2.46984   2.48329   2.49238   2.51010
 Alpha virt. eigenvalues --    2.51916   2.52201   2.53063   2.54302   2.56803
 Alpha virt. eigenvalues --    2.58543   2.58989   2.59982   2.60399   2.61204
 Alpha virt. eigenvalues --    2.62909   2.64459   2.65654   2.67730   2.68463
 Alpha virt. eigenvalues --    2.70675   2.72499   2.74473   2.76133   2.84042
 Alpha virt. eigenvalues --    2.85536   2.86402   2.89978   2.92568   2.95375
 Alpha virt. eigenvalues --    2.96926   2.99684   3.04745   3.07700   3.73477
 Alpha virt. eigenvalues --    3.73950   3.75615   3.83932   3.90655   3.93436
 Alpha virt. eigenvalues --    3.99405   4.01467   4.02812   4.07776   4.08828
 Alpha virt. eigenvalues --    4.10532   4.12952   4.15634   4.17752   4.20804
 Alpha virt. eigenvalues --    4.21207   4.25237   4.29155   4.34780   4.37258
 Alpha virt. eigenvalues --    4.40585   4.42653   4.45160   4.46216   4.48333
 Alpha virt. eigenvalues --    4.50041   4.52708   4.59424
          Condensed to atoms (all electrons):
 Mulliken charges:
               1
     1  N   -0.751460
     2  H    0.336271
     3  H    0.327850
     4  C   -0.237044
     5  H    0.202128
     6  H    0.183497
     7  C    0.602089
     8  O   -0.556395
     9  N   -0.595510
    10  H    0.380357
    11  C   -0.063560
    12  H    0.191845
    13  C    0.633606
    14  C   -0.289283
    15  H    0.153995
    16  H    0.159246
    17  O   -0.552447
    18  C   -0.083879
    19  H    0.131378
    20  C   -0.444948
    21  H    0.147846
    22  H    0.161021
    23  H    0.147939
    24  C   -0.455691
    25  H    0.145467
    26  H    0.146625
    27  H    0.165145
    28  N   -0.641729
    29  H    0.419525
    30  C   -0.068448
    31  H    0.212544
    32  C    0.646023
    33  C   -0.104908
    34  H    0.162740
    35  O   -0.555848
    36  C   -0.488637
    37  H    0.167626
    38  H    0.174607
    39  H    0.186832
    40  C   -0.469275
    41  H    0.162047
    42  H    0.179646
    43  H    0.154458
    44  N   -0.583310
    45  H    0.454029
    46  C   -0.115207
    47  H    0.212040
    48  C    0.647488
    49  C   -0.294215
    50  H    0.191472
    51  H    0.162036
    52  O   -0.385496
    53  C   -0.291669
    54  H    0.177413
    55  H    0.171760
    56  C   -0.281169
    57  H    0.148342
    58  H    0.140594
    59  C   -0.139624
    60  H    0.150369
    61  H    0.128398
    62  N   -0.738955
    63  H    0.306617
    64  H    0.310770
    65  O   -0.624750
    66  H    0.476671
    67  H    0.453107
 Sum of Mulliken charges =   1.00000
 Mulliken charges with hydrogens summed into heavy atoms:
               1
     1  N   -0.087339
     4  C    0.148581
     7  C    0.602089
     8  O   -0.556395
     9  N   -0.215154
    11  C    0.128284
    13  C    0.633606
    14  C    0.023957
    17  O   -0.552447
    18  C    0.047499
    20  C    0.011858
    24  C    0.001546
    28  N   -0.222204
    30  C    0.144095
    32  C    0.646023
    33  C    0.057832
    35  O   -0.079176
    36  C    0.040428
    40  C    0.026877
    44  N   -0.129282
    46  C    0.096833
    48  C    0.647488
    49  C    0.059293
    52  O   -0.385496
    53  C    0.057505
    56  C    0.007767
    59  C    0.139143
    62  N   -0.121568
    65  O   -0.171644
 Electronic spatial extent (au):  <R**2>=          16060.5772
 Charge=              1.0000 electrons
 Dipole moment (field-independent basis, Debye):
    X=              4.9026    Y=              3.6852    Z=             -0.7128  Tot=              6.1745
 Quadrupole moment (field-independent basis, Debye-Ang):
   XX=            -99.6383   YY=           -160.0534   ZZ=           -136.5936
   XY=             -9.5965   XZ=            -29.9142   YZ=             -5.7740
 Traceless Quadrupole moment (field-independent basis, Debye-Ang):
   XX=             32.4568   YY=            -27.9583   ZZ=             -4.4985
   XY=             -9.5965   XZ=            -29.9142   YZ=             -5.7740
 Octapole moment (field-independent basis, Debye-Ang**2):
  XXX=           -126.3982  YYY=           -622.1568  ZZZ=            319.0408  XYY=           -108.0729
  XXY=           -254.0452  XXZ=             76.8095  XZZ=           -100.5514  YZZ=           -229.9230
  YYZ=             94.4031  XYZ=             10.9812
 Hexadecapole moment (field-independent basis, Debye-Ang**3):
 XXXX=          -7265.6068 YYYY=          -6262.9802 ZZZZ=          -3659.8858 XXXY=           -398.8298
 XXXZ=            584.8055 YYYX=           -207.1033 YYYZ=           1565.3502 ZZZX=            971.2142
 ZZZY=           1569.6232 XXYY=          -2829.6318 XXZZ=          -1837.3205 YYZZ=          -1777.2623
 XXYZ=            586.4870 YYXZ=            497.5709 ZZXY=           -122.5581
 N-N= 3.165043828333D+03 E-N=-9.556286862048D+03  KE= 1.383563708819D+03
 Unable to Open any file for archive entry.
 1\1\GINC-AMR-072\SP\RB3LYP\6-31G(d)\C19H38N5O5(1+)\KENGMITH\02-Jun-202
 2\0\\# B3LYP/6-31G* empiricaldispersion=gd3 guess=read geom=check nosy
 mm integral(ultrafinegrid)\\Candidate Structure: Conf:879 Charge calc 
 in gas phase\\1,1\N,0,-3.7252403697,0.4760718881,3.2130118154\H,0,-4.6
 977416617,0.384653211,3.4905947627\H,0,-3.1958005459,0.6948634678,4.05
 28136455\C,0,-3.2328697791,-0.7515524164,2.5814759018\H,0,-4.070264208
 5,-1.319878033,2.1609566595\H,0,-2.7057192615,-1.4376547361,3.25690908
 6\C,0,-2.2975401096,-0.4632820609,1.4067069581\O,0,-1.6709049074,-1.37
 3727657,0.8444076624\N,0,-2.2325407881,0.8325520242,1.035810425\H,0,-2
 .8229619174,1.4559092337,1.5850279485\C,0,-1.6393436709,1.2849871727,-
 0.2206647711\H,0,-1.8544727782,0.516256644,-0.9751672043\C,0,-0.102765
 4379,1.3520507278,-0.1148174092\C,0,-2.2280482535,2.6302357588,-0.6535
 407448\H,0,-1.9421580872,3.3913916985,0.0835799184\H,0,-1.7366713915,2
 .9211411543,-1.5899892371\O,0,0.5417288535,2.3965548993,-0.3030865947\
 C,0,-3.7558242876,2.6407531419,-0.8580248214\H,0,-4.2406606469,2.41100
 93836,0.1021892128\C,0,-4.2014136032,4.0487639038,-1.2788326519\H,0,-3
 .7633053565,4.3229585861,-2.2469644332\H,0,-5.2905778825,4.1007598923,
 -1.3797596763\H,0,-3.8945430888,4.8037666121,-0.5455629176\C,0,-4.2149
 015848,1.5918687866,-1.8808712776\H,0,-3.7123162644,1.740744907,-2.845
 5414027\H,0,-4.012325153,0.5676767672,-1.5467596736\H,0,-5.2932394391,
 1.6691417844,-2.0550198416\N,0,0.4998336488,0.1708465642,0.1578294074\
 H,0,-0.1206051623,-0.6360297258,0.3195953101\C,0,1.903816389,0.0921132
 971,0.5543761701\H,0,2.1478670092,1.0285275947,1.0765203248\C,0,2.7741
 283061,0.1288184426,-0.7062467761\C,0,2.1483115484,-1.0764421227,1.538
 1935857\H,0,1.4712681227,-0.8427779927,2.3713948599\O,0,3.5229999326,-
 0.8991090756,-0.9960911589\C,0,1.7541280509,-2.4619404387,0.9995592137
 \H,0,2.3552847445,-2.7483953901,0.1325840922\H,0,1.9228016138,-3.20929
 60429,1.7814463172\H,0,0.6943412001,-2.5189493508,0.7309940807\C,0,3.5
 827531455,-1.0544179765,2.0899622765\H,0,4.3133705142,-1.3516741386,1.
 3322367361\H,0,3.6669342464,-1.7596730998,2.9220964856\H,0,3.857720859
 5,-0.0623069171,2.4681406778\N,0,2.7114771368,1.2023964793,-1.45139128
 31\H,0,2.0661617024,1.9301610394,-1.0782565073\C,0,3.1808526954,1.3802
 852732,-2.8468254912\H,0,2.9864538551,0.4360244434,-3.3752383717\C,0,4
 .6964038145,1.6034300406,-2.9158773288\C,0,2.3869080031,2.5231055755,-
 3.4902021669\H,0,2.6869588412,2.5809639698,-4.5409035107\H,0,1.3338625
 483,2.2152882051,-3.481190864\O,0,5.2664608946,2.5083156198,-3.4523278
 957\C,0,2.5613201273,3.8834906398,-2.7809728291\H,0,3.3573124208,4.451
 0351126,-3.2723133485\H,0,2.895098965,3.7521012325,-1.7445274947\C,0,1
 .26697346,4.7055424772,-2.7273539233\H,0,1.0039063183,5.0835695575,-3.
 7233806585\H,0,0.4414555266,4.0541697635,-2.4054440647\C,0,1.364418515
 2,5.875130719,-1.7396765499\H,0,2.1781111648,6.5465130803,-2.042748602
 3\H,0,0.4314582119,6.4622404476,-1.796988419\N,0,1.6735850588,5.371108
 4295,-0.3945242534\H,0,1.7678893571,6.1474744635,0.2570069064\H,0,0.90
 4550386,4.7912704924,-0.0615672635\O,0,5.3456573542,0.5523853076,-2.31
 39589743\H,0,4.2382293491,-0.6637209492,-1.639783693\H,0,6.3116434257,
 0.6855829607,-2.3856784245\\Version=ES64L-G16RevC.01\HF=-1396.7123107\
 RMSD=9.754e-09\Dipole=0.8308057,-1.1477864,0.7744177\Quadrupole=24.130
 8386,-20.7863054,-3.3445332,-7.1347658,-22.2404759,-4.2928103\PG=C01 [
 X(C19H38N5O5)]\\@
 The archive entry for this job was punched.


 "I COULD HAVE DONE IT IN A MUCH MORE COMPLICATED WAY"
 SAID THE RED QUEEN, IMMENSELY PROUD.

                                      -- LEWIS CARROLL
 Job cpu time:       0 days  0 hours  1 minutes 15.4 seconds.
 Elapsed time:       0 days  0 hours  0 minutes 21.0 seconds.
 File lengths (MBytes):  RWF=   2264 Int=      0 D2E=      0 Chk=     40 Scr=     16
 Normal termination of Gaussian 16 at Thu Jun  2 03:55:01 2022.
