 Entering Gaussian System, Link 0=/opt/software/Gaussian/g16-AVX2-C.01/g16/g16
 Input=charge-conf-584.com
 Output=charge-conf-584.log
 Initial command:
 /opt/software/Gaussian/g16-AVX2-C.01/g16/l1.exe "/mnt/gs18/scratch/users/kengmith/Gau-12555.inp" -scrdir="/mnt/gs18/scratch/users/kengmith/"
 Entering Link 1 = /opt/software/Gaussian/g16-AVX2-C.01/g16/l1.exe PID=     12565.
  
 Copyright (c) 1988-2019, Gaussian, Inc.  All Rights Reserved.
  
 This is part of the Gaussian(R) 16 program.  It is based on
 the Gaussian(R) 09 system (copyright 2009, Gaussian, Inc.),
 the Gaussian(R) 03 system (copyright 2003, Gaussian, Inc.),
 the Gaussian(R) 98 system (copyright 1998, Gaussian, Inc.),
 the Gaussian(R) 94 system (copyright 1995, Gaussian, Inc.),
 the Gaussian 92(TM) system (copyright 1992, Gaussian, Inc.),
 the Gaussian 90(TM) system (copyright 1990, Gaussian, Inc.),
 the Gaussian 88(TM) system (copyright 1988, Gaussian, Inc.),
 the Gaussian 86(TM) system (copyright 1986, Carnegie Mellon
 University), and the Gaussian 82(TM) system (copyright 1983,
 Carnegie Mellon University). Gaussian is a federally registered
 trademark of Gaussian, Inc.
  
 This software contains proprietary and confidential information,
 including trade secrets, belonging to Gaussian, Inc.
  
 This software is provided under written license and may be
 used, copied, transmitted, or stored only in accord with that
 written license.
  
 The following legend is applicable only to US Government
 contracts under FAR:
  
                    RESTRICTED RIGHTS LEGEND
  
 Use, reproduction and disclosure by the US Government is
 subject to restrictions as set forth in subparagraphs (a)
 and (c) of the Commercial Computer Software - Restricted
 Rights clause in FAR 52.227-19.
  
 Gaussian, Inc.
 340 Quinnipiac St., Bldg. 40, Wallingford CT 06492
  
  
 ---------------------------------------------------------------
 Warning -- This program may not be used in any manner that
 competes with the business of Gaussian, Inc. or will provide
 assistance to any competitor of Gaussian, Inc.  The licensee
 of this program is prohibited from giving any competitor of
 Gaussian, Inc. access to this program.  By using this program,
 the user acknowledges that Gaussian, Inc. is engaged in the
 business of creating and licensing software in the field of
 computational chemistry and represents and warrants to the
 licensee that it is not a competitor of Gaussian, Inc. and that
 it will not use this program in any manner prohibited above.
 ---------------------------------------------------------------
  

 Cite this work as:
 Gaussian 16, Revision C.01,
 M. J. Frisch, G. W. Trucks, H. B. Schlegel, G. E. Scuseria, 
 M. A. Robb, J. R. Cheeseman, G. Scalmani, V. Barone, 
 G. A. Petersson, H. Nakatsuji, X. Li, M. Caricato, A. V. Marenich, 
 J. Bloino, B. G. Janesko, R. Gomperts, B. Mennucci, H. P. Hratchian, 
 J. V. Ortiz, A. F. Izmaylov, J. L. Sonnenberg, D. Williams-Young, 
 F. Ding, F. Lipparini, F. Egidi, J. Goings, B. Peng, A. Petrone, 
 T. Henderson, D. Ranasinghe, V. G. Zakrzewski, J. Gao, N. Rega, 
 G. Zheng, W. Liang, M. Hada, M. Ehara, K. Toyota, R. Fukuda, 
 J. Hasegawa, M. Ishida, T. Nakajima, Y. Honda, O. Kitao, H. Nakai, 
 T. Vreven, K. Throssell, J. A. Montgomery, Jr., J. E. Peralta, 
 F. Ogliaro, M. J. Bearpark, J. J. Heyd, E. N. Brothers, K. N. Kudin, 
 V. N. Staroverov, T. A. Keith, R. Kobayashi, J. Normand, 
 K. Raghavachari, A. P. Rendell, J. C. Burant, S. S. Iyengar, 
 J. Tomasi, M. Cossi, J. M. Millam, M. Klene, C. Adamo, R. Cammi, 
 J. W. Ochterski, R. L. Martin, K. Morokuma, O. Farkas, 
 J. B. Foresman, and D. J. Fox, Gaussian, Inc., Wallingford CT, 2019.
 
 ******************************************
 Gaussian 16:  ES64L-G16RevC.01  3-Jul-2019
                 4-Jul-2022 
 ******************************************
 %mem=8gb
 %nproc=4
 Will use up to    4 processors via shared memory.
 %chk=conf-584.chk
 ----------------------------------------------------------------------
 # B3LYP/6-31G* empiricaldispersion=gd3 guess=read geom=check nosymm in
 tegral(ultrafinegrid)
 ----------------------------------------------------------------------
 1/29=2,38=1,172=1/1;
 2/12=2,15=1,40=1/2;
 3/5=1,6=6,7=1,11=2,14=-4,25=1,30=1,74=-5,75=-5,116=-2,124=31/1,2,3;
 4/5=1/1;
 5/5=2,38=6/2;
 6/7=2,8=2,9=2,10=2,28=1/1;
 99/5=1,9=1/99;
 ------------------------------------------------------
 Candidate Structure: Conf:584 Charge calc in gas phase
 ------------------------------------------------------
 Structure from the checkpoint file:  "conf-584.chk"
 Charge =  1 Multiplicity = 1
 Redundant internal coordinates found in file.  (old form).
 N,0,-2.8873046256,7.8593080092,-2.9576466395
 H,0,-1.9882038279,8.3470429988,-2.9780972719
 H,0,-3.617766357,8.5222966007,-2.6898987535
 H,0,-3.0843390934,7.4341967637,-3.9121611791
 C,0,-2.8487900519,6.6241787502,-2.0665974749
 H,0,-1.925207218,6.6378808616,-1.4691051119
 C,0,-2.7754664331,5.4795292617,-3.100190017
 C,0,-4.08899488,6.5592666005,-1.1823931001
 H,0,-3.9723478114,5.7007842957,-0.5182661138
 H,0,-5.0078246119,6.4558023539,-1.7712079793
 H,0,-4.1578815141,7.4525065317,-0.5510116498
 O,0,-3.0114183116,5.748171069,-4.2962696824
 N,0,-2.4538618066,4.2806472713,-2.626200091
 H,0,-2.2445134005,4.1998248306,-1.6070817534
 C,0,-2.3493302177,3.1121640822,-3.4891059084
 H,0,-3.2986082963,2.9554760436,-4.009967876
 C,0,-2.0038420692,1.9042451931,-2.6031607317
 C,0,-1.2468331268,3.2568537957,-4.5676855187
 H,0,-0.2946625834,3.4777218705,-4.0795933899
 H,0,-1.5141982052,4.0917175933,-5.2205546581
 O,0,-1.2094395569,1.9973801899,-1.6704964671
 C,0,-1.2089098446,1.978591688,-5.3964730382
 N,0,0.0091355073,1.3593039205,-5.4918099108
 H,0,0.0756505644,0.5757521422,-6.1301862236
 H,0,0.8649359451,1.85269129,-5.2797576391
 O,0,-2.2299018401,1.4843371691,-5.8583880272
 N,0,-2.6024397312,0.7384002801,-2.9618067348
 H,0,-3.1520572903,0.7223370839,-3.8138354488
 C,0,-2.566084467,-0.4574842859,-2.1307883557
 H,0,-2.5284957976,-0.1131031535,-1.0902459726
 C,0,-1.3086155296,-1.3335722286,-2.2406838575
 C,0,-3.8392444701,-1.2900944307,-2.3375501834
 H,0,-3.9577334442,-1.5293074632,-3.4012080419
 H,0,-3.7027582699,-2.2354139137,-1.8076858347
 O,0,-1.2826022373,-2.395313696,-1.6042912295
 C,0,-5.0900508696,-0.5643022601,-1.8178636826
 H,0,-5.2087636925,0.3987665948,-2.331159318
 H,0,-5.007504172,-0.3629983034,-0.7463037691
 C,0,-6.3631505758,-1.3573543093,-2.0286225976
 O,0,-7.1648092516,-1.6414458456,-1.1705077356
 O,0,-6.5124540404,-1.7124051146,-3.3309812476
 N,0,-0.2373608336,-0.8710141435,-2.921496209
 H,0,-0.2764152119,0.0339728522,-3.3705850008
 C,0,1.0672840003,-1.5361357569,-2.8175781598
 H,0,0.8506729571,-2.6041780855,-2.7284331981
 C,0,1.7439389101,-1.0635174756,-1.5060991648
 C,0,1.9263658504,-1.2792643293,-4.0559178673
 H,0,2.0577868492,-0.1957195341,-4.1723162508
 H,0,1.3588913702,-1.6352171346,-4.9268400247
 O,0,2.7045197602,-0.2848034044,-1.49528491
 C,0,3.3197781331,-1.9426525556,-4.0366551501
 H,0,3.9005144071,-1.4979698621,-3.2250438602
 C,0,3.2613163218,-3.4561291114,-3.7896148485
 H,0,2.6564817779,-3.9652833388,-4.5513333101
 H,0,2.8388996591,-3.7004463981,-2.8066859088
 H,0,4.2710097045,-3.8774700491,-3.8169209651
 C,0,4.0630530008,-1.634406771,-5.3421496668
 H,0,3.5743110222,-2.1095572932,-6.2027742857
 H,0,4.1028384524,-0.553482046,-5.5325112282
 H,0,5.0928396632,-1.9986886987,-5.2843972522
 N,0,1.1496453496,-1.5362595408,-0.380710739
 H,0,0.32390851,-2.117363455,-0.5264906047
 C,0,1.2840836249,-0.8664153692,0.9203896328
 H,0,1.2276072914,0.2139808711,0.7715908655
 C,0,2.6469787368,-1.0895695452,1.5554539708
 C,0,0.1994954071,-1.3367140928,1.9065915525
 H,0,0.2821257333,-2.4257273738,2.0311586648
 H,0,0.4581617093,-0.8908897151,2.8741807774
 O,0,3.0052742187,-0.3397018963,2.4700901921
 C,0,-1.2531455851,-0.9614813272,1.5575029142
 H,0,-1.5364121305,-1.4767046265,0.6301682996
 C,0,-2.186478913,-1.4702899329,2.6658947376
 H,0,-1.9654690814,-0.9759876778,3.6206290819
 H,0,-2.0830013514,-2.551369339,2.8149031837
 H,0,-3.234148234,-1.2650720105,2.4186351119
 C,0,-1.4164961315,0.5506694846,1.3525500408
 H,0,-1.0468244937,1.1035202641,2.2260817934
 H,0,-0.8853608276,0.9121781015,0.4684082319
 H,0,-2.4715054522,0.8193145227,1.2218158881
 N,0,3.4473856257,-2.0912034739,1.1121207163
 H,0,3.1716568082,-2.651162954,0.3198155706
 C,0,4.8304043739,-2.1012301747,1.5810744776
 H,0,4.8089788825,-2.0928072793,2.6732899447
 C,0,5.5212201905,-0.7696045985,1.2253138199
 C,0,5.6063724127,-3.3683307404,1.1201460897
 H,0,5.2201630852,-4.1801427757,1.7523932572
 O,0,6.1303871474,-0.0967366752,2.0607094427
 C,0,7.1069621689,-3.1948267638,1.4389248524
 H,0,7.5432466851,-2.489104247,0.7177339891
 H,0,7.2102831432,-2.7205795264,2.4226502178
 C,0,5.3745368826,-3.7774422209,-0.3439626426
 H,0,5.726674111,-3.0287933973,-1.0590475842
 H,0,4.3217584232,-3.9939196699,-0.5637074171
 H,0,5.9081062146,-4.7086327553,-0.5567825066
 C,0,7.9033075552,-4.503336851,1.4237707579
 H,0,8.9469677407,-4.3224029486,1.702146001
 H,0,7.9042502233,-4.976102059,0.4357246674
 H,0,7.4895000228,-5.2242833116,2.1388346444
 N,0,5.4805175061,-0.4193401131,-0.0897776684
 H,0,4.8305172049,-0.8916889637,-0.7089984061
 C,0,6.2729160209,0.6816590028,-0.6131701328
 H,0,7.2003277318,0.7185822361,-0.0371129604
 C,0,5.6134217422,2.0617281548,-0.4290136422
 C,0,6.5658416863,0.4575643908,-2.112332625
 H,0,7.2532900675,1.2427734051,-2.4482953465
 H,0,5.6417235842,0.5403279149,-2.6886614665
 O,0,6.2083664867,3.0069425048,0.0934087101
 C,0,7.1228075591,-0.9353763788,-2.3901255931
 N,0,8.4070369406,-1.1498240151,-2.0004007865
 H,0,9.0067310038,-0.4073837566,-1.6711963996
 H,0,8.8191454162,-2.0563953947,-2.1756814499
 O,0,6.4228689139,-1.8164326715,-2.8805943733
 N,0,4.3580018278,2.1372684564,-0.9282051466
 H,0,3.8338520442,1.2764305331,-1.0700916153
 C,0,3.6005995928,3.3721556577,-0.949199404
 H,0,4.2411960077,4.1460321808,-0.5138698585
 C,0,2.379382138,3.1599976279,-0.0416598451
 C,0,3.2123391803,3.7950475395,-2.3897219036
 H,0,2.6883234816,4.7573523579,-2.3059649025
 O,0,2.233205278,2.0638884027,0.5334120589
 C,0,4.4651412002,4.0092088857,-3.2457491413
 H,0,4.9959600561,3.0638249389,-3.3988076123
 H,0,4.1962626991,4.4069746947,-4.2304138286
 H,0,5.1605810111,4.7109285936,-2.772415986
 C,0,2.2518761151,2.7890746245,-3.0398058334
 H,0,2.6982394757,1.7906964579,-3.0932323295
 H,0,2.0320720743,3.1201209637,-4.0630814936
 H,0,1.3071988234,2.7058656524,-2.491094136
 N,0,1.5333322357,4.171824585,0.1216912986
 H,0,1.5777708003,5.0261309023,-0.4340492165
 C,0,0.2259167811,4.0117451919,0.7663260347
 H,0,-0.1037507203,2.9852463916,0.5998519931
 C,0,-0.7495627533,4.9340992861,-0.0034665484
 C,0,0.2446187991,4.2897795392,2.282244282
 H,0,-0.7935359884,4.1899626154,2.6185620426
 H,0,0.5337694281,5.3349989064,2.4575201031
 O,0,-1.9682981736,4.6098284781,0.0542435694
 C,0,1.1501343879,3.3329264834,3.0959221431
 H,0,1.1378436847,2.3452599328,2.6284465272
 H,0,0.7289322117,3.2082659126,4.1014694114
 C,0,2.6110781669,3.8125846202,3.2516685976
 H,0,2.9575287706,4.2962496281,2.3303803029
 H,0,2.6519882374,4.5946496636,4.01874018
 C,0,3.604568981,2.7023617816,3.6475784398
 H,0,4.4035432595,3.0749146065,4.2928117923
 H,0,3.104034642,1.8719772379,4.1500957812
 N,0,4.2754232597,2.0970342581,2.4425205453
 H,0,4.822718487,1.24939801,2.6604911874
 H,0,4.9207208708,2.7533998158,1.9806999401
 H,0,3.5535784339,1.8183005782,1.742046483
 O,0,-0.2459250878,5.8887113319,-0.6569610792
 H,0,-7.3480256892,-2.2132685746,-3.3893303796
 Recover connectivity data from disk.
                           ----------------------------
                           !    Current Parameters    !
                           ! (Angstroms and Degrees)  !
 --------------------------                            --------------------------
 ! Name  Definition              Value                                          !
 --------------------------------------------------------------------------------
 ! R1    R(1,2)                  1.0231                                         !
 ! R2    R(1,3)                  1.0222                                         !
 ! R3    R(1,4)                  1.0633                                         !
 ! R4    R(1,5)                  1.5235                                         !
 ! R5    R(5,6)                  1.1001                                         !
 ! R6    R(5,7)                  1.544                                          !
 ! R7    R(5,8)                  1.5245                                         !
 ! R8    R(7,12)                 1.2484                                         !
 ! R9    R(7,13)                 1.3287                                         !
 ! R10   R(8,9)                  1.0916                                         !
 ! R11   R(8,10)                 1.0962                                         !
 ! R12   R(8,11)                 1.096                                          !
 ! R13   R(13,14)                1.0435                                         !
 ! R14   R(13,15)                1.4563                                         !
 ! R15   R(15,16)                1.0941                                         !
 ! R16   R(15,17)                1.5373                                         !
 ! R17   R(15,18)                1.5491                                         !
 ! R18   R(17,21)                1.2287                                         !
 ! R19   R(17,27)                1.3587                                         !
 ! R20   R(18,19)                1.0925                                         !
 ! R21   R(18,20)                1.093                                          !
 ! R22   R(18,22)                1.5239                                         !
 ! R23   R(22,23)                1.3698                                         !
 ! R24   R(22,26)                1.2248                                         !
 ! R25   R(23,24)                1.0129                                         !
 ! R26   R(23,25)                1.0103                                         !
 ! R27   R(27,28)                1.014                                          !
 ! R28   R(27,29)                1.4567                                         !
 ! R29   R(29,30)                1.0967                                         !
 ! R30   R(29,31)                1.5365                                         !
 ! R31   R(29,32)                1.5352                                         !
 ! R32   R(31,35)                1.2381                                         !
 ! R33   R(31,42)                1.3509                                         !
 ! R34   R(32,33)                1.0966                                         !
 ! R35   R(32,34)                1.0923                                         !
 ! R36   R(32,36)                1.5367                                         !
 ! R37   R(36,37)                1.0978                                         !
 ! R38   R(36,38)                1.0934                                         !
 ! R39   R(36,39)                1.5146                                         !
 ! R40   R(39,40)                1.2082                                         !
 ! R41   R(39,41)                1.3581                                         !
 ! R42   R(41,152)               0.9759                                         !
 ! R43   R(42,43)                1.011                                          !
 ! R44   R(42,44)                1.4681                                         !
 ! R45   R(44,45)                1.0934                                         !
 ! R46   R(44,46)                1.5496                                         !
 ! R47   R(44,47)                1.5289                                         !
 ! R48   R(46,50)                1.2366                                         !
 ! R49   R(46,61)                1.3576                                         !
 ! R50   R(47,48)                1.0977                                         !
 ! R51   R(47,49)                1.0987                                         !
 ! R52   R(47,51)                1.5434                                         !
 ! R53   R(51,52)                1.0926                                         !
 ! R54   R(51,53)                1.5346                                         !
 ! R55   R(51,57)                1.5336                                         !
 ! R56   R(53,54)                1.0979                                         !
 ! R57   R(53,55)                1.0974                                         !
 ! R58   R(53,56)                1.0944                                         !
 ! R59   R(57,58)                1.0979                                         !
 ! R60   R(57,59)                1.0983                                         !
 ! R61   R(57,60)                1.0938                                         !
 ! R62   R(61,62)                1.0202                                         !
 ! R63   R(61,63)                1.4696                                         !
 ! R64   R(63,64)                1.0921                                         !
 ! R65   R(63,65)                1.5201                                         !
 ! R66   R(63,66)                1.5395                                         !
 ! R67   R(65,69)                1.2358                                         !
 ! R68   R(65,80)                1.3566                                         !
 ! R69   R(66,67)                1.0992                                         !
 ! R70   R(66,68)                1.0963                                         !
 ! R71   R(66,70)                1.5404                                         !
 ! R72   R(70,71)                1.098                                          !
 ! R73   R(70,72)                1.5358                                         !
 ! R74   R(70,76)                1.5347                                         !
 ! R75   R(72,73)                1.0976                                         !
 ! R76   R(72,74)                1.0962                                         !
 ! R77   R(72,75)                1.0958                                         !
 ! R78   R(76,77)                1.0979                                         !
 ! R79   R(76,78)                1.0929                                         !
 ! R80   R(76,79)                1.0965                                         !
 ! R81   R(80,81)                1.0086                                         !
 ! R82   R(80,82)                1.4604                                         !
 ! R83   R(82,83)                1.0925                                         !
 ! R84   R(82,84)                1.5418                                         !
 ! R85   R(82,85)                1.5557                                         !
 ! R86   R(84,87)                1.2336                                         !
 ! R87   R(84,99)                1.3615                                         !
 ! R88   R(85,86)                1.0991                                         !
 ! R89   R(85,88)                1.5439                                         !
 ! R90   R(85,91)                1.5378                                         !
 ! R91   R(88,89)                1.0993                                         !
 ! R92   R(88,90)                1.097                                          !
 ! R93   R(88,95)                1.5319                                         !
 ! R94   R(91,92)                1.0935                                         !
 ! R95   R(91,93)                1.097                                          !
 ! R96   R(91,94)                1.0941                                         !
 ! R97   R(95,96)                1.0952                                         !
 ! R98   R(95,97)                1.0953                                         !
 ! R99   R(95,98)                1.0965                                         !
 ! R100  R(99,100)               1.0144                                         !
 ! R101  R(99,101)               1.454                                          !
 ! R102  R(101,102)              1.0924                                         !
 ! R103  R(101,103)              1.5406                                         !
 ! R104  R(101,104)              1.5439                                         !
 ! R105  R(103,107)              1.233                                          !
 ! R106  R(103,113)              1.3531                                         !
 ! R107  R(104,105)              1.0964                                         !
 ! R108  R(104,106)              1.0922                                         !
 ! R109  R(104,108)              1.5257                                         !
 ! R110  R(108,109)              1.3591                                         !
 ! R111  R(108,112)              1.2275                                         !
 ! R112  R(109,110)              1.0096                                         !
 ! R113  R(109,111)              1.0112                                         !
 ! R114  R(113,114)              1.0178                                         !
 ! R115  R(113,115)              1.4488                                         !
 ! R116  R(115,116)              1.0949                                         !
 ! R117  R(115,117)              1.5362                                         !
 ! R118  R(115,118)              1.5507                                         !
 ! R119  R(117,120)              1.2464                                         !
 ! R120  R(117,129)              1.329                                          !
 ! R121  R(118,119)              1.0989                                         !
 ! R122  R(118,121)              1.5324                                         !
 ! R123  R(118,125)              1.5353                                         !
 ! R124  R(121,122)              1.095                                          !
 ! R125  R(121,123)              1.0955                                         !
 ! R126  R(121,124)              1.0955                                         !
 ! R127  R(125,126)              1.0949                                         !
 ! R128  R(125,127)              1.0977                                         !
 ! R129  R(125,128)              1.0956                                         !
 ! R130  R(129,130)              1.0201                                         !
 ! R131  R(129,131)              1.4665                                         !
 ! R132  R(131,132)              1.0909                                         !
 ! R133  R(131,133)              1.5475                                         !
 ! R134  R(131,134)              1.5413                                         !
 ! R135  R(133,137)              1.2625                                         !
 ! R136  R(133,151)              1.2617                                         !
 ! R137  R(134,135)              1.0958                                         !
 ! R138  R(134,136)              1.0986                                         !
 ! R139  R(134,138)              1.5484                                         !
 ! R140  R(138,139)              1.0928                                         !
 ! R141  R(138,140)              1.0973                                         !
 ! R142  R(138,141)              1.5455                                         !
 ! R143  R(141,142)              1.0967                                         !
 ! R144  R(141,143)              1.0962                                         !
 ! R145  R(141,144)              1.5415                                         !
 ! R146  R(144,145)              1.0925                                         !
 ! R147  R(144,146)              1.0921                                         !
 ! R148  R(144,147)              1.5062                                         !
 ! R149  R(147,148)              1.0322                                         !
 ! R150  R(147,149)              1.0298                                         !
 ! R151  R(147,150)              1.0438                                         !
 ! A1    A(2,1,3)              108.9078                                         !
 ! A2    A(2,1,4)              109.603                                          !
 ! A3    A(2,1,5)              112.0846                                         !
 ! A4    A(3,1,4)              111.2251                                         !
 ! A5    A(3,1,5)              112.9988                                         !
 ! A6    A(4,1,5)              101.8639                                         !
 ! A7    A(1,5,6)              109.1955                                         !
 ! A8    A(1,5,7)              102.1637                                         !
 ! A9    A(1,5,8)              110.6818                                         !
 ! A10   A(6,5,7)              109.448                                          !
 ! A11   A(6,5,8)              111.6234                                         !
 ! A12   A(7,5,8)              113.2865                                         !
 ! A13   A(5,7,12)             118.221                                          !
 ! A14   A(5,7,13)             116.207                                          !
 ! A15   A(12,7,13)            125.5708                                         !
 ! A16   A(5,8,9)              107.4223                                         !
 ! A17   A(5,8,10)             111.9848                                         !
 ! A18   A(5,8,11)             110.5205                                         !
 ! A19   A(9,8,10)             110.0064                                         !
 ! A20   A(9,8,11)             107.2876                                         !
 ! A21   A(10,8,11)            109.4916                                         !
 ! A22   A(7,13,14)            117.8288                                         !
 ! A23   A(7,13,15)            122.003                                          !
 ! A24   A(14,13,15)           120.1402                                         !
 ! A25   A(13,15,16)           109.5554                                         !
 ! A26   A(13,15,17)           107.764                                          !
 ! A27   A(13,15,18)           112.8729                                         !
 ! A28   A(16,15,17)           110.9054                                         !
 ! A29   A(16,15,18)           107.4224                                         !
 ! A30   A(17,15,18)           108.3423                                         !
 ! A31   A(15,17,21)           121.5474                                         !
 ! A32   A(15,17,27)           115.0284                                         !
 ! A33   A(21,17,27)           123.3845                                         !
 ! A34   A(15,18,19)           109.1526                                         !
 ! A35   A(15,18,20)           108.2478                                         !
 ! A36   A(15,18,22)           108.5437                                         !
 ! A37   A(19,18,20)           109.0028                                         !
 ! A38   A(19,18,22)           113.0076                                         !
 ! A39   A(20,18,22)           108.7794                                         !
 ! A40   A(18,22,23)           116.0541                                         !
 ! A41   A(18,22,26)           121.5246                                         !
 ! A42   A(23,22,26)           122.1803                                         !
 ! A43   A(22,23,24)           116.8732                                         !
 ! A44   A(22,23,25)           121.1868                                         !
 ! A45   A(24,23,25)           117.0284                                         !
 ! A46   A(17,27,28)           118.3047                                         !
 ! A47   A(17,27,29)           122.8762                                         !
 ! A48   A(28,27,29)           118.6753                                         !
 ! A49   A(27,29,30)           106.5186                                         !
 ! A50   A(27,29,31)           116.5968                                         !
 ! A51   A(27,29,32)           110.3466                                         !
 ! A52   A(30,29,31)           102.642                                          !
 ! A53   A(30,29,32)           109.057                                          !
 ! A54   A(31,29,32)           111.0898                                         !
 ! A55   A(29,31,35)           117.9944                                         !
 ! A56   A(29,31,42)           119.326                                          !
 ! A57   A(35,31,42)           122.4108                                         !
 ! A58   A(29,32,33)           109.7874                                         !
 ! A59   A(29,32,34)           107.4827                                         !
 ! A60   A(29,32,36)           111.9207                                         !
 ! A61   A(33,32,34)           107.1715                                         !
 ! A62   A(33,32,36)           110.0656                                         !
 ! A63   A(34,32,36)           110.2691                                         !
 ! A64   A(32,36,37)           110.1364                                         !
 ! A65   A(32,36,38)           110.9119                                         !
 ! A66   A(32,36,39)           112.9426                                         !
 ! A67   A(37,36,38)           107.7512                                         !
 ! A68   A(37,36,39)           107.6614                                         !
 ! A69   A(38,36,39)           107.2304                                         !
 ! A70   A(36,39,40)           125.591                                          !
 ! A71   A(36,39,41)           111.2673                                         !
 ! A72   A(40,39,41)           123.139                                          !
 ! A73   A(39,41,152)          106.5962                                         !
 ! A74   A(31,42,43)           119.9799                                         !
 ! A75   A(31,42,44)           120.9233                                         !
 ! A76   A(43,42,44)           118.1186                                         !
 ! A77   A(42,44,45)           105.7987                                         !
 ! A78   A(42,44,46)           108.0461                                         !
 ! A79   A(42,44,47)           111.4625                                         !
 ! A80   A(45,44,46)           108.3862                                         !
 ! A81   A(45,44,47)           109.9659                                         !
 ! A82   A(46,44,47)           112.886                                          !
 ! A83   A(44,46,50)           122.5923                                         !
 ! A84   A(44,46,61)           113.8417                                         !
 ! A85   A(50,46,61)           123.5079                                         !
 ! A86   A(44,47,48)           108.6033                                         !
 ! A87   A(44,47,49)           107.3004                                         !
 ! A88   A(44,47,51)           115.149                                          !
 ! A89   A(48,47,49)           107.3121                                         !
 ! A90   A(48,47,51)           108.5132                                         !
 ! A91   A(49,47,51)           109.6901                                         !
 ! A92   A(47,51,52)           108.3132                                         !
 ! A93   A(47,51,53)           113.0491                                         !
 ! A94   A(47,51,57)           109.9108                                         !
 ! A95   A(52,51,53)           107.5817                                         !
 ! A96   A(52,51,57)           107.0344                                         !
 ! A97   A(53,51,57)           110.7159                                         !
 ! A98   A(51,53,54)           111.511                                          !
 ! A99   A(51,53,55)           112.2357                                         !
 ! A100  A(51,53,56)           109.9088                                         !
 ! A101  A(54,53,55)           107.8266                                         !
 ! A102  A(54,53,56)           108.2049                                         !
 ! A103  A(55,53,56)           106.9635                                         !
 ! A104  A(51,57,58)           111.3813                                         !
 ! A105  A(51,57,59)           111.2804                                         !
 ! A106  A(51,57,60)           110.1455                                         !
 ! A107  A(58,57,59)           107.831                                          !
 ! A108  A(58,57,60)           108.4429                                         !
 ! A109  A(59,57,60)           107.6267                                         !
 ! A110  A(46,61,62)           115.7344                                         !
 ! A111  A(46,61,63)           122.3537                                         !
 ! A112  A(62,61,63)           117.3995                                         !
 ! A113  A(61,63,64)           109.0005                                         !
 ! A114  A(61,63,65)           112.6438                                         !
 ! A115  A(61,63,66)           111.3131                                         !
 ! A116  A(64,63,65)           104.3907                                         !
 ! A117  A(64,63,66)           110.6754                                         !
 ! A118  A(65,63,66)           108.6133                                         !
 ! A119  A(63,65,69)           118.6906                                         !
 ! A120  A(63,65,80)           120.0564                                         !
 ! A121  A(69,65,80)           121.252                                          !
 ! A122  A(63,66,67)           108.801                                          !
 ! A123  A(63,66,68)           105.9578                                         !
 ! A124  A(63,66,70)           116.4091                                         !
 ! A125  A(67,66,68)           106.5665                                         !
 ! A126  A(67,66,70)           109.7491                                         !
 ! A127  A(68,66,70)           108.872                                          !
 ! A128  A(66,70,71)           108.6856                                         !
 ! A129  A(66,70,72)           109.199                                          !
 ! A130  A(66,70,76)           111.756                                          !
 ! A131  A(71,70,72)           107.295                                          !
 ! A132  A(71,70,76)           108.7894                                         !
 ! A133  A(72,70,76)           110.986                                          !
 ! A134  A(70,72,73)           110.8678                                         !
 ! A135  A(70,72,74)           111.5602                                         !
 ! A136  A(70,72,75)           110.8629                                         !
 ! A137  A(73,72,74)           107.8722                                         !
 ! A138  A(73,72,75)           107.7244                                         !
 ! A139  A(74,72,75)           107.7947                                         !
 ! A140  A(70,76,77)           110.7362                                         !
 ! A141  A(70,76,78)           112.4712                                         !
 ! A142  A(70,76,79)           111.0841                                         !
 ! A143  A(77,76,78)           108.2676                                         !
 ! A144  A(77,76,79)           107.1853                                         !
 ! A145  A(78,76,79)           106.8636                                         !
 ! A146  A(65,80,81)           120.3518                                         !
 ! A147  A(65,80,82)           117.3139                                         !
 ! A148  A(81,80,82)           120.4854                                         !
 ! A149  A(80,82,83)           107.6028                                         !
 ! A150  A(80,82,84)           110.1392                                         !
 ! A151  A(80,82,85)           112.5084                                         !
 ! A152  A(83,82,84)           103.4636                                         !
 ! A153  A(83,82,85)           108.197                                          !
 ! A154  A(84,82,85)           114.307                                          !
 ! A155  A(82,84,87)           122.4196                                         !
 ! A156  A(82,84,99)           115.5739                                         !
 ! A157  A(87,84,99)           121.9073                                         !
 ! A158  A(82,85,86)           104.8272                                         !
 ! A159  A(82,85,88)           109.3966                                         !
 ! A160  A(82,85,91)           115.0613                                         !
 ! A161  A(86,85,88)           107.8052                                         !
 ! A162  A(86,85,91)           107.3507                                         !
 ! A163  A(88,85,91)           111.9024                                         !
 ! A164  A(85,88,89)           108.8101                                         !
 ! A165  A(85,88,90)           108.9841                                         !
 ! A166  A(85,88,95)           114.0319                                         !
 ! A167  A(89,88,90)           105.8665                                         !
 ! A168  A(89,88,95)           109.6065                                         !
 ! A169  A(90,88,95)           109.2204                                         !
 ! A170  A(85,91,92)           113.0736                                         !
 ! A171  A(85,91,93)           112.8232                                         !
 ! A172  A(85,91,94)           109.761                                          !
 ! A173  A(92,91,93)           108.2482                                         !
 ! A174  A(92,91,94)           107.3633                                         !
 ! A175  A(93,91,94)           105.1346                                         !
 ! A176  A(88,95,96)           110.5949                                         !
 ! A177  A(88,95,97)           112.2135                                         !
 ! A178  A(88,95,98)           111.0384                                         !
 ! A179  A(96,95,97)           107.4437                                         !
 ! A180  A(96,95,98)           107.6075                                         !
 ! A181  A(97,95,98)           107.7458                                         !
 ! A182  A(84,99,100)          119.2723                                         !
 ! A183  A(84,99,101)          121.7492                                         !
 ! A184  A(100,99,101)         118.8205                                         !
 ! A185  A(99,101,102)         107.3646                                         !
 ! A186  A(99,101,103)         113.7036                                         !
 ! A187  A(99,101,104)         110.0623                                         !
 ! A188  A(102,101,103)        105.6711                                         !
 ! A189  A(102,101,104)        110.8484                                         !
 ! A190  A(103,101,104)        109.1064                                         !
 ! A191  A(101,103,107)        122.06                                           !
 ! A192  A(101,103,113)        113.7705                                         !
 ! A193  A(107,103,113)        124.1375                                         !
 ! A194  A(101,104,105)        108.2144                                         !
 ! A195  A(101,104,106)        109.9286                                         !
 ! A196  A(101,104,108)        112.2468                                         !
 ! A197  A(105,104,106)        108.3336                                         !
 ! A198  A(105,104,108)        111.6656                                         !
 ! A199  A(106,104,108)        106.3782                                         !
 ! A200  A(104,108,109)        115.9002                                         !
 ! A201  A(104,108,112)        121.3265                                         !
 ! A202  A(109,108,112)        122.6928                                         !
 ! A203  A(108,109,110)        122.5994                                         !
 ! A204  A(108,109,111)        118.4815                                         !
 ! A205  A(110,109,111)        118.2795                                         !
 ! A206  A(103,113,114)        118.8166                                         !
 ! A207  A(103,113,115)        122.5444                                         !
 ! A208  A(114,113,115)        116.722                                          !
 ! A209  A(113,115,116)        106.9072                                         !
 ! A210  A(113,115,117)        106.8164                                         !
 ! A211  A(113,115,118)        112.1353                                         !
 ! A212  A(116,115,117)        109.1373                                         !
 ! A213  A(116,115,118)        108.8499                                         !
 ! A214  A(117,115,118)        112.7933                                         !
 ! A215  A(115,117,120)        119.1597                                         !
 ! A216  A(115,117,129)        118.2636                                         !
 ! A217  A(120,117,129)        122.5586                                         !
 ! A218  A(115,118,119)        106.702                                          !
 ! A219  A(115,118,121)        110.6313                                         !
 ! A220  A(115,118,125)        111.7951                                         !
 ! A221  A(119,118,121)        108.0617                                         !
 ! A222  A(119,118,125)        107.923                                          !
 ! A223  A(121,118,125)        111.4996                                         !
 ! A224  A(118,121,122)        110.7174                                         !
 ! A225  A(118,121,123)        110.622                                          !
 ! A226  A(118,121,124)        111.5404                                         !
 ! A227  A(122,121,123)        107.8688                                         !
 ! A228  A(122,121,124)        107.8001                                         !
 ! A229  A(123,121,124)        108.1555                                         !
 ! A230  A(118,125,126)        111.2901                                         !
 ! A231  A(118,125,127)        108.8067                                         !
 ! A232  A(118,125,128)        112.1542                                         !
 ! A233  A(126,125,127)        108.1272                                         !
 ! A234  A(126,125,128)        107.8596                                         !
 ! A235  A(127,125,128)        108.488                                          !
 ! A236  A(117,129,130)        122.8806                                         !
 ! A237  A(117,129,131)        122.5801                                         !
 ! A238  A(130,129,131)        111.6989                                         !
 ! A239  A(129,131,132)        107.7613                                         !
 ! A240  A(129,131,133)        106.156                                          !
 ! A241  A(129,131,134)        113.6927                                         !
 ! A242  A(132,131,133)        107.1232                                         !
 ! A243  A(132,131,134)        108.874                                          !
 ! A244  A(133,131,134)        112.9152                                         !
 ! A245  A(131,133,137)        115.638                                          !
 ! A246  A(131,133,151)        117.1911                                         !
 ! A247  A(137,133,151)        127.11                                           !
 ! A248  A(131,134,135)        105.8979                                         !
 ! A249  A(131,134,136)        109.3748                                         !
 ! A250  A(131,134,138)        114.3591                                         !
 ! A251  A(135,134,136)        106.6818                                         !
 ! A252  A(135,134,138)        109.6612                                         !
 ! A253  A(136,134,138)        110.4987                                         !
 ! A254  A(134,138,139)        109.0953                                         !
 ! A255  A(134,138,140)        109.1035                                         !
 ! A256  A(134,138,141)        114.4541                                         !
 ! A257  A(139,138,140)        106.5599                                         !
 ! A258  A(139,138,141)        109.5262                                         !
 ! A259  A(140,138,141)        107.8036                                         !
 ! A260  A(138,141,142)        110.5382                                         !
 ! A261  A(138,141,143)        109.099                                          !
 ! A262  A(138,141,144)        114.3034                                         !
 ! A263  A(142,141,143)        105.1534                                         !
 ! A264  A(142,141,144)        109.2555                                         !
 ! A265  A(143,141,144)        108.0618                                         !
 ! A266  A(141,144,145)        112.1741                                         !
 ! A267  A(141,144,146)        111.7415                                         !
 ! A268  A(141,144,147)        111.778                                          !
 ! A269  A(145,144,146)        108.8284                                         !
 ! A270  A(145,144,147)        106.4901                                         !
 ! A271  A(146,144,147)        105.4683                                         !
 ! A272  A(144,147,148)        113.4046                                         !
 ! A273  A(144,147,149)        112.4411                                         !
 ! A274  A(144,147,150)        109.6473                                         !
 ! A275  A(148,147,149)        106.6092                                         !
 ! A276  A(148,147,150)        106.8042                                         !
 ! A277  A(149,147,150)        107.6143                                         !
 ! D1    D(2,1,5,6)             11.8323                                         !
 ! D2    D(2,1,5,7)           -103.997                                          !
 ! D3    D(2,1,5,8)            135.0967                                         !
 ! D4    D(3,1,5,6)           -111.6802                                         !
 ! D5    D(3,1,5,7)            132.4905                                         !
 ! D6    D(3,1,5,8)             11.5842                                         !
 ! D7    D(4,1,5,6)            128.9105                                         !
 ! D8    D(4,1,5,7)             13.0811                                         !
 ! D9    D(4,1,5,8)           -107.8251                                         !
 ! D10   D(1,5,7,12)           -13.0057                                         !
 ! D11   D(1,5,7,13)           166.615                                          !
 ! D12   D(6,5,7,12)          -128.6513                                         !
 ! D13   D(6,5,7,13)            50.9694                                         !
 ! D14   D(8,5,7,12)           106.0787                                         !
 ! D15   D(8,5,7,13)           -74.3005                                         !
 ! D16   D(1,5,8,9)           -175.903                                          !
 ! D17   D(1,5,8,10)            63.2074                                         !
 ! D18   D(1,5,8,11)           -59.1584                                         !
 ! D19   D(6,5,8,9)            -54.0537                                         !
 ! D20   D(6,5,8,10)          -174.9432                                         !
 ! D21   D(6,5,8,11)            62.691                                          !
 ! D22   D(7,5,8,9)             70.0385                                         !
 ! D23   D(7,5,8,10)           -50.851                                          !
 ! D24   D(7,5,8,11)          -173.2168                                         !
 ! D25   D(5,7,13,14)           -1.9483                                         !
 ! D26   D(5,7,13,15)          179.9754                                         !
 ! D27   D(12,7,13,14)         177.6409                                         !
 ! D28   D(12,7,13,15)          -0.4355                                         !
 ! D29   D(7,13,15,16)         -57.6143                                         !
 ! D30   D(7,13,15,17)        -178.3732                                         !
 ! D31   D(7,13,15,18)          62.036                                          !
 ! D32   D(14,13,15,16)        124.3528                                         !
 ! D33   D(14,13,15,17)          3.594                                          !
 ! D34   D(14,13,15,18)       -115.9968                                         !
 ! D35   D(13,15,17,21)        -39.7673                                         !
 ! D36   D(13,15,17,27)        142.4531                                         !
 ! D37   D(16,15,17,21)       -159.6759                                         !
 ! D38   D(16,15,17,27)         22.5445                                         !
 ! D39   D(18,15,17,21)         82.6587                                         !
 ! D40   D(18,15,17,27)        -95.1208                                         !
 ! D41   D(13,15,18,19)         55.5881                                         !
 ! D42   D(13,15,18,20)        -62.9313                                         !
 ! D43   D(13,15,18,22)        179.1554                                         !
 ! D44   D(16,15,18,19)        176.461                                          !
 ! D45   D(16,15,18,20)         57.9416                                         !
 ! D46   D(16,15,18,22)        -59.9717                                         !
 ! D47   D(17,15,18,19)        -63.6685                                         !
 ! D48   D(17,15,18,20)        177.8121                                         !
 ! D49   D(17,15,18,22)         59.8988                                         !
 ! D50   D(15,17,27,28)          5.433                                          !
 ! D51   D(15,17,27,29)       -170.1461                                         !
 ! D52   D(21,17,27,28)       -172.3008                                         !
 ! D53   D(21,17,27,29)         12.1201                                         !
 ! D54   D(15,18,22,23)       -125.8982                                         !
 ! D55   D(15,18,22,26)         48.5788                                         !
 ! D56   D(19,18,22,23)         -4.6733                                         !
 ! D57   D(19,18,22,26)        169.8037                                         !
 ! D58   D(20,18,22,23)        116.527                                          !
 ! D59   D(20,18,22,26)        -68.9959                                         !
 ! D60   D(18,22,23,24)       -172.6477                                         !
 ! D61   D(18,22,23,25)        -18.1932                                         !
 ! D62   D(26,22,23,24)         12.9148                                         !
 ! D63   D(26,22,23,25)        167.3693                                         !
 ! D64   D(17,27,29,30)         31.1178                                         !
 ! D65   D(17,27,29,31)        -82.6972                                         !
 ! D66   D(17,27,29,32)        149.3605                                         !
 ! D67   D(28,27,29,30)       -144.4457                                         !
 ! D68   D(28,27,29,31)        101.7393                                         !
 ! D69   D(28,27,29,32)        -26.2031                                         !
 ! D70   D(27,29,31,35)       -175.9469                                         !
 ! D71   D(27,29,31,42)          9.8635                                         !
 ! D72   D(30,29,31,35)         68.0653                                         !
 ! D73   D(30,29,31,42)       -106.1243                                         !
 ! D74   D(32,29,31,35)        -48.3675                                         !
 ! D75   D(32,29,31,42)        137.443                                          !
 ! D76   D(27,29,32,33)         55.8985                                         !
 ! D77   D(27,29,32,34)        172.1474                                         !
 ! D78   D(27,29,32,36)        -66.6369                                         !
 ! D79   D(30,29,32,33)        172.5738                                         !
 ! D80   D(30,29,32,34)        -71.1773                                         !
 ! D81   D(30,29,32,36)         50.0384                                         !
 ! D82   D(31,29,32,33)        -75.006                                          !
 ! D83   D(31,29,32,34)         41.2428                                         !
 ! D84   D(31,29,32,36)        162.4586                                         !
 ! D85   D(29,31,42,43)         -1.4371                                         !
 ! D86   D(29,31,42,44)        167.0351                                         !
 ! D87   D(35,31,42,43)       -175.3589                                         !
 ! D88   D(35,31,42,44)         -6.8866                                         !
 ! D89   D(29,32,36,37)         58.7647                                         !
 ! D90   D(29,32,36,38)        -60.4272                                         !
 ! D91   D(29,32,36,39)        179.1696                                         !
 ! D92   D(33,32,36,37)        -63.6122                                         !
 ! D93   D(33,32,36,38)        177.196                                          !
 ! D94   D(33,32,36,39)         56.7928                                         !
 ! D95   D(34,32,36,37)        178.3566                                         !
 ! D96   D(34,32,36,38)         59.1647                                         !
 ! D97   D(34,32,36,39)        -61.2385                                         !
 ! D98   D(32,36,39,40)        126.207                                          !
 ! D99   D(32,36,39,41)        -54.3901                                         !
 ! D100  D(37,36,39,40)       -111.9837                                         !
 ! D101  D(37,36,39,41)         67.4192                                         !
 ! D102  D(38,36,39,40)          3.7218                                         !
 ! D103  D(38,36,39,41)       -176.8753                                         !
 ! D104  D(36,39,41,152)      -179.8318                                         !
 ! D105  D(40,39,41,152)        -0.4117                                         !
 ! D106  D(31,42,44,45)         35.4376                                         !
 ! D107  D(31,42,44,46)        -80.4719                                         !
 ! D108  D(31,42,44,47)        154.9459                                         !
 ! D109  D(43,42,44,45)       -155.8812                                         !
 ! D110  D(43,42,44,46)         88.2093                                         !
 ! D111  D(43,42,44,47)        -36.3729                                         !
 ! D112  D(42,44,46,50)       -107.3404                                         !
 ! D113  D(42,44,46,61)         69.9757                                         !
 ! D114  D(45,44,46,50)        138.4521                                         !
 ! D115  D(45,44,46,61)        -44.2319                                         !
 ! D116  D(47,44,46,50)         16.3867                                         !
 ! D117  D(47,44,46,61)       -166.2972                                         !
 ! D118  D(42,44,47,48)         58.1799                                         !
 ! D119  D(42,44,47,49)        -57.5228                                         !
 ! D120  D(42,44,47,51)       -179.9403                                         !
 ! D121  D(45,44,47,48)        175.1858                                         !
 ! D122  D(45,44,47,49)         59.4832                                         !
 ! D123  D(45,44,47,51)        -62.9343                                         !
 ! D124  D(46,44,47,48)        -63.6411                                         !
 ! D125  D(46,44,47,49)       -179.3438                                         !
 ! D126  D(46,44,47,51)         58.2387                                         !
 ! D127  D(44,46,61,62)         -1.6212                                         !
 ! D128  D(44,46,61,63)       -157.1386                                         !
 ! D129  D(50,46,61,62)        175.6668                                         !
 ! D130  D(50,46,61,63)         20.1494                                         !
 ! D131  D(44,47,51,52)        -64.6333                                         !
 ! D132  D(44,47,51,53)         54.4846                                         !
 ! D133  D(44,47,51,57)        178.7465                                         !
 ! D134  D(48,47,51,52)         57.2951                                         !
 ! D135  D(48,47,51,53)        176.413                                          !
 ! D136  D(48,47,51,57)        -59.3251                                         !
 ! D137  D(49,47,51,52)        174.24                                           !
 ! D138  D(49,47,51,53)        -66.6421                                         !
 ! D139  D(49,47,51,57)         57.6199                                         !
 ! D140  D(47,51,53,54)         58.2665                                         !
 ! D141  D(47,51,53,55)        -62.8395                                         !
 ! D142  D(47,51,53,56)        178.2594                                         !
 ! D143  D(52,51,53,54)        177.8061                                         !
 ! D144  D(52,51,53,55)         56.7001                                         !
 ! D145  D(52,51,53,56)        -62.201                                          !
 ! D146  D(57,51,53,54)        -65.5543                                         !
 ! D147  D(57,51,53,55)        173.3397                                         !
 ! D148  D(57,51,53,56)         54.4386                                         !
 ! D149  D(47,51,57,58)        -66.4486                                         !
 ! D150  D(47,51,57,59)         53.9091                                         !
 ! D151  D(47,51,57,60)        173.1862                                         !
 ! D152  D(52,51,57,58)        176.1322                                         !
 ! D153  D(52,51,57,59)        -63.51                                           !
 ! D154  D(52,51,57,60)         55.767                                          !
 ! D155  D(53,51,57,58)         59.1551                                         !
 ! D156  D(53,51,57,59)        179.5129                                         !
 ! D157  D(53,51,57,60)        -61.2101                                         !
 ! D158  D(46,61,63,64)         40.3152                                         !
 ! D159  D(46,61,63,65)        -75.0541                                         !
 ! D160  D(46,61,63,66)        162.6711                                         !
 ! D161  D(62,61,63,64)       -114.8196                                         !
 ! D162  D(62,61,63,65)        129.811                                          !
 ! D163  D(62,61,63,66)          7.5363                                         !
 ! D164  D(61,63,65,69)        162.8323                                         !
 ! D165  D(61,63,65,80)        -16.801                                          !
 ! D166  D(64,63,65,69)         44.7179                                         !
 ! D167  D(64,63,65,80)       -134.9154                                         !
 ! D168  D(66,63,65,69)        -73.3842                                         !
 ! D169  D(66,63,65,80)        106.9825                                         !
 ! D170  D(61,63,66,67)         58.4455                                         !
 ! D171  D(61,63,66,68)        172.6894                                         !
 ! D172  D(61,63,66,70)        -66.1379                                         !
 ! D173  D(64,63,66,67)        179.8295                                         !
 ! D174  D(64,63,66,68)        -65.9267                                         !
 ! D175  D(64,63,66,70)         55.2461                                         !
 ! D176  D(65,63,66,67)        -66.1288                                         !
 ! D177  D(65,63,66,68)         48.1151                                         !
 ! D178  D(65,63,66,70)        169.2878                                         !
 ! D179  D(63,65,80,81)          4.2244                                         !
 ! D180  D(63,65,80,82)        168.8216                                         !
 ! D181  D(69,65,80,81)       -175.3994                                         !
 ! D182  D(69,65,80,82)        -10.8022                                         !
 ! D183  D(63,66,70,71)         65.0107                                         !
 ! D184  D(63,66,70,72)       -178.2403                                         !
 ! D185  D(63,66,70,76)        -55.0595                                         !
 ! D186  D(67,66,70,71)        -59.0874                                         !
 ! D187  D(67,66,70,72)         57.6616                                         !
 ! D188  D(67,66,70,76)       -179.1576                                         !
 ! D189  D(68,66,70,71)       -175.3753                                         !
 ! D190  D(68,66,70,72)        -58.6262                                         !
 ! D191  D(68,66,70,76)         64.5546                                         !
 ! D192  D(66,70,72,73)         63.4484                                         !
 ! D193  D(66,70,72,74)        -56.8018                                         !
 ! D194  D(66,70,72,75)       -176.9503                                         !
 ! D195  D(71,70,72,73)       -178.9234                                         !
 ! D196  D(71,70,72,74)         60.8264                                         !
 ! D197  D(71,70,72,75)        -59.3222                                         !
 ! D198  D(76,70,72,73)        -60.1892                                         !
 ! D199  D(76,70,72,74)        179.5606                                         !
 ! D200  D(76,70,72,75)         59.412                                          !
 ! D201  D(66,70,76,77)        -54.3369                                         !
 ! D202  D(66,70,76,78)         66.9485                                         !
 ! D203  D(66,70,76,79)       -173.3206                                         !
 ! D204  D(71,70,76,77)       -174.3461                                         !
 ! D205  D(71,70,76,78)        -53.0607                                         !
 ! D206  D(71,70,76,79)         66.6702                                         !
 ! D207  D(72,70,76,77)         67.8245                                         !
 ! D208  D(72,70,76,78)       -170.8901                                         !
 ! D209  D(72,70,76,79)        -51.1592                                         !
 ! D210  D(65,80,82,83)         55.2487                                         !
 ! D211  D(65,80,82,84)        -56.8698                                         !
 ! D212  D(65,80,82,85)        174.3342                                         !
 ! D213  D(81,80,82,83)       -140.1758                                         !
 ! D214  D(81,80,82,84)        107.7057                                         !
 ! D215  D(81,80,82,85)        -21.0902                                         !
 ! D216  D(80,82,84,87)        128.817                                          !
 ! D217  D(80,82,84,99)        -54.7426                                         !
 ! D218  D(83,82,84,87)         14.0449                                         !
 ! D219  D(83,82,84,99)       -169.5146                                         !
 ! D220  D(85,82,84,87)       -103.3729                                         !
 ! D221  D(85,82,84,99)         73.0676                                         !
 ! D222  D(80,82,85,86)        -74.3475                                         !
 ! D223  D(80,82,85,88)        170.2768                                         !
 ! D224  D(80,82,85,91)         43.3199                                         !
 ! D225  D(83,82,85,86)         44.3906                                         !
 ! D226  D(83,82,85,88)        -70.9851                                         !
 ! D227  D(83,82,85,91)        162.058                                          !
 ! D228  D(84,82,85,86)        159.0609                                         !
 ! D229  D(84,82,85,88)         43.6852                                         !
 ! D230  D(84,82,85,91)        -83.2717                                         !
 ! D231  D(82,84,99,100)        15.1512                                         !
 ! D232  D(82,84,99,101)      -169.4725                                         !
 ! D233  D(87,84,99,100)      -168.3883                                         !
 ! D234  D(87,84,99,101)         6.9879                                         !
 ! D235  D(82,85,88,89)        -74.5652                                         !
 ! D236  D(82,85,88,90)         40.4347                                         !
 ! D237  D(82,85,88,95)        162.7499                                         !
 ! D238  D(86,85,88,89)        171.9797                                         !
 ! D239  D(86,85,88,90)        -73.0204                                         !
 ! D240  D(86,85,88,95)         49.2948                                         !
 ! D241  D(91,85,88,89)         54.1587                                         !
 ! D242  D(91,85,88,90)        169.1585                                         !
 ! D243  D(91,85,88,95)        -68.5262                                         !
 ! D244  D(82,85,91,92)         63.6994                                         !
 ! D245  D(82,85,91,93)        -59.568                                          !
 ! D246  D(82,85,91,94)       -176.4515                                         !
 ! D247  D(86,85,91,92)        179.9352                                         !
 ! D248  D(86,85,91,93)         56.6678                                         !
 ! D249  D(86,85,91,94)        -60.2157                                         !
 ! D250  D(88,85,91,92)        -61.9724                                         !
 ! D251  D(88,85,91,93)        174.7602                                         !
 ! D252  D(88,85,91,94)         57.8766                                         !
 ! D253  D(85,88,95,96)       -177.3489                                         !
 ! D254  D(85,88,95,97)         62.6933                                         !
 ! D255  D(85,88,95,98)        -57.9583                                         !
 ! D256  D(89,88,95,96)         60.4023                                         !
 ! D257  D(89,88,95,97)        -59.5555                                         !
 ! D258  D(89,88,95,98)        179.7929                                         !
 ! D259  D(90,88,95,96)        -55.1634                                         !
 ! D260  D(90,88,95,97)       -175.1212                                         !
 ! D261  D(90,88,95,98)         64.2272                                         !
 ! D262  D(84,99,101,102)       32.6862                                         !
 ! D263  D(84,99,101,103)      -83.8254                                         !
 ! D264  D(84,99,101,104)      153.4287                                         !
 ! D265  D(100,99,101,102)    -151.9173                                         !
 ! D266  D(100,99,101,103)      91.5711                                         !
 ! D267  D(100,99,101,104)     -31.1749                                         !
 ! D268  D(99,101,103,107)     127.9809                                         !
 ! D269  D(99,101,103,113)     -53.9952                                         !
 ! D270  D(102,101,103,107)     10.4838                                         !
 ! D271  D(102,101,103,113)   -171.4924                                         !
 ! D272  D(104,101,103,107)   -108.7496                                         !
 ! D273  D(104,101,103,113)     69.2743                                         !
 ! D274  D(99,101,104,105)    -173.8587                                         !
 ! D275  D(99,101,104,106)      68.007                                          !
 ! D276  D(99,101,104,108)     -50.1808                                         !
 ! D277  D(102,101,104,105)    -55.2339                                         !
 ! D278  D(102,101,104,106)   -173.3682                                         !
 ! D279  D(102,101,104,108)     68.444                                          !
 ! D280  D(103,101,104,105)     60.7305                                         !
 ! D281  D(103,101,104,106)    -57.4037                                         !
 ! D282  D(103,101,104,108)   -175.5916                                         !
 ! D283  D(101,103,113,114)     21.0852                                         !
 ! D284  D(101,103,113,115)   -175.1982                                         !
 ! D285  D(107,103,113,114)   -160.9382                                         !
 ! D286  D(107,103,113,115)      2.7784                                         !
 ! D287  D(101,104,108,109)    -73.1288                                         !
 ! D288  D(101,104,108,112)    103.693                                          !
 ! D289  D(105,104,108,109)     48.5987                                         !
 ! D290  D(105,104,108,112)   -134.5795                                         !
 ! D291  D(106,104,108,109)    166.6024                                         !
 ! D292  D(106,104,108,112)    -16.5758                                         !
 ! D293  D(104,108,109,110)     -8.618                                          !
 ! D294  D(104,108,109,111)   -179.2852                                         !
 ! D295  D(112,108,109,110)    174.608                                          !
 ! D296  D(112,108,109,111)      3.9409                                         !
 ! D297  D(103,113,115,116)      0.5325                                         !
 ! D298  D(103,113,115,117)   -116.1994                                         !
 ! D299  D(103,113,115,118)    119.7547                                         !
 ! D300  D(114,113,115,116)    164.568                                          !
 ! D301  D(114,113,115,117)     47.8361                                         !
 ! D302  D(114,113,115,118)    -76.2098                                         !
 ! D303  D(113,115,117,120)      0.3693                                         !
 ! D304  D(113,115,117,129)    178.8597                                         !
 ! D305  D(116,115,117,120)   -114.874                                          !
 ! D306  D(116,115,117,129)     63.6164                                         !
 ! D307  D(118,115,117,120)    124.0094                                         !
 ! D308  D(118,115,117,129)    -57.5002                                         !
 ! D309  D(113,115,118,119)   -177.3509                                         !
 ! D310  D(113,115,118,121)    -60.038                                          !
 ! D311  D(113,115,118,125)     64.8734                                         !
 ! D312  D(116,115,118,119)    -59.2758                                         !
 ! D313  D(116,115,118,121)     58.037                                          !
 ! D314  D(116,115,118,125)   -177.0516                                         !
 ! D315  D(117,115,118,119)     62.0041                                         !
 ! D316  D(117,115,118,121)    179.317                                          !
 ! D317  D(117,115,118,125)    -55.7716                                         !
 ! D318  D(115,117,129,130)      9.6626                                         !
 ! D319  D(115,117,129,131)    168.9844                                         !
 ! D320  D(120,117,129,130)   -171.9015                                         !
 ! D321  D(120,117,129,131)    -12.5797                                         !
 ! D322  D(115,118,121,122)     66.3155                                         !
 ! D323  D(115,118,121,123)   -174.1573                                         !
 ! D324  D(115,118,121,124)    -53.7284                                         !
 ! D325  D(119,118,121,122)   -177.2109                                         !
 ! D326  D(119,118,121,123)    -57.6837                                         !
 ! D327  D(119,118,121,124)     62.7452                                         !
 ! D328  D(125,118,121,122)    -58.7635                                         !
 ! D329  D(125,118,121,123)     60.7637                                         !
 ! D330  D(125,118,121,124)   -178.8074                                         !
 ! D331  D(115,118,125,126)    -59.4138                                         !
 ! D332  D(115,118,125,127)   -178.4564                                         !
 ! D333  D(115,118,125,128)     61.5201                                         !
 ! D334  D(119,118,125,126)   -176.4556                                         !
 ! D335  D(119,118,125,127)     64.5018                                         !
 ! D336  D(119,118,125,128)    -55.5216                                         !
 ! D337  D(121,118,125,126)     65.014                                          !
 ! D338  D(121,118,125,127)    -54.0285                                         !
 ! D339  D(121,118,125,128)   -174.052                                          !
 ! D340  D(117,129,131,132)    -28.2299                                         !
 ! D341  D(117,129,131,133)   -142.7284                                         !
 ! D342  D(117,129,131,134)     92.5343                                         !
 ! D343  D(130,129,131,132)    133.1575                                         !
 ! D344  D(130,129,131,133)     18.659                                          !
 ! D345  D(130,129,131,134)   -106.0782                                         !
 ! D346  D(129,131,133,137)    155.5688                                         !
 ! D347  D(129,131,133,151)    -21.7959                                         !
 ! D348  D(132,131,133,137)     40.6347                                         !
 ! D349  D(132,131,133,151)   -136.73                                           !
 ! D350  D(134,131,133,137)    -79.2152                                         !
 ! D351  D(134,131,133,151)    103.4201                                         !
 ! D352  D(129,131,134,135)    176.9066                                         !
 ! D353  D(129,131,134,136)     62.2896                                         !
 ! D354  D(129,131,134,138)    -62.2309                                         !
 ! D355  D(132,131,134,135)    -62.9557                                         !
 ! D356  D(132,131,134,136)   -177.5727                                         !
 ! D357  D(132,131,134,138)     57.9067                                         !
 ! D358  D(133,131,134,135)     55.8823                                         !
 ! D359  D(133,131,134,136)    -58.7347                                         !
 ! D360  D(133,131,134,138)    176.7448                                         !
 ! D361  D(131,134,138,139)    -33.3809                                         !
 ! D362  D(131,134,138,140)   -149.427                                          !
 ! D363  D(131,134,138,141)     89.7114                                         !
 ! D364  D(135,134,138,139)     85.3747                                         !
 ! D365  D(135,134,138,140)    -30.6715                                         !
 ! D366  D(135,134,138,141)   -151.5331                                         !
 ! D367  D(136,134,138,139)   -157.302                                          !
 ! D368  D(136,134,138,140)     86.6518                                         !
 ! D369  D(136,134,138,141)    -34.2098                                         !
 ! D370  D(134,138,141,142)    -37.7                                            !
 ! D371  D(134,138,141,143)     77.459                                          !
 ! D372  D(134,138,141,144)   -161.4516                                         !
 ! D373  D(139,138,141,142)     85.1595                                         !
 ! D374  D(139,138,141,143)   -159.6815                                         !
 ! D375  D(139,138,141,144)    -38.5921                                         !
 ! D376  D(140,138,141,142)   -159.2773                                         !
 ! D377  D(140,138,141,143)    -44.1183                                         !
 ! D378  D(140,138,141,144)     76.971                                          !
 ! D379  D(138,141,144,145)   -146.2011                                         !
 ! D380  D(138,141,144,146)    -23.6717                                         !
 ! D381  D(138,141,144,147)     94.2669                                         !
 ! D382  D(142,141,144,145)     89.3614                                         !
 ! D383  D(142,141,144,146)   -148.1092                                         !
 ! D384  D(142,141,144,147)    -30.1706                                         !
 ! D385  D(143,141,144,145)    -24.5399                                         !
 ! D386  D(143,141,144,146)     97.9894                                         !
 ! D387  D(143,141,144,147)   -144.072                                          !
 ! D388  D(141,144,147,148)   -170.2674                                         !
 ! D389  D(141,144,147,149)     68.6848                                         !
 ! D390  D(141,144,147,150)    -50.9911                                         !
 ! D391  D(145,144,147,148)     66.9036                                         !
 ! D392  D(145,144,147,149)    -54.1442                                         !
 ! D393  D(145,144,147,150)   -173.82                                           !
 ! D394  D(146,144,147,148)    -48.6368                                         !
 ! D395  D(146,144,147,149)   -169.6846                                         !
 ! D396  D(146,144,147,150)     70.6396                                         !
 --------------------------------------------------------------------------------
 Symmetry turned off by external request.
 Stoichiometry    C45H81N12O14(1+)
 Framework group  C1[X(C45H81N12O14)]
 Deg. of freedom   450
 Full point group                 C1      NOp   1
                          Input orientation:                          
 ---------------------------------------------------------------------
[...]
 Alpha virt. eigenvalues --    1.88299   1.88530   1.88745   1.89087   1.89192
 Alpha virt. eigenvalues --    1.89430   1.89828   1.90125   1.90398   1.90639
 Alpha virt. eigenvalues --    1.90824   1.90920   1.91173   1.91540   1.91626
 Alpha virt. eigenvalues --    1.91874   1.92348   1.92447   1.92811   1.93436
 Alpha virt. eigenvalues --    1.93663   1.94351   1.94370   1.94852   1.95194
 Alpha virt. eigenvalues --    1.95474   1.95826   1.96051   1.96336   1.96704
 Alpha virt. eigenvalues --    1.96978   1.97043   1.97106   1.97763   1.97856
 Alpha virt. eigenvalues --    1.98158   1.98350   1.98692   1.99105   1.99395
 Alpha virt. eigenvalues --    1.99534   2.00028   2.00609   2.00777   2.01124
 Alpha virt. eigenvalues --    2.01587   2.01809   2.02152   2.02253   2.02481
 Alpha virt. eigenvalues --    2.02794   2.03307   2.03471   2.03641   2.04218
 Alpha virt. eigenvalues --    2.04579   2.04719   2.05268   2.05632   2.05750
 Alpha virt. eigenvalues --    2.06528   2.06920   2.07205   2.07386   2.07673
 Alpha virt. eigenvalues --    2.08053   2.08655   2.08800   2.09026   2.09266
 Alpha virt. eigenvalues --    2.09823   2.10162   2.10647   2.11302   2.12175
 Alpha virt. eigenvalues --    2.12437   2.13079   2.14120   2.14777   2.15027
 Alpha virt. eigenvalues --    2.16262   2.16424   2.16768   2.17327   2.17705
 Alpha virt. eigenvalues --    2.17874   2.18127   2.18499   2.18554   2.18787
 Alpha virt. eigenvalues --    2.19103   2.19562   2.20001   2.20137   2.20374
 Alpha virt. eigenvalues --    2.20843   2.21124   2.21874   2.22158   2.22261
 Alpha virt. eigenvalues --    2.23085   2.23217   2.23907   2.24223   2.24363
 Alpha virt. eigenvalues --    2.25006   2.25236   2.26178   2.26433   2.27004
 Alpha virt. eigenvalues --    2.27278   2.28045   2.28732   2.29220   2.29416
 Alpha virt. eigenvalues --    2.29950   2.30337   2.30780   2.31331   2.31742
 Alpha virt. eigenvalues --    2.32276   2.32717   2.33133   2.33649   2.33793
 Alpha virt. eigenvalues --    2.33928   2.34160   2.34740   2.35322   2.35987
 Alpha virt. eigenvalues --    2.36075   2.36618   2.37016   2.37433   2.37768
 Alpha virt. eigenvalues --    2.37803   2.38360   2.38959   2.39181   2.39223
 Alpha virt. eigenvalues --    2.39856   2.40941   2.41073   2.41220   2.41501
 Alpha virt. eigenvalues --    2.42426   2.42570   2.43538   2.44570   2.45432
 Alpha virt. eigenvalues --    2.45828   2.46307   2.46546   2.47000   2.47575
 Alpha virt. eigenvalues --    2.47864   2.48461   2.49240   2.49647   2.50190
 Alpha virt. eigenvalues --    2.51178   2.51369   2.51606   2.52576   2.53299
 Alpha virt. eigenvalues --    2.53417   2.54180   2.54713   2.55494   2.55941
 Alpha virt. eigenvalues --    2.56398   2.56824   2.57565   2.57945   2.57984
 Alpha virt. eigenvalues --    2.58660   2.59255   2.59359   2.59641   2.60348
 Alpha virt. eigenvalues --    2.60588   2.60888   2.61657   2.61870   2.63105
 Alpha virt. eigenvalues --    2.63386   2.63863   2.64103   2.64450   2.64640
 Alpha virt. eigenvalues --    2.64730   2.65589   2.66221   2.66654   2.66914
 Alpha virt. eigenvalues --    2.67013   2.68072   2.68753   2.69593   2.70130
 Alpha virt. eigenvalues --    2.71146   2.71612   2.72286   2.73161   2.73550
 Alpha virt. eigenvalues --    2.74299   2.75179   2.76748   2.77012   2.78127
 Alpha virt. eigenvalues --    2.78250   2.78532   2.78977   2.79681   2.81768
 Alpha virt. eigenvalues --    2.81981   2.83207   2.84879   2.86031   2.88014
 Alpha virt. eigenvalues --    2.89712   2.90205   2.91055   2.91490   2.91781
 Alpha virt. eigenvalues --    2.92830   2.93277   2.95310   2.96319   2.96802
 Alpha virt. eigenvalues --    2.97280   2.97619   2.98314   2.98672   3.01060
 Alpha virt. eigenvalues --    3.01330   3.02269   3.02434   3.03287   3.07207
 Alpha virt. eigenvalues --    3.09489   3.09810   3.10469   3.11190   3.11287
 Alpha virt. eigenvalues --    3.11983   3.13329   3.17296   3.67615   3.73570
 Alpha virt. eigenvalues --    3.76113   3.79409   3.86516   3.92691   3.93535
 Alpha virt. eigenvalues --    3.94734   3.95860   3.96635   3.99445   4.01319
 Alpha virt. eigenvalues --    4.01367   4.03671   4.04548   4.04881   4.05812
 Alpha virt. eigenvalues --    4.07277   4.09316   4.10314   4.10875   4.11562
 Alpha virt. eigenvalues --    4.12601   4.13780   4.14188   4.14903   4.16375
 Alpha virt. eigenvalues --    4.16839   4.17331   4.18340   4.20084   4.20222
 Alpha virt. eigenvalues --    4.21336   4.22966   4.24929   4.25389   4.26485
 Alpha virt. eigenvalues --    4.27321   4.28234   4.28951   4.29661   4.31354
 Alpha virt. eigenvalues --    4.32017   4.33578   4.34009   4.34913   4.36328
 Alpha virt. eigenvalues --    4.38236   4.39548   4.39996   4.41034   4.42501
 Alpha virt. eigenvalues --    4.43660   4.46000   4.46494   4.48046   4.48746
 Alpha virt. eigenvalues --    4.49960   4.53191   4.54527   4.55652   4.58021
 Alpha virt. eigenvalues --    4.59582   4.60917   4.62326   4.63813   4.64698
 Alpha virt. eigenvalues --    4.67026   4.69252   4.72124   4.75473
          Condensed to atoms (all electrons):
 Mulliken charges:
               1
     1  N   -0.761352
     2  H    0.410984
     3  H    0.402812
     4  H    0.420300
     5  C   -0.123245
     6  H    0.271676
     7  C    0.632643
     8  C   -0.484842
     9  H    0.246002
    10  H    0.163424
    11  H    0.167627
    12  O   -0.569035
    13  N   -0.662052
    14  H    0.445401
    15  C    0.004605
    16  H    0.191987
    17  C    0.563340
    18  C   -0.384340
    19  H    0.169037
    20  H    0.221481
    21  O   -0.516884
    22  C    0.580445
    23  N   -0.764602
    24  H    0.357424
    25  H    0.361126
    26  O   -0.503368
    27  N   -0.625308
    28  H    0.368273
    29  C   -0.043730
    30  H    0.215627
    31  C    0.642643
    32  C   -0.316406
    33  H    0.176898
    34  H    0.203181
    35  O   -0.550201
    36  C   -0.343906
    37  H    0.167314
    38  H    0.182581
    39  C    0.569529
    40  O   -0.443989
    41  O   -0.563771
    42  N   -0.617906
    43  H    0.369941
    44  C   -0.076700
    45  H    0.196168
    46  C    0.630353
    47  C   -0.276495
    48  H    0.129926
    49  H    0.139841
    50  O   -0.554309
    51  C   -0.083808
    52  H    0.159599
    53  C   -0.459152
    54  H    0.145574
    55  H    0.126099
    56  H    0.172000
    57  C   -0.451000
    58  H    0.138180
    59  H    0.121126
    60  H    0.173701
    61  N   -0.659205
    62  H    0.391155
    63  C   -0.059359
    64  H    0.241477
    65  C    0.656207
    66  C   -0.301961
    67  H    0.143897
    68  H    0.168396
    69  O   -0.584158
    70  C   -0.106691
    71  H    0.145135
    72  C   -0.441710
    73  H    0.144455
    74  H    0.148928
    75  H    0.148840
    76  C   -0.484069
    77  H    0.143581
    78  H    0.188036
    79  H    0.146926
    80  N   -0.636672
    81  H    0.346952
    82  C   -0.029254
    83  H    0.189367
    84  C    0.615403
    85  C   -0.099215
    86  H    0.151233
    87  O   -0.560073
    88  C   -0.274511
    89  H    0.137660
    90  H    0.159114
    91  C   -0.517212
    92  H    0.193449
    93  H    0.135908
    94  H    0.170585
    95  C   -0.454446
    96  H    0.155619
    97  H    0.149207
    98  H    0.154189
    99  N   -0.613067
   100  H    0.371762
   101  C   -0.046018
   102  H    0.190748
   103  C    0.592436
   104  C   -0.405652
   105  H    0.182233
   106  H    0.195754
   107  O   -0.539850
   108  C    0.605199
   109  N   -0.730695
   110  H    0.352443
   111  H    0.358839
   112  O   -0.499835
   113  N   -0.623805
   114  H    0.420458
   115  C   -0.089174
   116  H    0.192102
   117  C    0.617724
   118  C   -0.079851
   119  H    0.143866
   120  O   -0.572545
   121  C   -0.454537
   122  H    0.153007
   123  H    0.151996
   124  H    0.163258
   125  C   -0.517055
   126  H    0.176792
   127  H    0.128292
   128  H    0.189657
   129  N   -0.594849
   130  H    0.358789
   131  C   -0.058921
   132  H    0.202056
   133  C    0.607005
   134  C   -0.275106
   135  H    0.169313
   136  H    0.141492
   137  O   -0.622295
   138  C   -0.285349
   139  H    0.179551
   140  H    0.145457
   141  C   -0.294817
   142  H    0.151736
   143  H    0.168007
   144  C   -0.178145
   145  H    0.188845
   146  H    0.216320
   147  N   -0.814118
   148  H    0.440253
   149  H    0.395173
   150  H    0.454427
   151  O   -0.607481
   152  H    0.418529
 Sum of Mulliken charges =   1.00000
 Mulliken charges with hydrogens summed into heavy atoms:
               1
     1  N    0.472745
     5  C    0.148431
     7  C    0.632643
     8  C    0.092211
    12  O   -0.569035
    13  N   -0.216651
    15  C    0.196592
    17  C    0.563340
    18  C    0.006177
    21  O   -0.516884
    22  C    0.580445
    23  N   -0.046052
    26  O   -0.503368
    27  N   -0.257036
    29  C    0.171897
    31  C    0.642643
    32  C    0.063673
    35  O   -0.550201
    36  C    0.005989
    39  C    0.569529
    40  O   -0.443989
    41  O   -0.145242
    42  N   -0.247964
    44  C    0.119468
    46  C    0.630353
    47  C   -0.006728
    50  O   -0.554309
    51  C    0.075791
    53  C   -0.015480
    57  C   -0.017993
    61  N   -0.268050
    63  C    0.182119
    65  C    0.656207
    66  C    0.010331
    69  O   -0.584158
    70  C    0.038444
    72  C    0.000513
    76  C   -0.005526
    80  N   -0.289720
    82  C    0.160113
    84  C    0.615403
    85  C    0.052018
    87  O   -0.560073
    88  C    0.022263
    91  C   -0.017270
    95  C    0.004568
    99  N   -0.241305
   101  C    0.144730
   103  C    0.592436
   104  C   -0.027665
   107  O   -0.539850
   108  C    0.605199
   109  N   -0.019412
   112  O   -0.499835
   113  N   -0.203347
   115  C    0.102928
   117  C    0.617724
   118  C    0.064015
   120  O   -0.572545
   121  C    0.013724
   125  C   -0.022314
   129  N   -0.236060
   131  C    0.143135
   133  C    0.607005
   134  C    0.035699
   137  O   -0.622295
   138  C    0.039659
   141  C    0.024926
   144  C    0.227020
   147  N    0.475736
   151  O   -0.607481
 Electronic spatial extent (au):  <R**2>=          63488.4975
 Charge=              1.0000 electrons
 Dipole moment (field-independent basis, Debye):
    X=              7.8256    Y=             15.8435    Z=             -9.3221  Tot=             19.9789
 Quadrupole moment (field-independent basis, Debye-Ang):
   XX=           -314.0549   YY=           -261.5538   ZZ=           -370.7363
   XY=            -54.6444   XZ=             13.3329   YZ=            -43.2048
 Traceless Quadrupole moment (field-independent basis, Debye-Ang):
   XX=              1.3935   YY=             53.8945   ZZ=            -55.2880
   XY=            -54.6444   XZ=             13.3329   YZ=            -43.2048
 Octapole moment (field-independent basis, Debye-Ang**2):
  XXX=           -961.8817  YYY=            109.6290  ZZZ=           1291.4588  XYY=           -907.3860
  XXY=           -316.6536  XXZ=            188.4094  XZZ=           -475.0819  YZZ=           -188.4534
  YYZ=             30.8361  XYZ=            103.0776
 Hexadecapole moment (field-independent basis, Debye-Ang**3):
 XXXX=         -33044.2399 YYYY=         -12847.4991 ZZZZ=         -17352.7281 XXXY=            964.2692
 XXXZ=          -1685.5368 YYYX=          -1394.0338 YYYZ=          -1967.3072 ZZZX=          -1584.2349
 ZZZY=           1797.4254 XXYY=          -8552.0864 XXZZ=          -9067.0491 YYZZ=          -5449.4447
 XXYZ=            462.2482 YYXZ=           1018.6508 ZZXY=           1174.1331
 N-N= 1.411086955771D+04 E-N=-3.627627851445D+04  KE= 3.442011536677D+03
 Unable to Open any file for archive entry.
 1\1\GINC-AMR-073\SP\RB3LYP\6-31G(d)\C45H81N12O14(1+)\KENGMITH\04-Jul-2
 022\0\\# B3LYP/6-31G* empiricaldispersion=gd3 guess=read geom=check no
 symm integral(ultrafinegrid)\\Candidate Structure: Conf:584 Charge cal
 c in gas phase\\1,1\N,0,-2.8873046256,7.8593080092,-2.9576466395\H,0,-
 1.9882038279,8.3470429988,-2.9780972719\H,0,-3.617766357,8.5222966007,
 -2.6898987535\H,0,-3.0843390934,7.4341967637,-3.9121611791\C,0,-2.8487
 900519,6.6241787502,-2.0665974749\H,0,-1.925207218,6.6378808616,-1.469
 1051119\C,0,-2.7754664331,5.4795292617,-3.100190017\C,0,-4.08899488,6.
 5592666005,-1.1823931001\H,0,-3.9723478114,5.7007842957,-0.5182661138\
 H,0,-5.0078246119,6.4558023539,-1.7712079793\H,0,-4.1578815141,7.45250
 65317,-0.5510116498\O,0,-3.0114183116,5.748171069,-4.2962696824\N,0,-2
 .4538618066,4.2806472713,-2.626200091\H,0,-2.2445134005,4.1998248306,-
 1.6070817534\C,0,-2.3493302177,3.1121640822,-3.4891059084\H,0,-3.29860
 82963,2.9554760436,-4.009967876\C,0,-2.0038420692,1.9042451931,-2.6031
 607317\C,0,-1.2468331268,3.2568537957,-4.5676855187\H,0,-0.2946625834,
 3.4777218705,-4.0795933899\H,0,-1.5141982052,4.0917175933,-5.220554658
 1\O,0,-1.2094395569,1.9973801899,-1.6704964671\C,0,-1.2089098446,1.978
 591688,-5.3964730382\N,0,0.0091355073,1.3593039205,-5.4918099108\H,0,0
 .0756505644,0.5757521422,-6.1301862236\H,0,0.8649359451,1.85269129,-5.
 2797576391\O,0,-2.2299018401,1.4843371691,-5.8583880272\N,0,-2.6024397
 312,0.7384002801,-2.9618067348\H,0,-3.1520572903,0.7223370839,-3.81383
 54488\C,0,-2.566084467,-0.4574842859,-2.1307883557\H,0,-2.5284957976,-
 0.1131031535,-1.0902459726\C,0,-1.3086155296,-1.3335722286,-2.24068385
 75\C,0,-3.8392444701,-1.2900944307,-2.3375501834\H,0,-3.9577334442,-1.
 5293074632,-3.4012080419\H,0,-3.7027582699,-2.2354139137,-1.8076858347
 \O,0,-1.2826022373,-2.395313696,-1.6042912295\C,0,-5.0900508696,-0.564
 3022601,-1.8178636826\H,0,-5.2087636925,0.3987665948,-2.331159318\H,0,
 -5.007504172,-0.3629983034,-0.7463037691\C,0,-6.3631505758,-1.35735430
 93,-2.0286225976\O,0,-7.1648092516,-1.6414458456,-1.1705077356\O,0,-6.
 5124540404,-1.7124051146,-3.3309812476\N,0,-0.2373608336,-0.8710141435
 ,-2.921496209\H,0,-0.2764152119,0.0339728522,-3.3705850008\C,0,1.06728
 40003,-1.5361357569,-2.8175781598\H,0,0.8506729571,-2.6041780855,-2.72
 84331981\C,0,1.7439389101,-1.0635174756,-1.5060991648\C,0,1.9263658504
 ,-1.2792643293,-4.0559178673\H,0,2.0577868492,-0.1957195341,-4.1723162
 508\H,0,1.3588913702,-1.6352171346,-4.9268400247\O,0,2.7045197602,-0.2
 848034044,-1.49528491\C,0,3.3197781331,-1.9426525556,-4.0366551501\H,0
 ,3.9005144071,-1.4979698621,-3.2250438602\C,0,3.2613163218,-3.45612911
 14,-3.7896148485\H,0,2.6564817779,-3.9652833388,-4.5513333101\H,0,2.83
 88996591,-3.7004463981,-2.8066859088\H,0,4.2710097045,-3.8774700491,-3
 .8169209651\C,0,4.0630530008,-1.634406771,-5.3421496668\H,0,3.57431102
 22,-2.1095572932,-6.2027742857\H,0,4.1028384524,-0.553482046,-5.532511
 2282\H,0,5.0928396632,-1.9986886987,-5.2843972522\N,0,1.1496453496,-1.
 5362595408,-0.380710739\H,0,0.32390851,-2.117363455,-0.5264906047\C,0,
 1.2840836249,-0.8664153692,0.9203896328\H,0,1.2276072914,0.2139808711,
 0.7715908655\C,0,2.6469787368,-1.0895695452,1.5554539708\C,0,0.1994954
 071,-1.3367140928,1.9065915525\H,0,0.2821257333,-2.4257273738,2.031158
 6648\H,0,0.4581617093,-0.8908897151,2.8741807774\O,0,3.0052742187,-0.3
 397018963,2.4700901921\C,0,-1.2531455851,-0.9614813272,1.5575029142\H,
 0,-1.5364121305,-1.4767046265,0.6301682996\C,0,-2.186478913,-1.4702899
 329,2.6658947376\H,0,-1.9654690814,-0.9759876778,3.6206290819\H,0,-2.0
 830013514,-2.551369339,2.8149031837\H,0,-3.234148234,-1.2650720105,2.4
 186351119\C,0,-1.4164961315,0.5506694846,1.3525500408\H,0,-1.046824493
 7,1.1035202641,2.2260817934\H,0,-0.8853608276,0.9121781015,0.468408231
 9\H,0,-2.4715054522,0.8193145227,1.2218158881\N,0,3.4473856257,-2.0912
 034739,1.1121207163\H,0,3.1716568082,-2.651162954,0.3198155706\C,0,4.8
 304043739,-2.1012301747,1.5810744776\H,0,4.8089788825,-2.0928072793,2.
 6732899447\C,0,5.5212201905,-0.7696045985,1.2253138199\C,0,5.606372412
 7,-3.3683307404,1.1201460897\H,0,5.2201630852,-4.1801427757,1.75239325
 72\O,0,6.1303871474,-0.0967366752,2.0607094427\C,0,7.1069621689,-3.194
 8267638,1.4389248524\H,0,7.5432466851,-2.489104247,0.7177339891\H,0,7.
 2102831432,-2.7205795264,2.4226502178\C,0,5.3745368826,-3.7774422209,-
 0.3439626426\H,0,5.726674111,-3.0287933973,-1.0590475842\H,0,4.3217584
 232,-3.9939196699,-0.5637074171\H,0,5.9081062146,-4.7086327553,-0.5567
 825066\C,0,7.9033075552,-4.503336851,1.4237707579\H,0,8.9469677407,-4.
 3224029486,1.702146001\H,0,7.9042502233,-4.976102059,0.4357246674\H,0,
 7.4895000228,-5.2242833116,2.1388346444\N,0,5.4805175061,-0.4193401131
 ,-0.0897776684\H,0,4.8305172049,-0.8916889637,-0.7089984061\C,0,6.2729
 160209,0.6816590028,-0.6131701328\H,0,7.2003277318,0.7185822361,-0.037
 1129604\C,0,5.6134217422,2.0617281548,-0.4290136422\C,0,6.5658416863,0
 .4575643908,-2.112332625\H,0,7.2532900675,1.2427734051,-2.4482953465\H
 ,0,5.6417235842,0.5403279149,-2.6886614665\O,0,6.2083664867,3.00694250
 48,0.0934087101\C,0,7.1228075591,-0.9353763788,-2.3901255931\N,0,8.407
 0369406,-1.1498240151,-2.0004007865\H,0,9.0067310038,-0.4073837566,-1.
 6711963996\H,0,8.8191454162,-2.0563953947,-2.1756814499\O,0,6.42286891
 39,-1.8164326715,-2.8805943733\N,0,4.3580018278,2.1372684564,-0.928205
 1466\H,0,3.8338520442,1.2764305331,-1.0700916153\C,0,3.6005995928,3.37
 21556577,-0.949199404\H,0,4.2411960077,4.1460321808,-0.5138698585\C,0,
 2.379382138,3.1599976279,-0.0416598451\C,0,3.2123391803,3.7950475395,-
 2.3897219036\H,0,2.6883234816,4.7573523579,-2.3059649025\O,0,2.2332052
 78,2.0638884027,0.5334120589\C,0,4.4651412002,4.0092088857,-3.24574914
 13\H,0,4.9959600561,3.0638249389,-3.3988076123\H,0,4.1962626991,4.4069
 746947,-4.2304138286\H,0,5.1605810111,4.7109285936,-2.772415986\C,0,2.
 2518761151,2.7890746245,-3.0398058334\H,0,2.6982394757,1.7906964579,-3
 .0932323295\H,0,2.0320720743,3.1201209637,-4.0630814936\H,0,1.30719882
 34,2.7058656524,-2.491094136\N,0,1.5333322357,4.171824585,0.1216912986
 \H,0,1.5777708003,5.0261309023,-0.4340492165\C,0,0.2259167811,4.011745
 1919,0.7663260347\H,0,-0.1037507203,2.9852463916,0.5998519931\C,0,-0.7
 495627533,4.9340992861,-0.0034665484\C,0,0.2446187991,4.2897795392,2.2
 82244282\H,0,-0.7935359884,4.1899626154,2.6185620426\H,0,0.5337694281,
 5.3349989064,2.4575201031\O,0,-1.9682981736,4.6098284781,0.0542435694\
 C,0,1.1501343879,3.3329264834,3.0959221431\H,0,1.1378436847,2.34525993
 28,2.6284465272\H,0,0.7289322117,3.2082659126,4.1014694114\C,0,2.61107
 81669,3.8125846202,3.2516685976\H,0,2.9575287706,4.2962496281,2.330380
 3029\H,0,2.6519882374,4.5946496636,4.01874018\C,0,3.604568981,2.702361
 7816,3.6475784398\H,0,4.4035432595,3.0749146065,4.2928117923\H,0,3.104
 034642,1.8719772379,4.1500957812\N,0,4.2754232597,2.0970342581,2.44252
 05453\H,0,4.822718487,1.24939801,2.6604911874\H,0,4.9207208708,2.75339
 98158,1.9806999401\H,0,3.5535784339,1.8183005782,1.742046483\O,0,-0.24
 59250878,5.8887113319,-0.6569610792\H,0,-7.3480256892,-2.2132685746,-3
 .3893303796\\Version=ES64L-G16RevC.01\HF=-3474.0548503\RMSD=3.382e-09\
 Dipole=0.7249263,4.4826469,-1.6782284\Quadrupole=1.0359991,40.0692727,
 -41.1052718,-40.6268025,9.9126886,-32.121735\PG=C01 [X(C45H81N12O14)]\
 \@
 The archive entry for this job was punched.


 FROM WHENCE IT HAPPENS, THAT THEY WHICH TRUST TO BOOKS, DO AS THEY THAT CAST UP MANY LITTLE SUMMS INTO GREATER,
 WITHOUT CONSIDERING WETHER THOSE LITTLE SUMMES WERE RIGHTLY CAST UP OR NOT...
 AND AT LAST FINDING THE ERROUR VISIBLE, AND NOT MISTRUSTING THEIR FIRST GROUNDS,
 KNOW NOT WHICH WAY TO CLEERE THEMSELVES...
 BUT SPEND TIME IN FLUTTERING OVER THEIR BOOKES....
 AS BIRDS THAT ENTERING BY THE CHIMNEY, AND FINDING THEMSELVES INCLOSED IN A CHAMBER,
 FLUTTER AT THE FALSE LIGHT OF A GLASSE WINDOW,
 FOR WANT OF WIT TO CONSIDER WHICH WAY THEY CAME IN....
           LEVIATHAN
 Job cpu time:       0 days  0 hours  7 minutes 26.7 seconds.
 Elapsed time:       0 days  0 hours  1 minutes 52.6 seconds.
 File lengths (MBytes):  RWF=    896 Int=      0 D2E=      0 Chk=    144 Scr=     16
 Normal termination of Gaussian 16 at Mon Jul  4 20:52:29 2022.
