 Entering Gaussian System, Link 0=/opt/software/Gaussian/g16-AVX2-C.01/g16/g16
 Input=charge-conf-535.com
 Output=charge-conf-535.log
 Initial command:
 /opt/software/Gaussian/g16-AVX2-C.01/g16/l1.exe "/mnt/gs18/scratch/users/kengmith/Gau-55816.inp" -scrdir="/mnt/gs18/scratch/users/kengmith/"
 Entering Link 1 = /opt/software/Gaussian/g16-AVX2-C.01/g16/l1.exe PID=     55826.
  
 Copyright (c) 1988-2019, Gaussian, Inc.  All Rights Reserved.
  
 This is part of the Gaussian(R) 16 program.  It is based on
 the Gaussian(R) 09 system (copyright 2009, Gaussian, Inc.),
 the Gaussian(R) 03 system (copyright 2003, Gaussian, Inc.),
 the Gaussian(R) 98 system (copyright 1998, Gaussian, Inc.),
 the Gaussian(R) 94 system (copyright 1995, Gaussian, Inc.),
 the Gaussian 92(TM) system (copyright 1992, Gaussian, Inc.),
 the Gaussian 90(TM) system (copyright 1990, Gaussian, Inc.),
 the Gaussian 88(TM) system (copyright 1988, Gaussian, Inc.),
 the Gaussian 86(TM) system (copyright 1986, Carnegie Mellon
 University), and the Gaussian 82(TM) system (copyright 1983,
 Carnegie Mellon University). Gaussian is a federally registered
 trademark of Gaussian, Inc.
  
 This software contains proprietary and confidential information,
 including trade secrets, belonging to Gaussian, Inc.
  
 This software is provided under written license and may be
 used, copied, transmitted, or stored only in accord with that
 written license.
  
 The following legend is applicable only to US Government
 contracts under FAR:
  
                    RESTRICTED RIGHTS LEGEND
  
 Use, reproduction and disclosure by the US Government is
 subject to restrictions as set forth in subparagraphs (a)
 and (c) of the Commercial Computer Software - Restricted
 Rights clause in FAR 52.227-19.
  
 Gaussian, Inc.
 340 Quinnipiac St., Bldg. 40, Wallingford CT 06492
  
  
 ---------------------------------------------------------------
 Warning -- This program may not be used in any manner that
 competes with the business of Gaussian, Inc. or will provide
 assistance to any competitor of Gaussian, Inc.  The licensee
 of this program is prohibited from giving any competitor of
 Gaussian, Inc. access to this program.  By using this program,
 the user acknowledges that Gaussian, Inc. is engaged in the
 business of creating and licensing software in the field of
 computational chemistry and represents and warrants to the
 licensee that it is not a competitor of Gaussian, Inc. and that
 it will not use this program in any manner prohibited above.
 ---------------------------------------------------------------
  

 Cite this work as:
 Gaussian 16, Revision C.01,
 M. J. Frisch, G. W. Trucks, H. B. Schlegel, G. E. Scuseria, 
 M. A. Robb, J. R. Cheeseman, G. Scalmani, V. Barone, 
 G. A. Petersson, H. Nakatsuji, X. Li, M. Caricato, A. V. Marenich, 
 J. Bloino, B. G. Janesko, R. Gomperts, B. Mennucci, H. P. Hratchian, 
 J. V. Ortiz, A. F. Izmaylov, J. L. Sonnenberg, D. Williams-Young, 
 F. Ding, F. Lipparini, F. Egidi, J. Goings, B. Peng, A. Petrone, 
 T. Henderson, D. Ranasinghe, V. G. Zakrzewski, J. Gao, N. Rega, 
 G. Zheng, W. Liang, M. Hada, M. Ehara, K. Toyota, R. Fukuda, 
 J. Hasegawa, M. Ishida, T. Nakajima, Y. Honda, O. Kitao, H. Nakai, 
 T. Vreven, K. Throssell, J. A. Montgomery, Jr., J. E. Peralta, 
 F. Ogliaro, M. J. Bearpark, J. J. Heyd, E. N. Brothers, K. N. Kudin, 
 V. N. Staroverov, T. A. Keith, R. Kobayashi, J. Normand, 
 K. Raghavachari, A. P. Rendell, J. C. Burant, S. S. Iyengar, 
 J. Tomasi, M. Cossi, J. M. Millam, M. Klene, C. Adamo, R. Cammi, 
 J. W. Ochterski, R. L. Martin, K. Morokuma, O. Farkas, 
 J. B. Foresman, and D. J. Fox, Gaussian, Inc., Wallingford CT, 2019.
 
 ******************************************
 Gaussian 16:  ES64L-G16RevC.01  3-Jul-2019
                 4-Jul-2022 
 ******************************************
 %mem=8gb
 %nproc=4
 Will use up to    4 processors via shared memory.
 %chk=conf-535.chk
 ----------------------------------------------------------------------
 # B3LYP/6-31G* empiricaldispersion=gd3 guess=read geom=check nosymm in
 tegral(ultrafinegrid)
 ----------------------------------------------------------------------
 1/29=2,38=1,172=1/1;
 2/12=2,15=1,40=1/2;
 3/5=1,6=6,7=1,11=2,14=-4,25=1,30=1,74=-5,75=-5,116=-2,124=31/1,2,3;
 4/5=1/1;
 5/5=2,38=6/2;
 6/7=2,8=2,9=2,10=2,28=1/1;
 99/5=1,9=1/99;
 ------------------------------------------------------
 Candidate Structure: Conf:535 Charge calc in gas phase
 ------------------------------------------------------
 Structure from the checkpoint file:  "conf-535.chk"
 Charge =  1 Multiplicity = 1
 Redundant internal coordinates found in file.  (old form).
 N,0,-3.6003645175,-3.6612930844,0.8349740378
 H,0,-2.8277965586,-3.7532211393,0.1545692294
 H,0,-3.2331385931,-3.6346323222,1.7886451922
 H,0,-4.0846579508,-2.7431015042,0.6227072775
 C,0,-4.5481378546,-4.8074575276,0.5859813268
 H,0,-4.0697713706,-5.7047977744,0.9942921368
 C,0,-4.539351248,-4.9397615748,-0.9552776257
 C,0,-5.8940377141,-4.5561922724,1.2565284031
 H,0,-6.5458677236,-5.4249536,1.127229015
 H,0,-6.3843478171,-3.6752907616,0.8336553668
 H,0,-5.7667633247,-4.4050704345,2.3334860826
 O,0,-3.507984259,-4.6032271205,-1.554871923
 N,0,-5.6524589138,-5.3988207832,-1.5276166135
 H,0,-6.3797935441,-5.8584030706,-0.9698447005
 C,0,-5.7439035183,-5.6788681832,-2.9687012955
 H,0,-4.8002530867,-6.1348673393,-3.2883917372
 C,0,-5.9655645045,-4.3240167718,-3.7060019837
 C,0,-6.9404649323,-6.6047667723,-3.2592907945
 H,0,-6.8292892963,-6.9939757022,-4.2753933423
 H,0,-7.8419051417,-5.9809640772,-3.2566212195
 O,0,-7.0941931732,-3.9224212341,-3.9713692344
 C,0,-7.1607856094,-7.7119490556,-2.236251906
 N,0,-7.2885021895,-8.9687692577,-2.7150602807
 H,0,-7.5286716391,-9.7076845679,-2.0668248905
 H,0,-7.2919906599,-9.1780305895,-3.7022370869
 O,0,-7.2488569025,-7.4632847463,-1.0267709731
 N,0,-4.8350306584,-3.6323649024,-3.9634817369
 H,0,-3.9358348752,-3.958559131,-3.6162231497
 C,0,-4.8659937029,-2.2500244225,-4.4126632583
 H,0,-5.5022644617,-2.176297253,-5.3009427618
 C,0,-3.4180580182,-1.8518534561,-4.7234628812
 C,0,-5.440972536,-1.3099890919,-3.3189456507
 H,0,-5.577400018,-0.3041479676,-3.7275062567
 H,0,-6.4332234231,-1.6903839781,-3.0624583666
 O,0,-2.4766723491,-2.4651988297,-4.2226412924
 C,0,-4.5174115468,-1.2425196567,-2.082713157
 H,0,-3.7485745845,-0.4777202407,-2.262126293
 H,0,-4.0018696884,-2.1908367869,-1.9186882601
 C,0,-5.2162987596,-0.8726978102,-0.8125735806
 O,0,-5.0401979086,-1.4102848704,0.2854922231
 O,0,-6.068304504,0.1413468067,-0.9451168679
 N,0,-3.249826175,-0.7509389662,-5.497227431
 H,0,-4.0629889367,-0.1883799033,-5.713539922
 C,0,-1.9555264662,-0.06634703,-5.4917905565
 H,0,-1.2096687764,-0.771841545,-5.8670971936
 C,0,-1.6285921103,0.3349229125,-4.0401688607
 C,0,-2.0302003203,1.1784694188,-6.3878602185
 H,0,-2.8248970902,1.8253697297,-5.9907914251
 H,0,-2.336037266,0.8594004987,-7.3937644424
 O,0,-2.4831985489,0.8844039161,-3.3366430971
 C,0,-0.7271274561,1.9952317096,-6.4861636779
 H,0,-0.4519106187,2.3196822575,-5.4726833695
 C,0,0.4390936615,1.1764291721,-7.0594246061
 H,0,0.1804578907,0.7630612423,-8.0427966139
 H,0,0.728177316,0.3443234083,-6.4083346643
 H,0,1.3260168486,1.8065704698,-7.1858697235
 C,0,-0.9742711513,3.2521996217,-7.3329310392
 H,0,-1.2441476944,2.9834056111,-8.3623039916
 H,0,-1.7871989981,3.860829789,-6.9199841845
 H,0,-0.0752354206,3.8764835701,-7.377355309
 N,0,-0.3768749042,0.076793113,-3.6228447328
 H,0,0.2673485811,-0.4791343612,-4.1759913314
 C,0,0.065450408,0.3454963698,-2.2650603639
 H,0,-0.2389364313,1.3630569787,-2.0039526511
 C,0,1.5953129014,0.2099195235,-2.2744071366
 C,0,-0.5754987449,-0.6636055578,-1.2765348655
 H,0,-1.6493073601,-0.65864891,-1.490010903
 H,0,-0.2038711599,-1.6632376605,-1.5366834594
 O,0,2.1590153697,-0.4889018253,-3.116390687
 C,0,-0.3732873024,-0.3968847901,0.2272058914
 H,0,0.6907689713,-0.4762067112,0.4782046273
 C,0,-0.8635586596,0.9952428596,0.6540275048
 H,0,-1.9133841798,1.142925052,0.3682193158
 H,0,-0.2868989899,1.8061386262,0.1966824501
 H,0,-0.7785405225,1.1204429001,1.738525292
 C,0,-1.1236603032,-1.4721842498,1.0294173831
 H,0,-2.2059875619,-1.3596321854,0.8711963866
 H,0,-0.8168090104,-2.4810774134,0.7196435212
 H,0,-0.9289988826,-1.3731895513,2.103333482
 N,0,2.2367938555,0.8736475545,-1.2870294431
 H,0,1.7021420909,1.3206270531,-0.5518026889
 C,0,3.6338917768,0.6373407131,-0.9504041139
 H,0,3.9431014669,-0.2609988718,-1.4906710482
 C,0,3.6724424003,0.3908556022,0.5637841557
 C,0,4.5260302492,1.8368026126,-1.3961590836
 H,0,4.2767107932,1.9644549561,-2.4592171986
 O,0,2.7774230758,0.8085080246,1.3007275361
 C,0,6.040051812,1.5623941728,-1.2999475204
 H,0,6.5494236512,2.4477678442,-1.7014647642
 H,0,6.3350130661,1.5124342357,-0.2448956422
 C,0,4.1627673055,3.1248117222,-0.642704635
 H,0,4.432277677,3.0494789916,0.4157512812
 H,0,3.0928409749,3.3481517436,-0.7157652222
 H,0,4.707295515,3.9743652816,-1.0689470842
 C,0,6.5299534306,0.3308403092,-2.0741118032
 H,0,7.624183429,0.2838738993,-2.078093776
 H,0,6.1910657585,0.3581275982,-3.1165538369
 H,0,6.1703848789,-0.6170741019,-1.6510901731
 N,0,4.73068759,-0.3212134255,1.0417337842
 H,0,5.5350460438,-0.4196440098,0.4365747181
 C,0,4.9744356848,-0.3125599079,2.4732896228
 H,0,4.0525923537,-0.6188295679,2.9714571286
 C,0,5.3584313665,1.1144274918,2.9312614205
 C,0,6.0824515642,-1.3100146854,2.861057349
 H,0,7.0454915116,-0.9986430739,2.4379012799
 H,0,5.8302032638,-2.2961138884,2.4569578022
 O,0,5.8900308291,1.9108667884,2.1595139296
 C,0,6.1085699334,-1.4075556003,4.3900829571
 N,0,7.2891926105,-1.1302998886,5.0092134183
 H,0,8.0325629244,-0.6786531796,4.4949723401
 H,0,7.210507875,-0.8784912789,5.9891618798
 O,0,5.0833047736,-1.6828711516,5.0038441113
 N,0,5.0985563758,1.3785197123,4.232220719
 H,0,4.7432247641,0.6444941798,4.8366963497
 C,0,5.5012094723,2.6147369641,4.8816793101
 H,0,6.0530844744,3.1957536601,4.1361440328
 C,0,6.421477261,2.240028679,6.0530625164
 C,0,4.2596234474,3.4289049335,5.3373669662
 H,0,3.7023317335,2.7906593033,6.0385012036
 O,0,6.2420337728,1.213575175,6.7123270975
 C,0,4.657447494,4.721110372,6.0650850201
 H,0,5.2759520417,5.3605749046,5.4213144922
 H,0,3.7636546261,5.2942665103,6.3326735479
 H,0,5.2170447807,4.5292319774,6.9856414288
 C,0,3.3659768132,3.7370566744,4.1263448174
 H,0,3.8934910301,4.3830741209,3.4134392229
 H,0,2.4593540378,4.2614762815,4.448238932
 H,0,3.067264481,2.8285321959,3.5947243375
 N,0,7.4298938437,3.1057917097,6.3067240911
 H,0,7.5197322241,3.9783185359,5.7978105442
 C,0,8.301814934,2.9549442447,7.4587484858
 H,0,7.7010312634,2.5758151115,8.2961221663
 C,0,8.8386197209,4.3504285405,7.7973071883
 C,0,9.4334441516,1.9358058094,7.1749259508
 H,0,10.0199003055,2.2957460707,6.3201609508
 H,0,8.9243857471,1.0181999163,6.8577773604
 O,0,9.3930109957,4.5026066945,9.016844819
 C,0,10.3452420368,1.628925746,8.3673942073
 H,0,9.7455305871,1.4176014381,9.2637857266
 H,0,10.9742300766,2.4992441903,8.596739619
 C,0,11.2573767827,0.4212811493,8.1214937237
 H,0,10.6405406618,-0.4567951665,7.8759476702
 H,0,11.8958964812,0.6054182406,7.2467335198
 C,0,12.1459879577,0.0914450756,9.3266703685
 H,0,12.8425841322,-0.7181800856,9.0462014604
 H,0,12.7633968062,0.9668471869,9.5664563471
 N,0,11.3249345094,-0.2094171729,10.5073725296
 H,0,11.9189024247,-0.3086232013,11.3284881098
 H,0,10.8657178474,-1.1112501737,10.3820875084
 H,0,9.3465820106,3.6754949782,9.5257610908
 O,0,8.7930010638,5.2747457357,7.0201666637
 H,0,-6.4578468808,0.3343452663,-0.0700943744
 Recover connectivity data from disk.
                           ----------------------------
                           !    Current Parameters    !
                           ! (Angstroms and Degrees)  !
 --------------------------                            --------------------------
 ! Name  Definition              Value                                          !
 --------------------------------------------------------------------------------
 ! R1    R(1,2)                  1.0336                                         !
 ! R2    R(1,3)                  1.0223                                         !
 ! R3    R(1,4)                  1.0596                                         !
 ! R4    R(1,5)                  1.508                                          !
 ! R5    R(5,6)                  1.0958                                         !
 ! R6    R(5,7)                  1.547                                          !
 ! R7    R(5,8)                  1.5245                                         !
 ! R8    R(7,12)                 1.2396                                         !
 ! R9    R(7,13)                 1.3332                                         !
 ! R10   R(8,9)                  1.0938                                         !
 ! R11   R(8,10)                 1.0933                                         !
 ! R12   R(8,11)                 1.0949                                         !
 ! R13   R(13,14)                1.0253                                         !
 ! R14   R(13,15)                1.4709                                         !
 ! R15   R(15,16)                1.0957                                         !
 ! R16   R(15,17)                1.5583                                         !
 ! R17   R(15,18)                1.5406                                         !
 ! R18   R(17,21)                1.227                                          !
 ! R19   R(17,27)                1.3501                                         !
 ! R20   R(18,19)                1.0938                                         !
 ! R21   R(18,20)                1.0962                                         !
 ! R22   R(18,22)                1.5235                                         !
 ! R23   R(22,23)                1.351                                          !
 ! R24   R(22,26)                1.2379                                         !
 ! R25   R(23,24)                1.0119                                         !
 ! R26   R(23,25)                1.0091                                         !
 ! R27   R(27,28)                1.0176                                         !
 ! R28   R(27,29)                1.4538                                         !
 ! R29   R(29,30)                1.0951                                         !
 ! R30   R(29,31)                1.5335                                         !
 ! R31   R(29,32)                1.5526                                         !
 ! R32   R(31,35)                1.2301                                         !
 ! R33   R(31,42)                1.3561                                         !
 ! R34   R(32,33)                1.0942                                         !
 ! R35   R(32,34)                1.0932                                         !
 ! R36   R(32,36)                1.5446                                         !
 ! R37   R(36,37)                1.0992                                         !
 ! R38   R(36,38)                1.0918                                         !
 ! R39   R(36,39)                1.4962                                         !
 ! R40   R(39,40)                1.2352                                         !
 ! R41   R(39,41)                1.3311                                         !
 ! R42   R(41,152)               0.9771                                         !
 ! R43   R(42,43)                1.0122                                         !
 ! R44   R(42,44)                1.4642                                         !
 ! R45   R(44,45)                1.0931                                         !
 ! R46   R(44,46)                1.5411                                         !
 ! R47   R(44,47)                1.5356                                         !
 ! R48   R(46,50)                1.2358                                         !
 ! R49   R(46,61)                1.3445                                         !
 ! R50   R(47,48)                1.0989                                         !
 ! R51   R(47,49)                1.0987                                         !
 ! R52   R(47,51)                1.541                                          !
 ! R53   R(51,52)                1.0992                                         !
 ! R54   R(51,53)                1.5359                                         !
 ! R55   R(51,57)                1.5356                                         !
 ! R56   R(53,54)                1.0976                                         !
 ! R57   R(53,55)                1.0954                                         !
 ! R58   R(53,56)                1.0953                                         !
 ! R59   R(57,58)                1.0976                                         !
 ! R60   R(57,59)                1.0963                                         !
 ! R61   R(57,60)                1.0954                                         !
 ! R62   R(61,62)                1.0149                                         !
 ! R63   R(61,63)                1.4531                                         !
 ! R64   R(63,64)                1.0937                                         !
 ! R65   R(63,65)                1.5359                                         !
 ! R66   R(63,66)                1.5512                                         !
 ! R67   R(65,69)                1.2309                                         !
 ! R68   R(65,80)                1.3516                                         !
 ! R69   R(66,67)                1.0948                                         !
 ! R70   R(66,68)                1.0977                                         !
 ! R71   R(66,70)                1.5405                                         !
 ! R72   R(70,71)                1.0961                                         !
 ! R73   R(70,72)                1.5364                                         !
 ! R74   R(70,76)                1.5372                                         !
 ! R75   R(72,73)                1.098                                          !
 ! R76   R(72,74)                1.0951                                         !
 ! R77   R(72,75)                1.095                                          !
 ! R78   R(76,77)                1.0996                                         !
 ! R79   R(76,78)                1.0991                                         !
 ! R80   R(76,79)                1.0959                                         !
 ! R81   R(80,81)                1.013                                          !
 ! R82   R(80,82)                1.4564                                         !
 ! R83   R(82,83)                1.0929                                         !
 ! R84   R(82,84)                1.5346                                         !
 ! R85   R(82,85)                1.5599                                         !
 ! R86   R(84,87)                1.2323                                         !
 ! R87   R(84,99)                1.3621                                         !
 ! R88   R(85,86)                1.0993                                         !
 ! R89   R(85,88)                1.5417                                         !
 ! R90   R(85,91)                1.5358                                         !
 ! R91   R(88,89)                1.0975                                         !
 ! R92   R(88,90)                1.0966                                         !
 ! R93   R(88,95)                1.5349                                         !
 ! R94   R(91,92)                1.0948                                         !
 ! R95   R(91,93)                1.0954                                         !
 ! R96   R(91,94)                1.0954                                         !
 ! R97   R(95,96)                1.0952                                         !
 ! R98   R(95,97)                1.0965                                         !
 ! R99   R(95,98)                1.0985                                         !
 ! R100  R(99,100)               1.0114                                         !
 ! R101  R(99,101)               1.4522                                         !
 ! R102  R(101,102)              1.0917                                         !
 ! R103  R(101,103)              1.5471                                         !
 ! R104  R(101,104)              1.5404                                         !
 ! R105  R(103,107)              1.2298                                         !
 ! R106  R(103,113)              1.3527                                         !
 ! R107  R(104,105)              1.097                                          !
 ! R108  R(104,106)              1.0951                                         !
 ! R109  R(104,108)              1.5324                                         !
 ! R110  R(108,109)              1.3616                                         !
 ! R111  R(108,112)              1.2262                                         !
 ! R112  R(109,110)              1.0105                                         !
 ! R113  R(109,111)              1.0148                                         !
 ! R114  R(113,114)              1.0151                                         !
 ! R115  R(113,115)              1.4533                                         !
 ! R116  R(115,116)              1.0945                                         !
 ! R117  R(115,117)              1.536                                          !
 ! R118  R(115,118)              1.5531                                         !
 ! R119  R(117,120)              1.2331                                         !
 ! R120  R(117,129)              1.3531                                         !
 ! R121  R(118,119)              1.0998                                         !
 ! R122  R(118,121)              1.5355                                         !
 ! R123  R(118,125)              1.5363                                         !
 ! R124  R(121,122)              1.0981                                         !
 ! R125  R(121,123)              1.095                                          !
 ! R126  R(121,124)              1.0943                                         !
 ! R127  R(125,126)              1.0972                                         !
 ! R128  R(125,127)              1.0957                                         !
 ! R129  R(125,128)              1.0942                                         !
 ! R130  R(129,130)              1.0141                                         !
 ! R131  R(129,131)              1.4526                                         !
 ! R132  R(131,132)              1.0981                                         !
 ! R133  R(131,133)              1.533                                          !
 ! R134  R(131,134)              1.5491                                         !
 ! R135  R(133,137)              1.3483                                         !
 ! R136  R(133,151)              1.2085                                         !
 ! R137  R(134,135)              1.0973                                         !
 ! R138  R(134,136)              1.0962                                         !
 ! R139  R(134,138)              1.5322                                         !
 ! R140  R(138,139)              1.099                                          !
 ! R141  R(138,140)              1.098                                          !
 ! R142  R(138,141)              1.5333                                         !
 ! R143  R(141,142)              1.1008                                         !
 ! R144  R(141,143)              1.0986                                         !
 ! R145  R(141,144)              1.5333                                         !
 ! R146  R(144,145)              1.1043                                         !
 ! R147  R(144,146)              1.0977                                         !
 ! R148  R(144,147)              1.4693                                         !
 ! R149  R(147,148)              1.0183                                         !
 ! R150  R(147,149)              1.0197                                         !
 ! R151  R(147,150)              4.4688                                         !
 ! A1    A(2,1,3)              110.3611                                         !
 ! A2    A(2,1,4)              106.669                                          !
 ! A3    A(2,1,5)              107.0674                                         !
 ! A4    A(3,1,4)              109.1765                                         !
 ! A5    A(3,1,5)              113.5553                                         !
 ! A6    A(4,1,5)              109.7739                                         !
 ! A7    A(1,5,6)              106.6496                                         !
 ! A8    A(1,5,7)              103.0585                                         !
 ! A9    A(1,5,8)              110.9142                                         !
 ! A10   A(6,5,7)              107.3812                                         !
 ! A11   A(6,5,8)              110.8835                                         !
 ! A12   A(7,5,8)              117.2148                                         !
 ! A13   A(5,7,12)             117.6096                                         !
 ! A14   A(5,7,13)             116.9002                                         !
 ! A15   A(12,7,13)            125.488                                          !
 ! A16   A(5,8,9)              110.0727                                         !
 ! A17   A(5,8,10)             111.0146                                         !
 ! A18   A(5,8,11)             110.6553                                         !
 ! A19   A(9,8,10)             109.0866                                         !
 ! A20   A(9,8,11)             107.1678                                         !
 ! A21   A(10,8,11)            108.746                                          !
 ! A22   A(7,13,14)            120.8685                                         !
 ! A23   A(7,13,15)            122.5529                                         !
 ! A24   A(14,13,15)           113.7985                                         !
 ! A25   A(13,15,16)           108.1522                                         !
 ! A26   A(13,15,17)           107.8701                                         !
 ! A27   A(13,15,18)           110.335                                          !
 ! A28   A(16,15,17)           110.2601                                         !
 ! A29   A(16,15,18)           111.3302                                         !
 ! A30   A(17,15,18)           108.8324                                         !
 ! A31   A(15,17,21)           121.1804                                         !
 ! A32   A(15,17,27)           114.6155                                         !
 ! A33   A(21,17,27)           124.1471                                         !
 ! A34   A(15,18,19)           108.0678                                         !
 ! A35   A(15,18,20)           107.2306                                         !
 ! A36   A(15,18,22)           114.988                                          !
 ! A37   A(19,18,20)           106.7584                                         !
 ! A38   A(19,18,22)           112.3292                                         !
 ! A39   A(20,18,22)           107.0372                                         !
 ! A40   A(18,22,23)           116.8571                                         !
 ! A41   A(18,22,26)           121.3587                                         !
 ! A42   A(23,22,26)           121.7638                                         !
 ! A43   A(22,23,24)           118.3422                                         !
 ! A44   A(22,23,25)           122.6803                                         !
 ! A45   A(24,23,25)           118.3234                                         !
 ! A46   A(17,27,28)           120.7056                                         !
 ! A47   A(17,27,29)           121.8837                                         !
 ! A48   A(28,27,29)           115.4067                                         !
 ! A49   A(27,29,30)           109.0864                                         !
 ! A50   A(27,29,31)           106.8215                                         !
 ! A51   A(27,29,32)           111.4651                                         !
 ! A52   A(30,29,31)           111.5126                                         !
 ! A53   A(30,29,32)           108.3889                                         !
 ! A54   A(31,29,32)           109.587                                          !
 ! A55   A(29,31,35)           120.7034                                         !
 ! A56   A(29,31,42)           116.3312                                         !
 ! A57   A(35,31,42)           122.8293                                         !
 ! A58   A(29,32,33)           109.8598                                         !
 ! A59   A(29,32,34)           106.9025                                         !
 ! A60   A(29,32,36)           111.6433                                         !
 ! A61   A(33,32,34)           107.1161                                         !
 ! A62   A(33,32,36)           109.4658                                         !
 ! A63   A(34,32,36)           111.7242                                         !
 ! A64   A(32,36,37)           108.5409                                         !
 ! A65   A(32,36,38)           111.3857                                         !
 ! A66   A(32,36,39)           114.2642                                         !
 ! A67   A(37,36,38)           107.373                                          !
 ! A68   A(37,36,39)           107.0565                                         !
 ! A69   A(38,36,39)           107.9229                                         !
 ! A70   A(36,39,40)           125.486                                          !
 ! A71   A(36,39,41)           113.7518                                         !
 ! A72   A(40,39,41)           120.7526                                         !
 ! A73   A(39,41,152)          108.4514                                         !
 ! A74   A(31,42,43)           118.2603                                         !
 ! A75   A(31,42,44)           119.1507                                         !
 ! A76   A(43,42,44)           116.8135                                         !
 ! A77   A(42,44,45)           107.4646                                         !
 ! A78   A(42,44,46)           108.2254                                         !
 ! A79   A(42,44,47)           109.5033                                         !
 ! A80   A(45,44,46)           110.2852                                         !
 ! A81   A(45,44,47)           110.8559                                         !
 ! A82   A(46,44,47)           110.419                                          !
 ! A83   A(44,46,50)           120.3502                                         !
 ! A84   A(44,46,61)           116.0966                                         !
 ! A85   A(50,46,61)           123.538                                          !
 ! A86   A(44,47,48)           107.5483                                         !
 ! A87   A(44,47,49)           108.2016                                         !
 ! A88   A(44,47,51)           115.1982                                         !
 ! A89   A(48,47,49)           107.4845                                         !
 ! A90   A(48,47,51)           108.8164                                         !
 ! A91   A(49,47,51)           109.3228                                         !
 ! A92   A(47,51,52)           108.0204                                         !
 ! A93   A(47,51,53)           112.5385                                         !
 ! A94   A(47,51,57)           109.4465                                         !
 ! A95   A(52,51,53)           108.1423                                         !
 ! A96   A(52,51,57)           107.8857                                         !
 ! A97   A(53,51,57)           110.6561                                         !
 ! A98   A(51,53,54)           110.8689                                         !
 ! A99   A(51,53,55)           112.5505                                         !
 ! A100  A(51,53,56)           110.5621                                         !
 ! A101  A(54,53,55)           107.9761                                         !
 ! A102  A(54,53,56)           107.7004                                         !
 ! A103  A(55,53,56)           106.9746                                         !
 ! A104  A(51,57,58)           110.8712                                         !
 ! A105  A(51,57,59)           111.474                                          !
 ! A106  A(51,57,60)           110.9017                                         !
 ! A107  A(58,57,59)           107.8728                                         !
 ! A108  A(58,57,60)           107.6578                                         !
 ! A109  A(59,57,60)           107.9069                                         !
 ! A110  A(46,61,62)           121.8003                                         !
 ! A111  A(46,61,63)           122.5441                                         !
 ! A112  A(62,61,63)           114.667                                          !
 ! A113  A(61,63,64)           108.0833                                         !
 ! A114  A(61,63,65)           106.332                                          !
 ! A115  A(61,63,66)           110.4502                                         !
 ! A116  A(64,63,65)           111.1485                                         !
 ! A117  A(64,63,66)           109.7606                                         !
 ! A118  A(65,63,66)           110.9789                                         !
 ! A119  A(63,65,69)           120.694                                          !
 ! A120  A(63,65,80)           115.1468                                         !
 ! A121  A(69,65,80)           124.135                                          !
 ! A122  A(63,66,67)           106.1441                                         !
 ! A123  A(63,66,68)           107.5465                                         !
 ! A124  A(63,66,70)           117.0759                                         !
 ! A125  A(67,66,68)           106.8549                                         !
 ! A126  A(67,66,70)           108.5591                                         !
 ! A127  A(68,66,70)           110.1541                                         !
 ! A128  A(66,70,71)           109.7798                                         !
 ! A129  A(66,70,72)           112.7157                                         !
 ! A130  A(66,70,76)           108.9185                                         !
 ! A131  A(71,70,72)           108.1629                                         !
 ! A132  A(71,70,76)           107.6827                                         !
 ! A133  A(72,70,76)           109.4565                                         !
 ! A134  A(70,72,73)           110.7723                                         !
 ! A135  A(70,72,74)           112.7608                                         !
 ! A136  A(70,72,75)           110.7299                                         !
 ! A137  A(73,72,74)           107.1678                                         !
 ! A138  A(73,72,75)           108.4607                                         !
 ! A139  A(74,72,75)           106.7425                                         !
 ! A140  A(70,76,77)           109.4989                                         !
 ! A141  A(70,76,78)           111.0237                                         !
 ! A142  A(70,76,79)           111.193                                          !
 ! A143  A(77,76,78)           109.1598                                         !
 ! A144  A(77,76,79)           107.854                                          !
 ! A145  A(78,76,79)           108.0305                                         !
 ! A146  A(65,80,81)           119.7602                                         !
 ! A147  A(65,80,82)           122.9867                                         !
 ! A148  A(81,80,82)           114.2134                                         !
 ! A149  A(80,82,83)           106.8884                                         !
 ! A150  A(80,82,84)           106.1542                                         !
 ! A151  A(80,82,85)           110.9666                                         !
 ! A152  A(83,82,84)           110.4031                                         !
 ! A153  A(83,82,85)           109.2057                                         !
 ! A154  A(84,82,85)           113.0225                                         !
 ! A155  A(82,84,87)           121.1568                                         !
 ! A156  A(82,84,99)           116.7246                                         !
 ! A157  A(87,84,99)           122.1141                                         !
 ! A158  A(82,85,86)           103.6451                                         !
 ! A159  A(82,85,88)           114.0137                                         !
 ! A160  A(82,85,91)           111.6791                                         !
 ! A161  A(86,85,88)           107.682                                          !
 ! A162  A(86,85,91)           108.8676                                         !
 ! A163  A(88,85,91)           110.5452                                         !
 ! A164  A(85,88,89)           106.8198                                         !
 ! A165  A(85,88,90)           109.4077                                         !
 ! A166  A(85,88,95)           115.1362                                         !
 ! A167  A(89,88,90)           105.3006                                         !
 ! A168  A(89,88,95)           108.3372                                         !
 ! A169  A(90,88,95)           111.2743                                         !
 ! A170  A(85,91,92)           111.0001                                         !
 ! A171  A(85,91,93)           111.6722                                         !
 ! A172  A(85,91,94)           109.9958                                         !
 ! A173  A(92,91,93)           108.5992                                         !
 ! A174  A(92,91,94)           107.8896                                         !
 ! A175  A(93,91,94)           107.5447                                         !
 ! A176  A(88,95,96)           110.8002                                         !
 ! A177  A(88,95,97)           111.1549                                         !
 ! A178  A(88,95,98)           113.1817                                         !
 ! A179  A(96,95,97)           107.8419                                         !
 ! A180  A(96,95,98)           106.9424                                         !
 ! A181  A(97,95,98)           106.6432                                         !
 ! A182  A(84,99,100)          117.3101                                         !
 ! A183  A(84,99,101)          118.2417                                         !
 ! A184  A(100,99,101)         117.1896                                         !
 ! A185  A(99,101,102)         107.8448                                         !
 ! A186  A(99,101,103)         109.8144                                         !
 ! A187  A(99,101,104)         111.4089                                         !
 ! A188  A(102,101,103)        109.4678                                         !
 ! A189  A(102,101,104)        108.1106                                         !
 ! A190  A(103,101,104)        110.1328                                         !
 ! A191  A(101,103,107)        121.2552                                         !
 ! A192  A(101,103,113)        114.6513                                         !
 ! A193  A(107,103,113)        124.0647                                         !
 ! A194  A(101,104,105)        110.521                                          !
 ! A195  A(101,104,106)        108.9341                                         !
 ! A196  A(101,104,108)        107.7373                                         !
 ! A197  A(105,104,106)        108.3877                                         !
 ! A198  A(105,104,108)        112.8299                                         !
 ! A199  A(106,104,108)        108.3489                                         !
 ! A200  A(104,108,109)        117.0986                                         !
 ! A201  A(104,108,112)        119.9652                                         !
 ! A202  A(109,108,112)        122.8938                                         !
 ! A203  A(108,109,110)        119.8337                                         !
 ! A204  A(108,109,111)        114.9836                                         !
 ! A205  A(110,109,111)        115.948                                          !
 ! A206  A(103,113,114)        119.9193                                         !
 ! A207  A(103,113,115)        122.8628                                         !
 ! A208  A(114,113,115)        116.4844                                         !
 ! A209  A(113,115,116)        106.6692                                         !
 ! A210  A(113,115,117)        107.414                                          !
 ! A211  A(113,115,118)        110.8268                                         !
 ! A212  A(116,115,117)        110.2952                                         !
 ! A213  A(116,115,118)        108.9452                                         !
 ! A214  A(117,115,118)        112.5247                                         !
 ! A215  A(115,117,120)        121.5747                                         !
 ! A216  A(115,117,129)        115.6827                                         !
 ! A217  A(120,117,129)        122.7426                                         !
 ! A218  A(115,118,119)        106.7336                                         !
 ! A219  A(115,118,121)        111.9076                                         !
 ! A220  A(115,118,125)        109.8093                                         !
 ! A221  A(119,118,121)        108.5142                                         !
 ! A222  A(119,118,125)        108.9166                                         !
 ! A223  A(121,118,125)        110.8246                                         !
 ! A224  A(118,121,122)        110.9866                                         !
 ! A225  A(118,121,123)        110.1726                                         !
 ! A226  A(118,121,124)        112.5592                                         !
 ! A227  A(122,121,123)        107.3496                                         !
 ! A228  A(122,121,124)        107.894                                          !
 ! A229  A(123,121,124)        107.676                                          !
 ! A230  A(118,125,126)        110.5253                                         !
 ! A231  A(118,125,127)        110.2266                                         !
 ! A232  A(118,125,128)        112.0396                                         !
 ! A233  A(126,125,127)        107.8721                                         !
 ! A234  A(126,125,128)        107.7248                                         !
 ! A235  A(127,125,128)        108.3151                                         !
 ! A236  A(117,129,130)        121.4986                                         !
 ! A237  A(117,129,131)        121.9766                                         !
 ! A238  A(130,129,131)        115.7321                                         !
 ! A239  A(129,131,132)        108.1924                                         !
 ! A240  A(129,131,133)        106.9054                                         !
 ! A241  A(129,131,134)        111.1914                                         !
 ! A242  A(132,131,133)        109.7213                                         !
 ! A243  A(132,131,134)        108.1937                                         !
 ! A244  A(133,131,134)        112.5524                                         !
 ! A245  A(131,133,137)        116.5186                                         !
 ! A246  A(131,133,151)        122.7523                                         !
 ! A247  A(137,133,151)        120.7223                                         !
 ! A248  A(131,134,135)        108.5015                                         !
 ! A249  A(131,134,136)        105.3352                                         !
 ! A250  A(131,134,138)        115.0808                                         !
 ! A251  A(135,134,136)        107.3009                                         !
 ! A252  A(135,134,138)        110.7262                                         !
 ! A253  A(136,134,138)        109.5032                                         !
 ! A254  A(134,138,139)        110.4001                                         !
 ! A255  A(134,138,140)        110.1635                                         !
 ! A256  A(134,138,141)        112.7658                                         !
 ! A257  A(139,138,140)        107.1354                                         !
 ! A258  A(139,138,141)        107.6972                                         !
 ! A259  A(140,138,141)        108.4823                                         !
 ! A260  A(138,141,142)        109.3106                                         !
 ! A261  A(138,141,143)        109.9661                                         !
 ! A262  A(138,141,144)        112.8398                                         !
 ! A263  A(142,141,143)        106.3663                                         !
 ! A264  A(142,141,144)        109.177                                          !
 ! A265  A(143,141,144)        108.9714                                         !
 ! A266  A(141,144,145)        108.8857                                         !
 ! A267  A(141,144,146)        109.033                                          !
 ! A268  A(141,144,147)        110.5996                                         !
 ! A269  A(145,144,146)        106.5806                                         !
 ! A270  A(145,144,147)        113.9845                                         !
 ! A271  A(146,144,147)        107.5817                                         !
 ! A272  A(144,147,148)        109.9986                                         !
 ! A273  A(144,147,149)        109.5127                                         !
 ! A274  A(144,147,150)         83.8493                                         !
 ! A275  A(148,147,149)        105.9972                                         !
 ! A276  A(148,147,150)        121.3364                                         !
 ! A277  A(149,147,150)        122.8523                                         !
 ! D1    D(2,1,5,6)             74.9422                                         !
 ! D2    D(2,1,5,7)            -37.9776                                         !
 ! D3    D(2,1,5,8)           -164.221                                          !
 ! D4    D(3,1,5,6)            -47.1237                                         !
 ! D5    D(3,1,5,7)           -160.0435                                         !
 ! D6    D(3,1,5,8)             73.713                                          !
 ! D7    D(4,1,5,6)           -169.6389                                         !
 ! D8    D(4,1,5,7)             77.4414                                         !
 ! D9    D(4,1,5,8)            -48.8021                                         !
 ! D10   D(1,5,7,12)            29.1133                                         !
 ! D11   D(1,5,7,13)          -150.3722                                         !
 ! D12   D(6,5,7,12)           -83.27                                           !
 ! D13   D(6,5,7,13)            97.2446                                         !
 ! D14   D(8,5,7,12)           151.2094                                         !
 ! D15   D(8,5,7,13)           -28.2761                                         !
 ! D16   D(1,5,8,9)           -176.028                                          !
 ! D17   D(1,5,8,10)            63.0865                                         !
 ! D18   D(1,5,8,11)           -57.7599                                         !
 ! D19   D(6,5,8,9)            -57.7276                                         !
 ! D20   D(6,5,8,10)          -178.613                                          !
 ! D21   D(6,5,8,11)            60.5406                                         !
 ! D22   D(7,5,8,9)             66.0341                                         !
 ! D23   D(7,5,8,10)           -54.8514                                         !
 ! D24   D(7,5,8,11)          -175.6978                                         !
 ! D25   D(5,7,13,14)          -14.8783                                         !
 ! D26   D(5,7,13,15)         -174.8157                                         !
 ! D27   D(12,7,13,14)         165.6817                                         !
 ! D28   D(12,7,13,15)           5.7443                                         !
 ! D29   D(7,13,15,16)          39.4879                                         !
 ! D30   D(7,13,15,17)         -79.7605                                         !
 ! D31   D(7,13,15,18)         161.4759                                         !
 ! D32   D(14,13,15,16)       -121.7392                                         !
 ! D33   D(14,13,15,17)        119.0123                                         !
 ! D34   D(14,13,15,18)          0.2488                                         !
 ! D35   D(13,15,17,21)        -93.3718                                         !
 ! D36   D(13,15,17,27)         83.992                                          !
 ! D37   D(16,15,17,21)        148.728                                          !
 ! D38   D(16,15,17,27)        -33.9082                                         !
 ! D39   D(18,15,17,21)         26.3467                                         !
 ! D40   D(18,15,17,27)       -156.2896                                         !
 ! D41   D(13,15,18,19)       -165.703                                          !
 ! D42   D(13,15,18,20)         79.5433                                         !
 ! D43   D(13,15,18,22)        -39.3368                                         !
 ! D44   D(16,15,18,19)        -45.6103                                         !
 ! D45   D(16,15,18,20)       -160.364                                          !
 ! D46   D(16,15,18,22)         80.7559                                         !
 ! D47   D(17,15,18,19)         76.1222                                         !
 ! D48   D(17,15,18,20)        -38.6315                                         !
 ! D49   D(17,15,18,22)       -157.5117                                         !
 ! D50   D(15,17,27,28)         -5.134                                          !
 ! D51   D(15,17,27,29)       -168.2894                                         !
 ! D52   D(21,17,27,28)        172.1407                                         !
 ! D53   D(21,17,27,29)          8.9853                                         !
 ! D54   D(15,18,22,23)       -128.9681                                         !
 ! D55   D(15,18,22,26)         52.6488                                         !
 ! D56   D(19,18,22,23)         -4.8205                                         !
 ! D57   D(19,18,22,26)        176.7964                                         !
 ! D58   D(20,18,22,23)        112.0439                                         !
 ! D59   D(20,18,22,26)        -66.3392                                         !
 ! D60   D(18,22,23,24)       -173.8992                                         !
 ! D61   D(18,22,23,25)         -3.3331                                         !
 ! D62   D(26,22,23,24)          4.4769                                         !
 ! D63   D(26,22,23,25)        175.0429                                         !
 ! D64   D(17,27,29,30)        -54.1424                                         !
 ! D65   D(17,27,29,31)       -174.8059                                         !
 ! D66   D(17,27,29,32)         65.511                                          !
 ! D67   D(28,27,29,30)        141.8689                                         !
 ! D68   D(28,27,29,31)         21.2054                                         !
 ! D69   D(28,27,29,32)        -98.4777                                         !
 ! D70   D(27,29,31,35)        -21.8442                                         !
 ! D71   D(27,29,31,42)        162.2797                                         !
 ! D72   D(30,29,31,35)       -140.9457                                         !
 ! D73   D(30,29,31,42)         43.1782                                         !
 ! D74   D(32,29,31,35)         99.0431                                         !
 ! D75   D(32,29,31,42)        -76.8331                                         !
 ! D76   D(27,29,32,33)       -172.4813                                         !
 ! D77   D(27,29,32,34)        -56.581                                          !
 ! D78   D(27,29,32,36)         65.883                                          !
 ! D79   D(30,29,32,33)        -52.4157                                         !
 ! D80   D(30,29,32,34)         63.4845                                         !
 ! D81   D(30,29,32,36)       -174.0515                                         !
 ! D82   D(31,29,32,33)         69.4862                                         !
 ! D83   D(31,29,32,34)       -174.6135                                         !
 ! D84   D(31,29,32,36)        -52.1495                                         !
 ! D85   D(29,31,42,43)          8.4029                                         !
 ! D86   D(29,31,42,44)        160.8056                                         !
 ! D87   D(35,31,42,43)       -167.3772                                         !
 ! D88   D(35,31,42,44)        -14.9746                                         !
 ! D89   D(29,32,36,37)         85.4425                                         !
 ! D90   D(29,32,36,38)        -32.5637                                         !
 ! D91   D(29,32,36,39)       -155.182                                          !
 ! D92   D(33,32,36,37)        -36.4207                                         !
 ! D93   D(33,32,36,38)       -154.4269                                         !
 ! D94   D(33,32,36,39)         82.9548                                         !
 ! D95   D(34,32,36,37)       -154.9002                                         !
 ! D96   D(34,32,36,38)         87.0937                                         !
 ! D97   D(34,32,36,39)        -35.5246                                         !
 ! D98   D(32,36,39,40)        136.5792                                         !
 ! D99   D(32,36,39,41)        -44.5491                                         !
 ! D100  D(37,36,39,40)       -103.2128                                         !
 ! D101  D(37,36,39,41)         75.6589                                         !
 ! D102  D(38,36,39,40)         12.0956                                         !
 ! D103  D(38,36,39,41)       -169.0327                                         !
 ! D104  D(36,39,41,152)      -178.2926                                         !
 ! D105  D(40,39,41,152)         0.6383                                         !
 ! D106  D(31,42,44,45)         62.1181                                         !
 ! D107  D(31,42,44,46)        -56.9757                                         !
 ! D108  D(31,42,44,47)       -177.3928                                         !
 ! D109  D(43,42,44,45)       -145.0882                                         !
 ! D110  D(43,42,44,46)         95.818                                          !
 ! D111  D(43,42,44,47)        -24.5991                                         !
 ! D112  D(42,44,46,50)        -46.9704                                         !
 ! D113  D(42,44,46,61)        134.3975                                         !
 ! D114  D(45,44,46,50)       -164.2651                                         !
 ! D115  D(45,44,46,61)         17.1029                                         !
 ! D116  D(47,44,46,50)         72.8736                                         !
 ! D117  D(47,44,46,61)       -105.7584                                         !
 ! D118  D(42,44,47,48)         58.968                                          !
 ! D119  D(42,44,47,49)        -56.8612                                         !
 ! D120  D(42,44,47,51)       -179.5221                                         !
 ! D121  D(45,44,47,48)        177.3694                                         !
 ! D122  D(45,44,47,49)         61.5402                                         !
 ! D123  D(45,44,47,51)        -61.1207                                         !
 ! D124  D(46,44,47,48)        -60.103                                          !
 ! D125  D(46,44,47,49)       -175.9322                                         !
 ! D126  D(46,44,47,51)         61.407                                          !
 ! D127  D(44,46,61,62)         -9.3402                                         !
 ! D128  D(44,46,61,63)       -177.3552                                         !
 ! D129  D(50,46,61,62)        172.076                                          !
 ! D130  D(50,46,61,63)          4.0611                                         !
 ! D131  D(44,47,51,52)        -59.0407                                         !
 ! D132  D(44,47,51,53)         60.2685                                         !
 ! D133  D(44,47,51,57)       -176.2575                                         !
 ! D134  D(48,47,51,52)         61.7806                                         !
 ! D135  D(48,47,51,53)       -178.9101                                         !
 ! D136  D(48,47,51,57)        -55.4361                                         !
 ! D137  D(49,47,51,52)        178.8995                                         !
 ! D138  D(49,47,51,53)        -61.7912                                         !
 ! D139  D(49,47,51,57)         61.6828                                         !
 ! D140  D(47,51,53,54)         56.3481                                         !
 ! D141  D(47,51,53,55)        -64.7122                                         !
 ! D142  D(47,51,53,56)        175.7239                                         !
 ! D143  D(52,51,53,54)        175.5864                                         !
 ! D144  D(52,51,53,55)         54.526                                          !
 ! D145  D(52,51,53,56)        -65.0378                                         !
 ! D146  D(57,51,53,54)        -66.4496                                         !
 ! D147  D(57,51,53,55)        172.4901                                         !
 ! D148  D(57,51,53,56)         52.9262                                         !
 ! D149  D(47,51,57,58)        -63.2555                                         !
 ! D150  D(47,51,57,59)         56.9399                                         !
 ! D151  D(47,51,57,60)        177.1992                                         !
 ! D152  D(52,51,57,58)        179.4431                                         !
 ! D153  D(52,51,57,59)        -60.3615                                         !
 ! D154  D(52,51,57,60)         59.8977                                         !
 ! D155  D(53,51,57,58)         61.3223                                         !
 ! D156  D(53,51,57,59)       -178.4823                                         !
 ! D157  D(53,51,57,60)        -58.223                                          !
 ! D158  D(46,61,63,64)        -48.5366                                         !
 ! D159  D(46,61,63,65)       -167.9542                                         !
 ! D160  D(46,61,63,66)         71.5522                                         !
 ! D161  D(62,61,63,64)        142.6618                                         !
 ! D162  D(62,61,63,65)         23.2442                                         !
 ! D163  D(62,61,63,66)        -97.2494                                         !
 ! D164  D(61,63,65,69)        -24.9307                                         !
 ! D165  D(61,63,65,80)        156.7877                                         !
 ! D166  D(64,63,65,69)       -142.3284                                         !
 ! D167  D(64,63,65,80)         39.39                                           !
 ! D168  D(66,63,65,69)         95.221                                          !
 ! D169  D(66,63,65,80)        -83.0606                                         !
 ! D170  D(61,63,66,67)        -50.1208                                         !
 ! D171  D(61,63,66,68)         63.9654                                         !
 ! D172  D(61,63,66,70)       -171.4604                                         !
 ! D173  D(64,63,66,67)         68.9551                                         !
 ! D174  D(64,63,66,68)       -176.9587                                         !
 ! D175  D(64,63,66,70)        -52.3845                                         !
 ! D176  D(65,63,66,67)       -167.7926                                         !
 ! D177  D(65,63,66,68)        -53.7064                                         !
 ! D178  D(65,63,66,70)         70.8678                                         !
 ! D179  D(63,65,80,81)          6.9821                                         !
 ! D180  D(63,65,80,82)        166.1097                                         !
 ! D181  D(69,65,80,81)       -171.2327                                         !
 ! D182  D(69,65,80,82)        -12.105                                          !
 ! D183  D(63,66,70,71)        -64.3923                                         !
 ! D184  D(63,66,70,72)         56.2495                                         !
 ! D185  D(63,66,70,76)        177.9313                                         !
 ! D186  D(67,66,70,71)        175.5389                                         !
 ! D187  D(67,66,70,72)        -63.8193                                         !
 ! D188  D(67,66,70,76)         57.8624                                         !
 ! D189  D(68,66,70,71)         58.8575                                         !
 ! D190  D(68,66,70,72)        179.4993                                         !
 ! D191  D(68,66,70,76)        -58.819                                          !
 ! D192  D(66,70,72,73)         55.1174                                         !
 ! D193  D(66,70,72,74)        -64.9814                                         !
 ! D194  D(66,70,72,75)        175.4931                                         !
 ! D195  D(71,70,72,73)        176.6806                                         !
 ! D196  D(71,70,72,74)         56.5817                                         !
 ! D197  D(71,70,72,75)        -62.9437                                         !
 ! D198  D(76,70,72,73)        -66.2592                                         !
 ! D199  D(76,70,72,74)        173.642                                          !
 ! D200  D(76,70,72,75)         54.1165                                         !
 ! D201  D(66,70,76,77)        -66.1791                                         !
 ! D202  D(66,70,76,78)         54.4245                                         !
 ! D203  D(66,70,76,79)        174.734                                          !
 ! D204  D(71,70,76,77)        174.8257                                         !
 ! D205  D(71,70,76,78)        -64.5707                                         !
 ! D206  D(71,70,76,79)         55.7388                                         !
 ! D207  D(72,70,76,77)         57.4633                                         !
 ! D208  D(72,70,76,78)        178.067                                          !
 ! D209  D(72,70,76,79)        -61.6235                                         !
 ! D210  D(65,80,82,83)        -10.7174                                         !
 ! D211  D(65,80,82,84)       -128.5736                                         !
 ! D212  D(65,80,82,85)        108.2625                                         !
 ! D213  D(81,80,82,83)        149.4586                                         !
 ! D214  D(81,80,82,84)         31.6024                                         !
 ! D215  D(81,80,82,85)        -91.5615                                         !
 ! D216  D(80,82,84,87)        -22.8527                                         !
 ! D217  D(80,82,84,99)        156.3896                                         !
 ! D218  D(83,82,84,87)       -138.348                                          !
 ! D219  D(83,82,84,99)         40.8943                                         !
 ! D220  D(85,82,84,87)         99.0083                                         !
 ! D221  D(85,82,84,99)        -81.7494                                         !
 ! D222  D(80,82,85,86)        -53.1409                                         !
 ! D223  D(80,82,85,88)       -169.9054                                         !
 ! D224  D(80,82,85,91)         63.8987                                         !
 ! D225  D(83,82,85,86)         64.4353                                         !
 ! D226  D(83,82,85,88)        -52.3292                                         !
 ! D227  D(83,82,85,91)       -178.525                                          !
 ! D228  D(84,82,85,86)       -172.2563                                         !
 ! D229  D(84,82,85,88)         70.9792                                         !
 ! D230  D(84,82,85,91)        -55.2167                                         !
 ! D231  D(82,84,99,100)        16.4585                                         !
 ! D232  D(82,84,99,101)       165.899                                          !
 ! D233  D(87,84,99,100)      -164.307                                          !
 ! D234  D(87,84,99,101)       -14.8665                                         !
 ! D235  D(82,85,88,89)        176.2631                                         !
 ! D236  D(82,85,88,90)        -70.2346                                         !
 ! D237  D(82,85,88,95)         55.9392                                         !
 ! D238  D(86,85,88,89)         61.8638                                         !
 ! D239  D(86,85,88,90)        175.3661                                         !
 ! D240  D(86,85,88,95)        -58.4602                                         !
 ! D241  D(91,85,88,89)        -56.9492                                         !
 ! D242  D(91,85,88,90)         56.5531                                         !
 ! D243  D(91,85,88,95)       -177.2731                                         !
 ! D244  D(82,85,91,92)         68.3001                                         !
 ! D245  D(82,85,91,93)        -53.0434                                         !
 ! D246  D(82,85,91,94)       -172.3704                                         !
 ! D247  D(86,85,91,92)       -177.8632                                         !
 ! D248  D(86,85,91,93)         60.7932                                         !
 ! D249  D(86,85,91,94)        -58.5337                                         !
 ! D250  D(88,85,91,92)        -59.7728                                         !
 ! D251  D(88,85,91,93)        178.8837                                         !
 ! D252  D(88,85,91,94)         59.5567                                         !
 ! D253  D(85,88,95,96)        171.8293                                         !
 ! D254  D(85,88,95,97)         51.9328                                         !
 ! D255  D(85,88,95,98)        -68.0532                                         !
 ! D256  D(89,88,95,96)         52.3412                                         !
 ! D257  D(89,88,95,97)        -67.5553                                         !
 ! D258  D(89,88,95,98)        172.4587                                         !
 ! D259  D(90,88,95,96)        -62.9603                                         !
 ! D260  D(90,88,95,97)        177.1432                                         !
 ! D261  D(90,88,95,98)         57.1572                                         !
 ! D262  D(84,99,101,102)       53.8846                                         !
 ! D263  D(84,99,101,103)      -65.3342                                         !
 ! D264  D(84,99,101,104)      172.3734                                         !
 ! D265  D(100,99,101,102)    -156.6382                                         !
 ! D266  D(100,99,101,103)      84.1429                                         !
 ! D267  D(100,99,101,104)     -38.1495                                         !
 ! D268  D(99,101,103,107)     -26.7678                                         !
 ! D269  D(99,101,103,113)     155.1086                                         !
 ! D270  D(102,101,103,107)   -144.9865                                         !
 ! D271  D(102,101,103,113)     36.8899                                         !
 ! D272  D(104,101,103,107)     96.2794                                         !
 ! D273  D(104,101,103,113)    -81.8442                                         !
 ! D274  D(99,101,104,105)      65.674                                          !
 ! D275  D(99,101,104,106)     -53.3049                                         !
 ! D276  D(99,101,104,108)    -170.6369                                         !
 ! D277  D(102,101,104,105)   -175.9967                                         !
 ! D278  D(102,101,104,106)     65.0244                                         !
 ! D279  D(102,101,104,108)    -52.3076                                         !
 ! D280  D(103,101,104,105)    -56.4346                                         !
 ! D281  D(103,101,104,106)   -175.4135                                         !
 ! D282  D(103,101,104,108)     67.2545                                         !
 ! D283  D(101,103,113,114)      4.2095                                         !
 ! D284  D(101,103,113,115)    174.0468                                         !
 ! D285  D(107,103,113,114)   -173.8541                                         !
 ! D286  D(107,103,113,115)     -4.0168                                         !
 ! D287  D(101,104,108,109)   -123.4599                                         !
 ! D288  D(101,104,108,112)     54.2417                                         !
 ! D289  D(105,104,108,109)     -1.185                                          !
 ! D290  D(105,104,108,112)    176.5166                                         !
 ! D291  D(106,104,108,109)    118.8292                                         !
 ! D292  D(106,104,108,112)    -63.4692                                         !
 ! D293  D(104,108,109,110)     13.6793                                         !
 ! D294  D(104,108,109,111)    159.1355                                         !
 ! D295  D(112,108,109,110)   -163.9494                                         !
 ! D296  D(112,108,109,111)    -18.4931                                         !
 ! D297  D(103,113,115,116)     -2.3732                                         !
 ! D298  D(103,113,115,117)   -120.6272                                         !
 ! D299  D(103,113,115,118)    116.0838                                         !
 ! D300  D(114,113,115,116)    167.789                                          !
 ! D301  D(114,113,115,117)     49.5351                                         !
 ! D302  D(114,113,115,118)    -73.7539                                         !
 ! D303  D(113,115,117,120)    -34.9649                                         !
 ! D304  D(113,115,117,129)    145.0505                                         !
 ! D305  D(116,115,117,120)   -150.8467                                         !
 ! D306  D(116,115,117,129)     29.1687                                         !
 ! D307  D(118,115,117,120)     87.2755                                         !
 ! D308  D(118,115,117,129)    -92.7092                                         !
 ! D309  D(113,115,118,119)     59.7061                                         !
 ! D310  D(113,115,118,121)    178.2804                                         !
 ! D311  D(113,115,118,125)    -58.206                                          !
 ! D312  D(116,115,118,119)    176.7743                                         !
 ! D313  D(116,115,118,121)    -64.6515                                         !
 ! D314  D(116,115,118,125)     58.8622                                         !
 ! D315  D(117,115,118,119)    -60.5853                                         !
 ! D316  D(117,115,118,121)     57.9889                                         !
 ! D317  D(117,115,118,125)   -178.4974                                         !
 ! D318  D(115,117,129,130)      4.5888                                         !
 ! D319  D(115,117,129,131)    173.9548                                         !
 ! D320  D(120,117,129,130)   -175.3957                                         !
 ! D321  D(120,117,129,131)     -6.0296                                         !
 ! D322  D(115,118,121,122)     58.653                                          !
 ! D323  D(115,118,121,123)    177.416                                          !
 ! D324  D(115,118,121,124)    -62.392                                          !
 ! D325  D(119,118,121,122)    176.1652                                         !
 ! D326  D(119,118,121,123)    -65.0718                                         !
 ! D327  D(119,118,121,124)     55.1203                                         !
 ! D328  D(125,118,121,122)    -64.2868                                         !
 ! D329  D(125,118,121,123)     54.4762                                         !
 ! D330  D(125,118,121,124)    174.6682                                         !
 ! D331  D(115,118,125,126)    -64.0787                                         !
 ! D332  D(115,118,125,127)    176.7661                                         !
 ! D333  D(115,118,125,128)     56.0718                                         !
 ! D334  D(119,118,125,126)    179.3734                                         !
 ! D335  D(119,118,125,127)     60.2182                                         !
 ! D336  D(119,118,125,128)    -60.4761                                         !
 ! D337  D(121,118,125,126)     60.0671                                         !
 ! D338  D(121,118,125,127)    -59.0881                                         !
 ! D339  D(121,118,125,128)   -179.7823                                         !
 ! D340  D(117,129,131,132)    -36.1113                                         !
 ! D341  D(117,129,131,133)   -154.2187                                         !
 ! D342  D(117,129,131,134)     82.5682                                         !
 ! D343  D(130,129,131,132)    133.8296                                         !
 ! D344  D(130,129,131,133)     15.7222                                         !
 ! D345  D(130,129,131,134)   -107.491                                          !
 ! D346  D(129,131,133,137)    163.9136                                         !
 ! D347  D(129,131,133,151)    -17.0266                                         !
 ! D348  D(132,131,133,137)     46.8105                                         !
 ! D349  D(132,131,133,151)   -134.1296                                         !
 ! D350  D(134,131,133,137)    -73.7214                                         !
 ! D351  D(134,131,133,151)    105.3385                                         !
 ! D352  D(129,131,134,135)     59.727                                          !
 ! D353  D(129,131,134,136)    -54.9146                                         !
 ! D354  D(129,131,134,138)   -175.6165                                         !
 ! D355  D(132,131,134,135)    178.4057                                         !
 ! D356  D(132,131,134,136)     63.764                                          !
 ! D357  D(132,131,134,138)    -56.9378                                         !
 ! D358  D(133,131,134,135)    -60.188                                          !
 ! D359  D(133,131,134,136)   -174.8296                                         !
 ! D360  D(133,131,134,138)     64.4685                                         !
 ! D361  D(131,134,138,139)     47.8833                                         !
 ! D362  D(131,134,138,140)    -70.2441                                         !
 ! D363  D(131,134,138,141)    168.4007                                         !
 ! D364  D(135,134,138,139)    171.3674                                         !
 ! D365  D(135,134,138,140)     53.24                                           !
 ! D366  D(135,134,138,141)    -68.1152                                         !
 ! D367  D(136,134,138,139)    -70.5111                                         !
 ! D368  D(136,134,138,140)    171.3615                                         !
 ! D369  D(136,134,138,141)     50.0063                                         !
 ! D370  D(134,138,141,142)    -56.8969                                         !
 ! D371  D(134,138,141,143)     59.5245                                         !
 ! D372  D(134,138,141,144)   -178.583                                          !
 ! D373  D(139,138,141,142)     65.1566                                         !
 ! D374  D(139,138,141,143)   -178.422                                          !
 ! D375  D(139,138,141,144)    -56.5295                                         !
 ! D376  D(140,138,141,142)   -179.2018                                         !
 ! D377  D(140,138,141,143)    -62.7804                                         !
 ! D378  D(140,138,141,144)     59.1121                                         !
 ! D379  D(138,141,144,145)   -174.4222                                         !
 ! D380  D(138,141,144,146)    -58.5059                                         !
 ! D381  D(138,141,144,147)     59.5948                                         !
 ! D382  D(142,141,144,145)     63.8163                                         !
 ! D383  D(142,141,144,146)    179.7325                                         !
 ! D384  D(142,141,144,147)    -62.1668                                         !
 ! D385  D(143,141,144,145)    -51.9707                                         !
 ! D386  D(143,141,144,146)     63.9455                                         !
 ! D387  D(143,141,144,147)   -177.9538                                         !
 ! D388  D(141,144,147,148)   -172.7228                                         !
 ! D389  D(141,144,147,149)     71.166                                          !
 ! D390  D(141,144,147,150)    -51.5636                                         !
 ! D391  D(145,144,147,148)     64.205                                          !
 ! D392  D(145,144,147,149)    -51.9062                                         !
 ! D393  D(145,144,147,150)   -174.6357                                         !
 ! D394  D(146,144,147,148)    -53.7392                                         !
 ! D395  D(146,144,147,149)   -169.8505                                         !
 ! D396  D(146,144,147,150)     67.42                                           !
 --------------------------------------------------------------------------------
 Symmetry turned off by external request.
 Stoichiometry    C45H81N12O14(1+)
 Framework group  C1[X(C45H81N12O14)]
 Deg. of freedom   450
 Full point group                 C1      NOp   1
                          Input orientation:                          
 ---------------------------------------------------------------------
[...]
 Alpha virt. eigenvalues --    1.80212   1.80430   1.80659   1.81011   1.81461
 Alpha virt. eigenvalues --    1.81822   1.82147   1.82433   1.82703   1.82966
 Alpha virt. eigenvalues --    1.83122   1.83361   1.83654   1.84093   1.84138
 Alpha virt. eigenvalues --    1.84721   1.85153   1.85316   1.85635   1.85772
 Alpha virt. eigenvalues --    1.85939   1.86090   1.86486   1.86917   1.87071
 Alpha virt. eigenvalues --    1.87542   1.87579   1.88193   1.88708   1.89086
 Alpha virt. eigenvalues --    1.89740   1.89967   1.90067   1.90364   1.90634
 Alpha virt. eigenvalues --    1.90940   1.91257   1.91589   1.91799   1.91939
 Alpha virt. eigenvalues --    1.92223   1.92469   1.92897   1.93098   1.93311
 Alpha virt. eigenvalues --    1.93782   1.93853   1.94286   1.94493   1.94604
 Alpha virt. eigenvalues --    1.94819   1.95345   1.95714   1.95888   1.95982
 Alpha virt. eigenvalues --    1.96346   1.96805   1.96828   1.97000   1.97252
 Alpha virt. eigenvalues --    1.97525   1.97887   1.98000   1.98406   1.98638
 Alpha virt. eigenvalues --    1.99039   1.99271   1.99411   2.00057   2.00637
 Alpha virt. eigenvalues --    2.00933   2.01371   2.01677   2.02037   2.02267
 Alpha virt. eigenvalues --    2.03019   2.03346   2.03479   2.03756   2.04290
 Alpha virt. eigenvalues --    2.05008   2.05375   2.05482   2.05820   2.06060
 Alpha virt. eigenvalues --    2.06412   2.06573   2.07080   2.07610   2.09038
 Alpha virt. eigenvalues --    2.09329   2.09427   2.09565   2.09855   2.10378
 Alpha virt. eigenvalues --    2.11137   2.11593   2.12086   2.12881   2.13331
 Alpha virt. eigenvalues --    2.13688   2.14116   2.14282   2.14684   2.15226
 Alpha virt. eigenvalues --    2.15546   2.16057   2.16101   2.16682   2.17263
 Alpha virt. eigenvalues --    2.17416   2.17517   2.18381   2.18576   2.18847
 Alpha virt. eigenvalues --    2.19811   2.19893   2.20356   2.20679   2.21482
 Alpha virt. eigenvalues --    2.21787   2.22144   2.22573   2.22852   2.23083
 Alpha virt. eigenvalues --    2.23616   2.23939   2.24200   2.24818   2.25047
 Alpha virt. eigenvalues --    2.25923   2.26332   2.26448   2.27152   2.27278
 Alpha virt. eigenvalues --    2.28342   2.28807   2.28999   2.29682   2.29828
 Alpha virt. eigenvalues --    2.30089   2.30579   2.30966   2.31256   2.31429
 Alpha virt. eigenvalues --    2.32616   2.32743   2.33195   2.33688   2.34283
 Alpha virt. eigenvalues --    2.34976   2.35102   2.35521   2.35869   2.36910
 Alpha virt. eigenvalues --    2.37154   2.37539   2.37790   2.38576   2.38902
 Alpha virt. eigenvalues --    2.39296   2.39700   2.40063   2.40692   2.40936
 Alpha virt. eigenvalues --    2.41488   2.41603   2.41840   2.42254   2.42570
 Alpha virt. eigenvalues --    2.42695   2.43590   2.43687   2.44303   2.44586
 Alpha virt. eigenvalues --    2.45204   2.45492   2.45844   2.46274   2.47312
 Alpha virt. eigenvalues --    2.47644   2.48061   2.49199   2.49236   2.49558
 Alpha virt. eigenvalues --    2.49921   2.50186   2.50264   2.50555   2.51024
 Alpha virt. eigenvalues --    2.51887   2.52962   2.54043   2.54444   2.54535
 Alpha virt. eigenvalues --    2.54967   2.55139   2.55446   2.56846   2.56994
 Alpha virt. eigenvalues --    2.57294   2.57938   2.58207   2.59218   2.60312
 Alpha virt. eigenvalues --    2.60565   2.60831   2.61860   2.62095   2.62488
 Alpha virt. eigenvalues --    2.63007   2.63176   2.63313   2.64497   2.65021
 Alpha virt. eigenvalues --    2.65246   2.66046   2.66686   2.67201   2.67907
 Alpha virt. eigenvalues --    2.68605   2.69183   2.69655   2.70143   2.70791
 Alpha virt. eigenvalues --    2.71751   2.73606   2.73930   2.74334   2.74738
 Alpha virt. eigenvalues --    2.75068   2.75693   2.76320   2.77003   2.78074
 Alpha virt. eigenvalues --    2.78249   2.78899   2.79898   2.80493   2.81185
 Alpha virt. eigenvalues --    2.82692   2.83787   2.84847   2.86870   2.87195
 Alpha virt. eigenvalues --    2.88087   2.88659   2.89036   2.89910   2.90734
 Alpha virt. eigenvalues --    2.91176   2.92203   2.92978   2.93246   2.93946
 Alpha virt. eigenvalues --    2.94160   2.94747   2.97135   2.97591   2.97776
 Alpha virt. eigenvalues --    2.98553   2.99731   3.00574   3.01601   3.03306
 Alpha virt. eigenvalues --    3.05409   3.08021   3.08529   3.10539   3.11898
 Alpha virt. eigenvalues --    3.13176   3.15045   3.15577   3.71736   3.72837
 Alpha virt. eigenvalues --    3.74092   3.78290   3.82874   3.85837   3.92181
 Alpha virt. eigenvalues --    3.93687   3.95117   3.95658   3.98808   4.00262
 Alpha virt. eigenvalues --    4.01575   4.02147   4.03713   4.03978   4.04641
 Alpha virt. eigenvalues --    4.05595   4.08769   4.09451   4.10167   4.10877
 Alpha virt. eigenvalues --    4.11467   4.11880   4.13606   4.13809   4.14256
 Alpha virt. eigenvalues --    4.15610   4.16435   4.16955   4.19629   4.19985
 Alpha virt. eigenvalues --    4.21497   4.21651   4.22864   4.23401   4.24066
 Alpha virt. eigenvalues --    4.24906   4.25146   4.25937   4.27839   4.27990
 Alpha virt. eigenvalues --    4.28423   4.29670   4.30629   4.34303   4.35948
 Alpha virt. eigenvalues --    4.36603   4.38058   4.38193   4.39616   4.41112
 Alpha virt. eigenvalues --    4.41418   4.44846   4.45080   4.45783   4.46749
 Alpha virt. eigenvalues --    4.48060   4.49400   4.51358   4.53300   4.54695
 Alpha virt. eigenvalues --    4.56394   4.59174   4.60101   4.60918   4.61567
 Alpha virt. eigenvalues --    4.63023   4.65175   4.66540   4.67611
          Condensed to atoms (all electrons):
 Mulliken charges:
               1
     1  N   -0.786736
     2  H    0.418792
     3  H    0.401495
     4  H    0.463601
     5  C   -0.112253
     6  H    0.223870
     7  C    0.648971
     8  C   -0.487300
     9  H    0.215901
    10  H    0.197588
    11  H    0.180665
    12  O   -0.544116
    13  N   -0.624712
    14  H    0.400544
    15  C   -0.060105
    16  H    0.189648
    17  C    0.631037
    18  C   -0.408093
    19  H    0.173275
    20  H    0.234790
    21  O   -0.518625
    22  C    0.624222
    23  N   -0.736466
    24  H    0.363235
    25  H    0.359057
    26  O   -0.543595
    27  N   -0.620342
    28  H    0.387778
    29  C   -0.066006
    30  H    0.187899
    31  C    0.638735
    32  C   -0.283036
    33  H    0.172712
    34  H    0.192945
    35  O   -0.540721
    36  C   -0.421559
    37  H    0.271147
    38  H    0.178248
    39  C    0.607588
    40  O   -0.537863
    41  O   -0.516413
    42  N   -0.607102
    43  H    0.339564
    44  C   -0.029457
    45  H    0.172816
    46  C    0.644819
    47  C   -0.296375
    48  H    0.151415
    49  H    0.151675
    50  O   -0.573655
    51  C   -0.084365
    52  H    0.142200
    53  C   -0.451382
    54  H    0.147104
    55  H    0.141180
    56  H    0.158000
    57  C   -0.445145
    58  H    0.146297
    59  H    0.147457
    60  H    0.153793
    61  N   -0.606202
    62  H    0.365306
    63  C   -0.052905
    64  H    0.176540
    65  C    0.611678
    66  C   -0.264999
    67  H    0.152798
    68  H    0.150884
    69  O   -0.538786
    70  C   -0.094371
    71  H    0.166178
    72  C   -0.449700
    73  H    0.141910
    74  H    0.149212
    75  H    0.160251
    76  C   -0.479461
    77  H    0.117293
    78  H    0.129359
    79  H    0.163720
    80  N   -0.614058
    81  H    0.365009
    82  C   -0.096125
    83  H    0.188305
    84  C    0.648763
    85  C   -0.061616
    86  H    0.144606
    87  O   -0.551371
    88  C   -0.294418
    89  H    0.147582
    90  H    0.170148
    91  C   -0.480380
    92  H    0.191129
    93  H    0.134497
    94  H    0.150060
    95  C   -0.466553
    96  H    0.156601
    97  H    0.161786
    98  H    0.128852
    99  N   -0.607752
   100  H    0.348872
   101  C   -0.053844
   102  H    0.203568
   103  C    0.616479
   104  C   -0.371631
   105  H    0.151610
   106  H    0.192299
   107  O   -0.533076
   108  C    0.581396
   109  N   -0.733375
   110  H    0.336842
   111  H    0.372684
   112  O   -0.510993
   113  N   -0.601511
   114  H    0.367744
   115  C   -0.068449
   116  H    0.178501
   117  C    0.622654
   118  C   -0.073570
   119  H    0.139896
   120  O   -0.555091
   121  C   -0.464255
   122  H    0.148711
   123  H    0.158324
   124  H    0.153733
   125  C   -0.457282
   126  H    0.151367
   127  H    0.144892
   128  H    0.172702
   129  N   -0.609820
   130  H    0.360695
   131  C   -0.076055
   132  H    0.180402
   133  C    0.608588
   134  C   -0.252843
   135  H    0.153251
   136  H    0.152442
   137  O   -0.556918
   138  C   -0.298523
   139  H    0.160428
   140  H    0.149457
   141  C   -0.259083
   142  H    0.127823
   143  H    0.139365
   144  C   -0.142696
   145  H    0.126122
   146  H    0.145836
   147  N   -0.719632
   148  H    0.306723
   149  H    0.296802
   150  H    0.427783
   151  O   -0.448007
   152  H    0.430253
 Sum of Mulliken charges =   1.00000
 Mulliken charges with hydrogens summed into heavy atoms:
               1
     1  N    0.497153
     5  C    0.111617
     7  C    0.648971
     8  C    0.106854
    12  O   -0.544116
    13  N   -0.224168
    15  C    0.129542
    17  C    0.631037
    18  C   -0.000028
    21  O   -0.518625
    22  C    0.624222
    23  N   -0.014174
    26  O   -0.543595
    27  N   -0.232565
    29  C    0.121893
    31  C    0.638735
    32  C    0.082621
    35  O   -0.540721
    36  C    0.027836
    39  C    0.607588
    40  O   -0.537863
    41  O   -0.086160
    42  N   -0.267539
    44  C    0.143358
    46  C    0.644819
    47  C    0.006714
    50  O   -0.573655
    51  C    0.057835
    53  C   -0.005098
    57  C    0.002403
    61  N   -0.240897
    63  C    0.123635
    65  C    0.611678
    66  C    0.038682
    69  O   -0.538786
    70  C    0.071807
    72  C    0.001674
    76  C   -0.069088
    80  N   -0.249049
    82  C    0.092180
    84  C    0.648763
    85  C    0.082991
    87  O   -0.551371
    88  C    0.023311
    91  C   -0.004694
    95  C   -0.019314
    99  N   -0.258880
   101  C    0.149724
   103  C    0.616479
   104  C   -0.027723
   107  O   -0.533076
   108  C    0.581396
   109  N   -0.023848
   112  O   -0.510993
   113  N   -0.233767
   115  C    0.110052
   117  C    0.622654
   118  C    0.066327
   120  O   -0.555091
   121  C   -0.003487
   125  C    0.011680
   129  N   -0.249124
   131  C    0.104346
   133  C    0.608588
   134  C    0.052850
   137  O   -0.129135
   138  C    0.011361
   141  C    0.008105
   144  C    0.129262
   147  N   -0.116107
   151  O   -0.448007
 Electronic spatial extent (au):  <R**2>=         124921.5358
 Charge=              1.0000 electrons
 Dipole moment (field-independent basis, Debye):
    X=             -8.8797    Y=            -17.3124    Z=              0.9119  Tot=             19.4782
 Quadrupole moment (field-independent basis, Debye-Ang):
   XX=           -203.9310   YY=           -309.6120   ZZ=           -319.2305
   XY=             79.3417   XZ=             96.5926   YZ=              9.2955
 Traceless Quadrupole moment (field-independent basis, Debye-Ang):
   XX=             73.6601   YY=            -32.0208   ZZ=            -41.6393
   XY=             79.3417   XZ=             96.5926   YZ=              9.2955
 Octapole moment (field-independent basis, Debye-Ang**2):
  XXX=           -813.1948  YYY=           -727.0339  ZZZ=           -384.7500  XYY=          -1540.0022
  XXY=           -687.4047  XXZ=            529.3611  XZZ=            -28.1240  YZZ=             -3.4170
  YYZ=           -657.4058  XYZ=           -384.2261
 Hexadecapole moment (field-independent basis, Debye-Ang**3):
 XXXX=         -65026.9870 YYYY=         -15851.2350 ZZZZ=         -45624.9099 XXXY=         -13661.4242
 XXXZ=         -13557.5207 YYYX=          -8202.2005 YYYZ=          -4297.7522 ZZZX=         -16810.7445
 ZZZY=          -7027.1384 XXYY=         -14155.9249 XXZZ=         -12831.2674 YYZZ=         -12467.3099
 XXYZ=          -2465.3163 YYXZ=          -7242.3915 ZZXY=          -4963.6752
 N-N= 1.189918649874D+04 E-N=-3.185607525265D+04  KE= 3.441831495686D+03
 Unable to Open any file for archive entry.
 1\1\GINC-AMR-048\SP\RB3LYP\6-31G(d)\C45H81N12O14(1+)\KENGMITH\04-Jul-2
 022\0\\# B3LYP/6-31G* empiricaldispersion=gd3 guess=read geom=check no
 symm integral(ultrafinegrid)\\Candidate Structure: Conf:535 Charge cal
 c in gas phase\\1,1\N,0,-3.6003645175,-3.6612930844,0.8349740378\H,0,-
 2.8277965586,-3.7532211393,0.1545692294\H,0,-3.2331385931,-3.634632322
 2,1.7886451922\H,0,-4.0846579508,-2.7431015042,0.6227072775\C,0,-4.548
 1378546,-4.8074575276,0.5859813268\H,0,-4.0697713706,-5.7047977744,0.9
 942921368\C,0,-4.539351248,-4.9397615748,-0.9552776257\C,0,-5.89403771
 41,-4.5561922724,1.2565284031\H,0,-6.5458677236,-5.4249536,1.127229015
 \H,0,-6.3843478171,-3.6752907616,0.8336553668\H,0,-5.7667633247,-4.405
 0704345,2.3334860826\O,0,-3.507984259,-4.6032271205,-1.554871923\N,0,-
 5.6524589138,-5.3988207832,-1.5276166135\H,0,-6.3797935441,-5.85840307
 06,-0.9698447005\C,0,-5.7439035183,-5.6788681832,-2.9687012955\H,0,-4.
 8002530867,-6.1348673393,-3.2883917372\C,0,-5.9655645045,-4.3240167718
 ,-3.7060019837\C,0,-6.9404649323,-6.6047667723,-3.2592907945\H,0,-6.82
 92892963,-6.9939757022,-4.2753933423\H,0,-7.8419051417,-5.9809640772,-
 3.2566212195\O,0,-7.0941931732,-3.9224212341,-3.9713692344\C,0,-7.1607
 856094,-7.7119490556,-2.236251906\N,0,-7.2885021895,-8.9687692577,-2.7
 150602807\H,0,-7.5286716391,-9.7076845679,-2.0668248905\H,0,-7.2919906
 599,-9.1780305895,-3.7022370869\O,0,-7.2488569025,-7.4632847463,-1.026
 7709731\N,0,-4.8350306584,-3.6323649024,-3.9634817369\H,0,-3.935834875
 2,-3.958559131,-3.6162231497\C,0,-4.8659937029,-2.2500244225,-4.412663
 2583\H,0,-5.5022644617,-2.176297253,-5.3009427618\C,0,-3.4180580182,-1
 .8518534561,-4.7234628812\C,0,-5.440972536,-1.3099890919,-3.3189456507
 \H,0,-5.577400018,-0.3041479676,-3.7275062567\H,0,-6.4332234231,-1.690
 3839781,-3.0624583666\O,0,-2.4766723491,-2.4651988297,-4.2226412924\C,
 0,-4.5174115468,-1.2425196567,-2.082713157\H,0,-3.7485745845,-0.477720
 2407,-2.262126293\H,0,-4.0018696884,-2.1908367869,-1.9186882601\C,0,-5
 .2162987596,-0.8726978102,-0.8125735806\O,0,-5.0401979086,-1.410284870
 4,0.2854922231\O,0,-6.068304504,0.1413468067,-0.9451168679\N,0,-3.2498
 26175,-0.7509389662,-5.497227431\H,0,-4.0629889367,-0.1883799033,-5.71
 3539922\C,0,-1.9555264662,-0.06634703,-5.4917905565\H,0,-1.2096687764,
 -0.771841545,-5.8670971936\C,0,-1.6285921103,0.3349229125,-4.040168860
 7\C,0,-2.0302003203,1.1784694188,-6.3878602185\H,0,-2.8248970902,1.825
 3697297,-5.9907914251\H,0,-2.336037266,0.8594004987,-7.3937644424\O,0,
 -2.4831985489,0.8844039161,-3.3366430971\C,0,-0.7271274561,1.995231709
 6,-6.4861636779\H,0,-0.4519106187,2.3196822575,-5.4726833695\C,0,0.439
 0936615,1.1764291721,-7.0594246061\H,0,0.1804578907,0.7630612423,-8.04
 27966139\H,0,0.728177316,0.3443234083,-6.4083346643\H,0,1.3260168486,1
 .8065704698,-7.1858697235\C,0,-0.9742711513,3.2521996217,-7.3329310392
 \H,0,-1.2441476944,2.9834056111,-8.3623039916\H,0,-1.7871989981,3.8608
 29789,-6.9199841845\H,0,-0.0752354206,3.8764835701,-7.377355309\N,0,-0
 .3768749042,0.076793113,-3.6228447328\H,0,0.2673485811,-0.4791343612,-
 4.1759913314\C,0,0.065450408,0.3454963698,-2.2650603639\H,0,-0.2389364
 313,1.3630569787,-2.0039526511\C,0,1.5953129014,0.2099195235,-2.274407
 1366\C,0,-0.5754987449,-0.6636055578,-1.2765348655\H,0,-1.6493073601,-
 0.65864891,-1.490010903\H,0,-0.2038711599,-1.6632376605,-1.5366834594\
 O,0,2.1590153697,-0.4889018253,-3.116390687\C,0,-0.3732873024,-0.39688
 47901,0.2272058914\H,0,0.6907689713,-0.4762067112,0.4782046273\C,0,-0.
 8635586596,0.9952428596,0.6540275048\H,0,-1.9133841798,1.142925052,0.3
 682193158\H,0,-0.2868989899,1.8061386262,0.1966824501\H,0,-0.778540522
 5,1.1204429001,1.738525292\C,0,-1.1236603032,-1.4721842498,1.029417383
 1\H,0,-2.2059875619,-1.3596321854,0.8711963866\H,0,-0.8168090104,-2.48
 10774134,0.7196435212\H,0,-0.9289988826,-1.3731895513,2.103333482\N,0,
 2.2367938555,0.8736475545,-1.2870294431\H,0,1.7021420909,1.3206270531,
 -0.5518026889\C,0,3.6338917768,0.6373407131,-0.9504041139\H,0,3.943101
 4669,-0.2609988718,-1.4906710482\C,0,3.6724424003,0.3908556022,0.56378
 41557\C,0,4.5260302492,1.8368026126,-1.3961590836\H,0,4.2767107932,1.9
 644549561,-2.4592171986\O,0,2.7774230758,0.8085080246,1.3007275361\C,0
 ,6.040051812,1.5623941728,-1.2999475204\H,0,6.5494236512,2.4477678442,
 -1.7014647642\H,0,6.3350130661,1.5124342357,-0.2448956422\C,0,4.162767
 3055,3.1248117222,-0.642704635\H,0,4.432277677,3.0494789916,0.41575128
 12\H,0,3.0928409749,3.3481517436,-0.7157652222\H,0,4.707295515,3.97436
 52816,-1.0689470842\C,0,6.5299534306,0.3308403092,-2.0741118032\H,0,7.
 624183429,0.2838738993,-2.078093776\H,0,6.1910657585,0.3581275982,-3.1
 165538369\H,0,6.1703848789,-0.6170741019,-1.6510901731\N,0,4.73068759,
 -0.3212134255,1.0417337842\H,0,5.5350460438,-0.4196440098,0.4365747181
 \C,0,4.9744356848,-0.3125599079,2.4732896228\H,0,4.0525923537,-0.61882
 95679,2.9714571286\C,0,5.3584313665,1.1144274918,2.9312614205\C,0,6.08
 24515642,-1.3100146854,2.861057349\H,0,7.0454915116,-0.9986430739,2.43
 79012799\H,0,5.8302032638,-2.2961138884,2.4569578022\O,0,5.8900308291,
 1.9108667884,2.1595139296\C,0,6.1085699334,-1.4075556003,4.3900829571\
 N,0,7.2891926105,-1.1302998886,5.0092134183\H,0,8.0325629244,-0.678653
 1796,4.4949723401\H,0,7.210507875,-0.8784912789,5.9891618798\O,0,5.083
 3047736,-1.6828711516,5.0038441113\N,0,5.0985563758,1.3785197123,4.232
 220719\H,0,4.7432247641,0.6444941798,4.8366963497\C,0,5.5012094723,2.6
 147369641,4.8816793101\H,0,6.0530844744,3.1957536601,4.1361440328\C,0,
 6.421477261,2.240028679,6.0530625164\C,0,4.2596234474,3.4289049335,5.3
 373669662\H,0,3.7023317335,2.7906593033,6.0385012036\O,0,6.2420337728,
 1.213575175,6.7123270975\C,0,4.657447494,4.721110372,6.0650850201\H,0,
 5.2759520417,5.3605749046,5.4213144922\H,0,3.7636546261,5.2942665103,6
 .3326735479\H,0,5.2170447807,4.5292319774,6.9856414288\C,0,3.365976813
 2,3.7370566744,4.1263448174\H,0,3.8934910301,4.3830741209,3.4134392229
 \H,0,2.4593540378,4.2614762815,4.448238932\H,0,3.067264481,2.828532195
 9,3.5947243375\N,0,7.4298938437,3.1057917097,6.3067240911\H,0,7.519732
 2241,3.9783185359,5.7978105442\C,0,8.301814934,2.9549442447,7.45874848
 58\H,0,7.7010312634,2.5758151115,8.2961221663\C,0,8.8386197209,4.35042
 85405,7.7973071883\C,0,9.4334441516,1.9358058094,7.1749259508\H,0,10.0
 199003055,2.2957460707,6.3201609508\H,0,8.9243857471,1.0181999163,6.85
 77773604\O,0,9.3930109957,4.5026066945,9.016844819\C,0,10.3452420368,1
 .628925746,8.3673942073\H,0,9.7455305871,1.4176014381,9.2637857266\H,0
 ,10.9742300766,2.4992441903,8.596739619\C,0,11.2573767827,0.4212811493
 ,8.1214937237\H,0,10.6405406618,-0.4567951665,7.8759476702\H,0,11.8958
 964812,0.6054182406,7.2467335198\C,0,12.1459879577,0.0914450756,9.3266
 703685\H,0,12.8425841322,-0.7181800856,9.0462014604\H,0,12.7633968062,
 0.9668471869,9.5664563471\N,0,11.3249345094,-0.2094171729,10.507372529
 6\H,0,11.9189024247,-0.3086232013,11.3284881098\H,0,10.8657178474,-1.1
 112501737,10.3820875084\H,0,9.3465820106,3.6754949782,9.5257610908\O,0
 ,8.7930010638,5.2747457357,7.0201666637\H,0,-6.4578468808,0.3343452663
 ,-0.0700943744\\Version=ES64L-G16RevC.01\HF=-3473.9902898\RMSD=7.072e-
 09\Dipole=-5.7715378,-6.024557,-0.7105281\Quadrupole=54.7645147,-23.80
 66925,-30.9578222,58.9885854,71.814226,6.9110038\PG=C01 [X(C45H81N12O1
 4)]\\@
 The archive entry for this job was punched.


 MARY HAD A LITTLE LAMB
      HIS FEET WERE BLACK AS SOOT,
           AND EVERYWHERE THAT MARY WENT
                HIS SOOTY FOOT HE PUT.

                    -- NONAME
 Job cpu time:       0 days  0 hours  6 minutes 54.5 seconds.
 Elapsed time:       0 days  0 hours  1 minutes 44.6 seconds.
 File lengths (MBytes):  RWF=    896 Int=      0 D2E=      0 Chk=    144 Scr=     16
 Normal termination of Gaussian 16 at Mon Jul  4 20:52:21 2022.
