 Entering Gaussian System, Link 0=/opt/software/Gaussian/g16-AVX2-C.01/g16/g16
 Input=charge-conf-123.com
 Output=charge-conf-123.log
 Initial command:
 /opt/software/Gaussian/g16-AVX2-C.01/g16/l1.exe "/mnt/gs18/scratch/users/kengmith/Gau-70488.inp" -scrdir="/mnt/gs18/scratch/users/kengmith/"
 Entering Link 1 = /opt/software/Gaussian/g16-AVX2-C.01/g16/l1.exe PID=     70516.
  
 Copyright (c) 1988-2019, Gaussian, Inc.  All Rights Reserved.
  
 This is part of the Gaussian(R) 16 program.  It is based on
 the Gaussian(R) 09 system (copyright 2009, Gaussian, Inc.),
 the Gaussian(R) 03 system (copyright 2003, Gaussian, Inc.),
 the Gaussian(R) 98 system (copyright 1998, Gaussian, Inc.),
 the Gaussian(R) 94 system (copyright 1995, Gaussian, Inc.),
 the Gaussian 92(TM) system (copyright 1992, Gaussian, Inc.),
 the Gaussian 90(TM) system (copyright 1990, Gaussian, Inc.),
 the Gaussian 88(TM) system (copyright 1988, Gaussian, Inc.),
 the Gaussian 86(TM) system (copyright 1986, Carnegie Mellon
 University), and the Gaussian 82(TM) system (copyright 1983,
 Carnegie Mellon University). Gaussian is a federally registered
 trademark of Gaussian, Inc.
  
 This software contains proprietary and confidential information,
 including trade secrets, belonging to Gaussian, Inc.
  
 This software is provided under written license and may be
 used, copied, transmitted, or stored only in accord with that
 written license.
  
 The following legend is applicable only to US Government
 contracts under FAR:
  
                    RESTRICTED RIGHTS LEGEND
  
 Use, reproduction and disclosure by the US Government is
 subject to restrictions as set forth in subparagraphs (a)
 and (c) of the Commercial Computer Software - Restricted
 Rights clause in FAR 52.227-19.
  
 Gaussian, Inc.
 340 Quinnipiac St., Bldg. 40, Wallingford CT 06492
  
  
 ---------------------------------------------------------------
 Warning -- This program may not be used in any manner that
 competes with the business of Gaussian, Inc. or will provide
 assistance to any competitor of Gaussian, Inc.  The licensee
 of this program is prohibited from giving any competitor of
 Gaussian, Inc. access to this program.  By using this program,
 the user acknowledges that Gaussian, Inc. is engaged in the
 business of creating and licensing software in the field of
 computational chemistry and represents and warrants to the
 licensee that it is not a competitor of Gaussian, Inc. and that
 it will not use this program in any manner prohibited above.
 ---------------------------------------------------------------
  

 Cite this work as:
 Gaussian 16, Revision C.01,
 M. J. Frisch, G. W. Trucks, H. B. Schlegel, G. E. Scuseria, 
 M. A. Robb, J. R. Cheeseman, G. Scalmani, V. Barone, 
 G. A. Petersson, H. Nakatsuji, X. Li, M. Caricato, A. V. Marenich, 
 J. Bloino, B. G. Janesko, R. Gomperts, B. Mennucci, H. P. Hratchian, 
 J. V. Ortiz, A. F. Izmaylov, J. L. Sonnenberg, D. Williams-Young, 
 F. Ding, F. Lipparini, F. Egidi, J. Goings, B. Peng, A. Petrone, 
 T. Henderson, D. Ranasinghe, V. G. Zakrzewski, J. Gao, N. Rega, 
 G. Zheng, W. Liang, M. Hada, M. Ehara, K. Toyota, R. Fukuda, 
 J. Hasegawa, M. Ishida, T. Nakajima, Y. Honda, O. Kitao, H. Nakai, 
 T. Vreven, K. Throssell, J. A. Montgomery, Jr., J. E. Peralta, 
 F. Ogliaro, M. J. Bearpark, J. J. Heyd, E. N. Brothers, K. N. Kudin, 
 V. N. Staroverov, T. A. Keith, R. Kobayashi, J. Normand, 
 K. Raghavachari, A. P. Rendell, J. C. Burant, S. S. Iyengar, 
 J. Tomasi, M. Cossi, J. M. Millam, M. Klene, C. Adamo, R. Cammi, 
 J. W. Ochterski, R. L. Martin, K. Morokuma, O. Farkas, 
 J. B. Foresman, and D. J. Fox, Gaussian, Inc., Wallingford CT, 2019.
 
 ******************************************
 Gaussian 16:  ES64L-G16RevC.01  3-Jul-2019
                27-May-2022 
 ******************************************
 %mem=8gb
 %nproc=4
 Will use up to    4 processors via shared memory.
 %chk=conf-123.chk
 -------------------------------------------------------------------
 # B3LYP/6-31G* guess=read geom=check nosymm integral(ultrafinegrid)
 -------------------------------------------------------------------
 1/29=2,38=1,172=1/1;
 2/12=2,15=1,40=1/2;
 3/5=1,6=6,7=1,11=2,14=-4,25=1,30=1,74=-5,75=-5,116=-2/1,2,3;
 4/5=1/1;
 5/5=2,38=6/2;
 6/7=2,8=2,9=2,10=2,28=1/1;
 99/5=1,9=1/99;
 ------------------------------------------------------
 Candidate Structure: Conf:123 Charge calc in gas phase
 ------------------------------------------------------
 Structure from the checkpoint file:  "conf-123.chk"
 Charge =  1 Multiplicity = 1
 Redundant internal coordinates found in file.  (old form).
 N,0,-7.1501997422,2.1042792333,2.0803193844
 H,0,-6.8112955154,2.1349331157,1.1192902952
 H,0,-7.0643956707,3.0449892087,2.4603198247
 C,0,-6.3636168897,1.1478701238,2.8490359542
 H,0,-6.675997719,1.2376168244,3.8986482921
 C,0,-4.8482834901,1.3681459179,2.7432679125
 C,0,-6.6904461427,-0.2694071841,2.3170163005
 H,0,-7.7366932791,-0.4912157346,2.5613334196
 H,0,-6.6062139669,-0.2671121647,1.2276957407
 O,0,-4.2387444999,1.2367411756,1.6872294751
 C,0,-5.8101191401,-1.4182872013,2.7911049884
 N,0,-5.3901843044,-1.3876814121,4.1527158077
 H,0,-6.036268486,-0.9431216495,4.8011810977
 H,0,-3.6625142153,-0.6912394396,3.9994692199
 O,0,-5.4254423676,-2.3071546391,2.0659610598
 N,0,-4.1720990009,1.6319425533,3.9089208015
 H,0,-4.6699968661,1.8072954139,4.7706385045
 C,0,-2.7204920814,1.7166152584,3.9050965028
 H,0,-2.3920619701,2.5191514307,3.2332406539
 C,0,-2.1910425274,0.4085891167,3.3242840211
 C,0,-2.1818332951,1.9964979203,5.3431298011
 H,0,-2.6582653485,1.2625981657,6.0115374926
 O,0,-2.7268556629,-0.7401828953,3.633496264
 C,0,-2.6076857005,3.4184681645,5.7830372688
 H,0,-3.6626907201,3.5902647814,5.5326260089
 H,0,-2.0390398746,4.1493338259,5.1920707579
 C,0,-0.6596523171,1.8109724547,5.4355415341
 H,0,-0.1314350609,2.4622827295,4.7282112543
 H,0,-0.3110740511,2.0683695166,6.438230901
 H,0,-0.3512054967,0.7779512789,5.2471305233
 C,0,-2.4144016379,3.6943891009,7.2789141284
 H,0,-2.7836359369,4.6939698632,7.5281526625
 H,0,-2.9664600048,2.9734038021,7.8937950752
 H,0,-1.3623671332,3.6538263036,7.5765265497
 N,0,-1.1374265549,0.396316352,2.5658723325
 H,0,-0.6278838334,1.2609459098,2.3440515443
 C,0,-0.5251561186,-0.7725019613,1.9158756721
 H,0,-0.3638987117,-1.5490838924,2.6716355727
 C,0,0.8363776972,-0.2353483227,1.4130350254
 C,0,-1.4061256031,-1.3113182276,0.7752815768
 H,0,-0.9193043794,-2.1699867384,0.3045032648
 H,0,-2.3777914165,-1.6345071496,1.1562291416
 H,0,-1.5624091218,-0.5407706766,0.0151597037
 O,0,1.0832967682,0.9731751609,1.5194059617
 N,0,1.65905368,-1.1293367161,0.8480804312
 H,0,1.496186105,-2.1184521236,1.0140825643
 C,0,3.0587372374,-0.8181597501,0.5089603347
 H,0,3.44351622,-0.1447820977,1.286029255
 C,0,3.1924734053,-0.0980923906,-0.8614002427
 C,0,3.8700147588,-2.133312655,0.5028922097
 H,0,3.7190997471,-2.6170722479,-0.4699724908
 O,0,3.8891980542,-0.572707987,-1.7635345773
 C,0,5.3583850927,-1.8857632643,0.7231957294
 H,0,5.7615990658,-1.2473894015,-0.066990795
 H,0,5.9086765504,-2.8334855862,0.6970960427
 H,0,5.5312928587,-1.4159252496,1.6975673817
 O,0,3.3085483087,-2.9484825668,1.5455819784
 H,0,3.7565426454,-3.808138743,1.5174716456
 N,0,2.5183238998,1.0628062578,-0.9800605852
 H,0,2.0422649682,1.4756641794,-0.1793088423
 C,0,2.5333758498,1.8445967156,-2.2160843947
 H,0,2.5314468656,1.1447418648,-3.0581552711
 C,0,3.8055563846,2.7163455438,-2.280241631
 C,0,1.2862330365,2.7370140238,-2.2634676148
 H,0,0.3901305294,2.1088604319,-2.3019272677
 H,0,1.3243733058,3.3434797545,-3.1783403678
 O,0,3.7959665668,3.9068211173,-1.9641212888
 O,0,1.1869317415,3.5325789842,-1.0946063101
 H,0,1.9792669455,4.1056251616,-1.1299083746
 N,0,4.9196347899,2.0780387066,-2.7241391638
 H,0,4.8783835747,1.0651757946,-2.7936590346
 C,0,6.1949686511,2.7786574279,-2.808365927
 H,0,6.3978391398,3.3297397269,-1.8863774945
 H,0,6.9865392374,2.0370746971,-2.9490217829
 C,0,6.2798752134,3.8109599254,-3.9485381064
 O,0,7.0957008012,4.7188069209,-3.9006933749
 N,0,5.4300019006,3.5907725368,-4.9925742485
 H,0,4.6823779108,2.922759301,-4.8521568767
 C,0,5.1667138827,4.6105124154,-5.9917098036
 H,0,5.6216992642,5.542811345,-5.6399762476
 C,0,3.6559814986,4.7941482261,-6.0711025861
 C,0,5.7446878738,4.2729098402,-7.3883805982
 H,0,5.2509418366,3.3665249719,-7.7673239489
 H,0,5.4751617045,5.0893739065,-8.0698447049
 O,0,2.8368366938,4.0323944766,-5.5937518996
 C,0,7.2634667782,4.0692260531,-7.3722975123
 H,0,7.7451632671,4.9475151033,-6.9215625091
 H,0,7.5196762496,3.2168953574,-6.73562508
 C,0,7.8400192703,3.8314990201,-8.7733789771
 H,0,7.6955504357,4.7248401516,-9.3970097463
 H,0,7.2858506824,3.0202938522,-9.2713816146
 C,0,9.33162046,3.4751158893,-8.7619549485
 H,0,9.7166681072,3.512311663,-9.79654621
 H,0,9.8802097527,4.2391561922,-8.19646572
 N,0,9.5577321001,2.1841376497,-8.0961407665
 H,0,10.5572469321,2.0289786438,-7.9761043385
 H,0,9.2290061553,1.4311737061,-8.7003894367
 O,0,3.3147095464,5.8900219984,-6.7742789422
 H,0,2.3393533792,5.9143047035,-6.8052507311
 H,0,-5.141990963,-2.3254309918,4.4669229182
 Recover connectivity data from disk.
                           ----------------------------
                           !    Current Parameters    !
                           ! (Angstroms and Degrees)  !
 --------------------------                            --------------------------
 ! Name  Definition              Value                                          !
 --------------------------------------------------------------------------------
 ! R1    R(1,2)                  1.0195                                         !
 ! R2    R(1,3)                  1.0182                                         !
 ! R3    R(1,4)                  1.4575                                         !
 ! R4    R(4,5)                  1.0988                                         !
 ! R5    R(4,6)                  1.5349                                         !
 ! R6    R(4,7)                  1.5487                                         !
 ! R7    R(6,10)                 1.2264                                         !
 ! R8    R(6,16)                 1.3732                                         !
 ! R9    R(7,8)                  1.0971                                         !
 ! R10   R(7,9)                  1.0926                                         !
 ! R11   R(7,11)                 1.523                                          !
 ! R12   R(11,12)                1.4252                                         !
 ! R13   R(11,15)                1.2099                                         !
 ! R14   R(12,13)                1.0176                                         !
 ! R15   R(12,14)                1.8691                                         !
 ! R16   R(12,100)               1.0197                                         !
 ! R17   R(16,17)                1.0105                                         !
 ! R18   R(16,18)                1.4541                                         !
 ! R19   R(18,19)                1.097                                          !
 ! R20   R(18,20)                1.526                                          !
 ! R21   R(18,21)                1.5609                                         !
 ! R22   R(20,23)                1.3048                                         !
 ! R23   R(20,35)                1.2982                                         !
 ! R24   R(21,22)                1.1011                                         !
 ! R25   R(21,24)                1.5482                                         !
 ! R26   R(21,27)                1.5362                                         !
 ! R27   R(24,25)                1.0978                                         !
 ! R28   R(24,26)                1.0985                                         !
 ! R29   R(24,31)                1.5333                                         !
 ! R30   R(27,28)                1.0971                                         !
 ! R31   R(27,29)                1.0923                                         !
 ! R32   R(27,30)                1.0944                                         !
 ! R33   R(31,32)                1.0944                                         !
 ! R34   R(31,33)                1.0967                                         !
 ! R35   R(31,34)                1.0941                                         !
 ! R36   R(35,36)                1.0278                                         !
 ! R37   R(35,37)                1.4709                                         !
 ! R38   R(37,38)                1.0956                                         !
 ! R39   R(37,39)                1.5476                                         !
 ! R40   R(37,40)                1.5386                                         !
 ! R41   R(39,44)                1.2381                                         !
 ! R42   R(39,45)                1.3398                                         !
 ! R43   R(40,41)                1.0936                                         !
 ! R44   R(40,42)                1.0926                                         !
 ! R45   R(40,43)                1.0936                                         !
 ! R46   R(45,46)                1.0161                                         !
 ! R47   R(45,47)                1.4734                                         !
 ! R48   R(47,48)                1.0979                                         !
 ! R49   R(47,49)                1.5538                                         !
 ! R50   R(47,50)                1.5453                                         !
 ! R51   R(49,52)                1.2347                                         !
 ! R52   R(49,59)                1.3477                                         !
 ! R53   R(50,51)                1.0969                                         !
 ! R54   R(50,53)                1.5248                                         !
 ! R55   R(50,57)                1.4377                                         !
 ! R56   R(53,54)                1.0929                                         !
 ! R57   R(53,55)                1.0962                                         !
 ! R58   R(53,56)                1.0955                                         !
 ! R59   R(57,58)                0.9698                                         !
 ! R60   R(59,60)                1.019                                          !
 ! R61   R(59,61)                1.4626                                         !
 ! R62   R(61,62)                1.0949                                         !
 ! R63   R(61,63)                1.5435                                         !
 ! R64   R(61,64)                1.5343                                         !
 ! R65   R(63,67)                1.2318                                         !
 ! R66   R(63,70)                1.3585                                         !
 ! R67   R(64,65)                1.095                                          !
 ! R68   R(64,66)                1.0983                                         !
 ! R69   R(64,68)                1.4174                                         !
 ! R70   R(68,69)                0.9785                                         !
 ! R71   R(70,71)                1.0161                                         !
 ! R72   R(70,72)                1.4575                                         !
 ! R73   R(72,73)                1.0931                                         !
 ! R74   R(72,74)                1.0938                                         !
 ! R75   R(72,75)                1.5404                                         !
 ! R76   R(75,76)                1.2215                                         !
 ! R77   R(75,77)                1.3641                                         !
 ! R78   R(77,78)                1.0124                                         !
 ! R79   R(77,79)                1.4517                                         !
 ! R80   R(79,80)                1.0954                                         !
 ! R81   R(79,81)                1.5239                                         !
 ! R82   R(79,82)                1.5488                                         !
 ! R83   R(81,85)                1.2162                                         !
 ! R84   R(81,98)                1.3461                                         !
 ! R85   R(82,83)                1.0995                                         !
 ! R86   R(82,84)                1.0971                                         !
 ! R87   R(82,86)                1.5325                                         !
 ! R88   R(86,87)                1.0984                                         !
 ! R89   R(86,88)                1.0943                                         !
 ! R90   R(86,89)                1.5336                                         !
 ! R91   R(89,90)                1.099                                          !
 ! R92   R(89,91)                1.1014                                         !
 ! R93   R(89,92)                1.5336                                         !
 ! R94   R(92,93)                1.1045                                         !
 ! R95   R(92,94)                1.0975                                         !
 ! R96   R(92,95)                1.4701                                         !
 ! R97   R(95,96)                1.0186                                         !
 ! R98   R(95,97)                1.0199                                         !
 ! R99   R(98,99)                0.9761                                         !
 ! A1    A(2,1,3)              107.2185                                         !
 ! A2    A(2,1,4)              109.7245                                         !
 ! A3    A(3,1,4)              111.3426                                         !
 ! A4    A(1,4,5)              107.2649                                         !
 ! A5    A(1,4,6)              113.7206                                         !
 ! A6    A(1,4,7)              107.7841                                         !
 ! A7    A(5,4,6)              109.5588                                         !
 ! A8    A(5,4,7)              110.0536                                         !
 ! A9    A(6,4,7)              108.4212                                         !
 ! A10   A(4,6,10)             122.3196                                         !
 ! A11   A(4,6,16)             117.0794                                         !
 ! A12   A(10,6,16)            120.4515                                         !
 ! A13   A(4,7,8)              108.046                                          !
 ! A14   A(4,7,9)              108.9236                                         !
 ! A15   A(4,7,11)             117.4776                                         !
 ! A16   A(8,7,9)              107.2169                                         !
 ! A17   A(8,7,11)             109.2324                                         !
 ! A18   A(9,7,11)             105.508                                          !
 ! A19   A(7,11,12)            116.8394                                         !
 ! A20   A(7,11,15)            123.4619                                         !
 ! A21   A(12,11,15)           119.6487                                         !
 ! A22   A(11,12,13)           115.5376                                         !
 ! A23   A(11,12,14)           101.6555                                         !
 ! A24   A(11,12,100)          110.2652                                         !
 ! A25   A(13,12,14)           118.4462                                         !
 ! A26   A(13,12,100)          111.0966                                         !
 ! A27   A(14,12,100)           98.2189                                         !
 ! A28   A(6,16,17)            120.9693                                         !
 ! A29   A(6,16,18)            120.0362                                         !
 ! A30   A(17,16,18)           118.9471                                         !
 ! A31   A(16,18,19)           110.0661                                         !
 ! A32   A(16,18,20)           107.3048                                         !
 ! A33   A(16,18,21)           110.6418                                         !
 ! A34   A(19,18,20)           106.8647                                         !
 ! A35   A(19,18,21)           109.2539                                         !
 ! A36   A(20,18,21)           112.6202                                         !
 ! A37   A(18,20,23)           121.4675                                         !
 ! A38   A(18,20,35)           120.7994                                         !
 ! A39   A(23,20,35)           117.6068                                         !
 ! A40   A(18,21,22)           106.8836                                         !
 ! A41   A(18,21,24)           109.3625                                         !
 ! A42   A(18,21,27)           112.0678                                         !
 ! A43   A(22,21,24)           108.7042                                         !
 ! A44   A(22,21,27)           108.1635                                         !
 ! A45   A(24,21,27)           111.4925                                         !
 ! A46   A(21,24,25)           110.075                                          !
 ! A47   A(21,24,26)           108.4109                                         !
 ! A48   A(21,24,31)           114.0671                                         !
 ! A49   A(25,24,26)           105.7016                                         !
 ! A50   A(25,24,31)           108.3908                                         !
 ! A51   A(26,24,31)           109.8674                                         !
 ! A52   A(21,27,28)           111.5061                                         !
 ! A53   A(21,27,29)           110.0575                                         !
 ! A54   A(21,27,30)           112.5129                                         !
 ! A55   A(28,27,29)           107.3556                                         !
 ! A56   A(28,27,30)           108.2812                                         !
 ! A57   A(29,27,30)           106.8887                                         !
 ! A58   A(24,31,32)           110.1218                                         !
 ! A59   A(24,31,33)           111.4214                                         !
 ! A60   A(24,31,34)           112.3284                                         !
 ! A61   A(32,31,33)           107.6354                                         !
 ! A62   A(32,31,34)           107.2383                                         !
 ! A63   A(33,31,34)           107.8884                                         !
 ! A64   A(20,35,36)           121.3629                                         !
 ! A65   A(20,35,37)           127.1202                                         !
 ! A66   A(36,35,37)           111.5144                                         !
 ! A67   A(35,37,38)           108.6446                                         !
 ! A68   A(35,37,39)           103.5317                                         !
 ! A69   A(35,37,40)           111.5632                                         !
 ! A70   A(38,37,39)           109.9177                                         !
 ! A71   A(38,37,40)           110.3299                                         !
 ! A72   A(39,37,40)           112.6069                                         !
 ! A73   A(37,39,44)           119.1004                                         !
 ! A74   A(37,39,45)           116.4613                                         !
 ! A75   A(44,39,45)           124.4079                                         !
 ! A76   A(37,40,41)           109.8284                                         !
 ! A77   A(37,40,42)           110.7521                                         !
 ! A78   A(37,40,43)           110.5078                                         !
 ! A79   A(41,40,42)           108.2844                                         !
 ! A80   A(41,40,43)           108.5202                                         !
 ! A81   A(42,40,43)           108.8857                                         !
 ! A82   A(39,45,46)           118.8302                                         !
 ! A83   A(39,45,47)           122.6439                                         !
 ! A84   A(46,45,47)           113.2946                                         !
 ! A85   A(45,47,48)           107.4317                                         !
 ! A86   A(45,47,49)           112.4964                                         !
 ! A87   A(45,47,50)           108.6567                                         !
 ! A88   A(48,47,49)           108.049                                          !
 ! A89   A(48,47,50)           109.9249                                         !
 ! A90   A(49,47,50)           110.2285                                         !
 ! A91   A(47,49,52)           120.9851                                         !
 ! A92   A(47,49,59)           115.7087                                         !
 ! A93   A(52,49,59)           123.3021                                         !
 ! A94   A(47,50,51)           107.8539                                         !
 ! A95   A(47,50,53)           111.9454                                         !
 ! A96   A(47,50,57)           105.9432                                         !
 ! A97   A(51,50,53)           109.5133                                         !
 ! A98   A(51,50,57)           109.8429                                         !
 ! A99   A(53,50,57)           111.6211                                         !
 ! A100  A(50,53,54)           110.5166                                         !
 ! A101  A(50,53,55)           110.255                                          !
 ! A102  A(50,53,56)           110.6222                                         !
 ! A103  A(54,53,55)           107.6114                                         !
 ! A104  A(54,53,56)           109.5319                                         !
 ! A105  A(55,53,56)           108.2244                                         !
 ! A106  A(50,57,58)           107.5284                                         !
 ! A107  A(49,59,60)           120.8995                                         !
 ! A108  A(49,59,61)           121.9853                                         !
 ! A109  A(60,59,61)           116.8943                                         !
 ! A110  A(59,61,62)           107.954                                          !
 ! A111  A(59,61,63)           110.2119                                         !
 ! A112  A(59,61,64)           109.1863                                         !
 ! A113  A(62,61,63)           109.2976                                         !
 ! A114  A(62,61,64)           110.2791                                         !
 ! A115  A(63,61,64)           109.887                                          !
 ! A116  A(61,63,67)           121.9215                                         !
 ! A117  A(61,63,70)           115.0943                                         !
 ! A118  A(67,63,70)           122.9791                                         !
 ! A119  A(61,64,65)           109.4276                                         !
 ! A120  A(61,64,66)           108.5831                                         !
 ! A121  A(61,64,68)           110.9745                                         !
 ! A122  A(65,64,66)           108.4166                                         !
 ! A123  A(65,64,68)           107.0743                                         !
 ! A124  A(66,64,68)           112.2983                                         !
 ! A125  A(64,68,69)           104.0184                                         !
 ! A126  A(63,70,71)           117.2207                                         !
 ! A127  A(63,70,72)           120.7017                                         !
 ! A128  A(71,70,72)           120.7124                                         !
 ! A129  A(70,72,73)           110.8534                                         !
 ! A130  A(70,72,74)           108.3465                                         !
 ! A131  A(70,72,75)           114.4017                                         !
 ! A132  A(73,72,74)           108.419                                          !
 ! A133  A(73,72,75)           106.0349                                         !
 ! A134  A(74,72,75)           108.6202                                         !
 ! A135  A(72,75,76)           120.3908                                         !
 ! A136  A(72,75,77)           115.0868                                         !
 ! A137  A(76,75,77)           124.476                                          !
 ! A138  A(75,77,78)           117.4161                                         !
 ! A139  A(75,77,79)           121.7605                                         !
 ! A140  A(78,77,79)           115.1526                                         !
 ! A141  A(77,79,80)           107.549                                          !
 ! A142  A(77,79,81)           107.4754                                         !
 ! A143  A(77,79,82)           113.569                                          !
 ! A144  A(80,79,81)           109.0221                                         !
 ! A145  A(80,79,82)           108.6679                                         !
 ! A146  A(81,79,82)           110.4406                                         !
 ! A147  A(79,81,85)           124.8743                                         !
 ! A148  A(79,81,98)           112.1271                                         !
 ! A149  A(85,81,98)           122.9703                                         !
 ! A150  A(79,82,83)           108.8391                                         !
 ! A151  A(79,82,84)           107.8329                                         !
 ! A152  A(79,82,86)           112.9145                                         !
 ! A153  A(83,82,84)           106.8031                                         !
 ! A154  A(83,82,86)           109.8221                                         !
 ! A155  A(84,82,86)           110.4205                                         !
 ! A156  A(82,86,87)           109.4293                                         !
 ! A157  A(82,86,88)           109.9789                                         !
 ! A158  A(82,86,89)           112.5571                                         !
 ! A159  A(87,86,88)           106.3418                                         !
 ! A160  A(87,86,89)           109.5094                                         !
 ! A161  A(88,86,89)           108.8311                                         !
 ! A162  A(86,89,90)           110.0589                                         !
 ! A163  A(86,89,91)           109.7601                                         !
 ! A164  A(86,89,92)           113.2572                                         !
 ! A165  A(90,89,91)           106.0194                                         !
 ! A166  A(90,89,92)           108.7214                                         !
 ! A167  A(91,89,92)           108.7577                                         !
 ! A168  A(89,92,93)           108.9199                                         !
 ! A169  A(89,92,94)           109.1609                                         !
 ! A170  A(89,92,95)           110.9187                                         !
 ! A171  A(93,92,94)           106.5545                                         !
 ! A172  A(93,92,95)           113.5898                                         !
 ! A173  A(94,92,95)           107.5244                                         !
 ! A174  A(92,95,96)           109.7599                                         !
 ! A175  A(92,95,97)           109.2954                                         !
 ! A176  A(96,95,97)           105.8813                                         !
 ! A177  A(81,98,99)           106.8673                                         !
 ! D1    D(2,1,4,5)            173.074                                          !
 ! D2    D(2,1,4,6)             51.7765                                         !
 ! D3    D(2,1,4,7)            -68.4502                                         !
 ! D4    D(3,1,4,5)             54.5377                                         !
 ! D5    D(3,1,4,6)            -66.7599                                         !
 ! D6    D(3,1,4,7)            173.0135                                         !
 ! D7    D(1,4,6,10)           -64.6958                                         !
 ! D8    D(1,4,6,16)           119.7327                                         !
 ! D9    D(5,4,6,10)           175.2953                                         !
 ! D10   D(5,4,6,16)            -0.2762                                         !
 ! D11   D(7,4,6,10)            55.1708                                         !
 ! D12   D(7,4,6,16)          -120.4007                                         !
 ! D13   D(1,4,7,8)            -66.6275                                         !
 ! D14   D(1,4,7,9)             49.5267                                         !
 ! D15   D(1,4,7,11)           169.3211                                         !
 ! D16   D(5,4,7,8)             50.0448                                         !
 ! D17   D(5,4,7,9)            166.199                                          !
 ! D18   D(5,4,7,11)           -74.0066                                         !
 ! D19   D(6,4,7,8)            169.8603                                         !
 ! D20   D(6,4,7,9)            -73.9855                                         !
 ! D21   D(6,4,7,11)            45.8089                                         !
 ! D22   D(4,6,16,17)           -8.7691                                         !
 ! D23   D(4,6,16,18)          173.7629                                         !
 ! D24   D(10,6,16,17)         175.5719                                         !
 ! D25   D(10,6,16,18)          -1.8961                                         !
 ! D26   D(4,7,11,12)           38.638                                          !
 ! D27   D(4,7,11,15)         -138.7751                                         !
 ! D28   D(8,7,11,12)          -84.8146                                         !
 ! D29   D(8,7,11,15)           97.7723                                         !
 ! D30   D(9,7,11,12)          160.2162                                         !
 ! D31   D(9,7,11,15)          -17.1969                                         !
 ! D32   D(7,11,12,13)          30.6271                                         !
 ! D33   D(7,11,12,14)         -98.9844                                         !
 ! D34   D(7,11,12,100)        157.6149                                         !
 ! D35   D(15,11,12,13)       -151.856                                          !
 ! D36   D(15,11,12,14)         78.5324                                         !
 ! D37   D(15,11,12,100)       -24.8683                                         !
 ! D38   D(6,16,18,19)          60.2359                                         !
 ! D39   D(6,16,18,20)         -55.6964                                         !
 ! D40   D(6,16,18,21)        -178.9167                                         !
 ! D41   D(17,16,18,19)       -117.2831                                         !
 ! D42   D(17,16,18,20)        126.7846                                         !
 ! D43   D(17,16,18,21)          3.5643                                         !
 ! D44   D(16,18,20,23)        -40.7256                                         !
 ! D45   D(16,18,20,35)        143.4573                                         !
 ! D46   D(19,18,20,23)       -158.7579                                         !
 ! D47   D(19,18,20,35)         25.4249                                         !
 ! D48   D(21,18,20,23)         81.2682                                         !
 ! D49   D(21,18,20,35)        -94.5489                                         !
 ! D50   D(16,18,21,22)         50.0701                                         !
 ! D51   D(16,18,21,24)        -67.4383                                         !
 ! D52   D(16,18,21,27)        168.4014                                         !
 ! D53   D(19,18,21,22)        171.3987                                         !
 ! D54   D(19,18,21,24)         53.8903                                         !
 ! D55   D(19,18,21,27)        -70.27                                           !
 ! D56   D(20,18,21,22)        -70.017                                          !
 ! D57   D(20,18,21,24)        172.4746                                         !
 ! D58   D(20,18,21,27)         48.3143                                         !
 ! D59   D(18,20,35,36)          0.6006                                         !
 ! D60   D(18,20,35,37)       -178.7764                                         !
 ! D61   D(23,20,35,36)       -175.3736                                         !
 ! D62   D(23,20,35,37)          5.2494                                         !
 ! D63   D(18,21,24,25)         44.915                                          !
 ! D64   D(18,21,24,26)        -70.2562                                         !
 ! D65   D(18,21,24,31)        166.9955                                         !
 ! D66   D(22,21,24,25)        -71.4433                                         !
 ! D67   D(22,21,24,26)        173.3855                                         !
 ! D68   D(22,21,24,31)         50.6372                                         !
 ! D69   D(27,21,24,25)        169.4119                                         !
 ! D70   D(27,21,24,26)         54.2407                                         !
 ! D71   D(27,21,24,31)        -68.5076                                         !
 ! D72   D(18,21,27,28)         57.8263                                         !
 ! D73   D(18,21,27,29)        176.8512                                         !
 ! D74   D(18,21,27,30)        -64.0634                                         !
 ! D75   D(22,21,27,28)        175.3959                                         !
 ! D76   D(22,21,27,29)        -65.5792                                         !
 ! D77   D(22,21,27,30)         53.5062                                         !
 ! D78   D(24,21,27,28)        -65.1382                                         !
 ! D79   D(24,21,27,29)         53.8867                                         !
 ! D80   D(24,21,27,30)        172.9721                                         !
 ! D81   D(21,24,31,32)       -176.9987                                         !
 ! D82   D(21,24,31,33)        -57.636                                          !
 ! D83   D(21,24,31,34)         63.5511                                         !
 ! D84   D(25,24,31,32)        -53.9972                                         !
 ! D85   D(25,24,31,33)         65.3654                                         !
 ! D86   D(25,24,31,34)       -173.4475                                         !
 ! D87   D(26,24,31,32)         61.0512                                         !
 ! D88   D(26,24,31,33)       -179.5862                                         !
 ! D89   D(26,24,31,34)        -58.3991                                         !
 ! D90   D(20,35,37,38)        -51.5541                                         !
 ! D91   D(20,35,37,39)       -168.3622                                         !
 ! D92   D(20,35,37,40)         70.2893                                         !
 ! D93   D(36,35,37,38)        129.0178                                         !
 ! D94   D(36,35,37,39)         12.2096                                         !
 ! D95   D(36,35,37,40)       -109.1389                                         !
 ! D96   D(35,37,39,44)         -6.2793                                         !
 ! D97   D(35,37,39,45)        175.64                                           !
 ! D98   D(38,37,39,44)       -122.1887                                         !
 ! D99   D(38,37,39,45)         59.7306                                         !
 ! D100  D(40,37,39,44)        114.3643                                         !
 ! D101  D(40,37,39,45)        -63.7164                                         !
 ! D102  D(35,37,40,41)        179.2796                                         !
 ! D103  D(35,37,40,42)        -61.1644                                         !
 ! D104  D(35,37,40,43)         59.585                                          !
 ! D105  D(38,37,40,41)        -59.8559                                         !
 ! D106  D(38,37,40,42)         59.7001                                         !
 ! D107  D(38,37,40,43)       -179.5505                                         !
 ! D108  D(39,37,40,41)         63.3615                                         !
 ! D109  D(39,37,40,42)       -177.0826                                         !
 ! D110  D(39,37,40,43)        -56.3331                                         !
 ! D111  D(37,39,45,46)        -17.7744                                         !
 ! D112  D(37,39,45,47)       -170.4856                                         !
 ! D113  D(44,39,45,46)        164.2582                                         !
 ! D114  D(44,39,45,47)         11.5471                                         !
 ! D115  D(39,45,47,48)         35.4936                                         !
 ! D116  D(39,45,47,49)        -83.2915                                         !
 ! D117  D(39,45,47,50)        154.3762                                         !
 ! D118  D(46,45,47,48)       -118.5749                                         !
 ! D119  D(46,45,47,49)        122.64                                           !
 ! D120  D(46,45,47,50)          0.3077                                         !
 ! D121  D(45,47,49,52)       -122.54                                           !
 ! D122  D(45,47,49,59)         58.1736                                         !
 ! D123  D(48,47,49,52)        119.037                                          !
 ! D124  D(48,47,49,59)        -60.2494                                         !
 ! D125  D(50,47,49,52)         -1.0996                                         !
 ! D126  D(50,47,49,59)        179.614                                          !
 ! D127  D(45,47,50,51)         82.4954                                         !
 ! D128  D(45,47,50,53)       -156.9659                                         !
 ! D129  D(45,47,50,57)        -35.0789                                         !
 ! D130  D(48,47,50,51)       -160.2011                                         !
 ! D131  D(48,47,50,53)        -39.6624                                         !
 ! D132  D(48,47,50,57)         82.2246                                         !
 ! D133  D(49,47,50,51)        -41.2022                                         !
 ! D134  D(49,47,50,53)         79.3365                                         !
 ! D135  D(49,47,50,57)       -158.7765                                         !
 ! D136  D(47,49,59,60)          6.4156                                         !
 ! D137  D(47,49,59,61)       -179.153                                          !
 ! D138  D(52,49,59,60)       -172.8525                                         !
 ! D139  D(52,49,59,61)          1.579                                          !
 ! D140  D(47,50,53,54)        -60.2121                                         !
 ! D141  D(47,50,53,55)       -179.0568                                         !
 ! D142  D(47,50,53,56)         61.2704                                         !
 ! D143  D(51,50,53,54)         59.3568                                         !
 ! D144  D(51,50,53,55)        -59.488                                          !
 ! D145  D(51,50,53,56)       -179.1607                                         !
 ! D146  D(57,50,53,54)       -178.7835                                         !
 ! D147  D(57,50,53,55)         62.3717                                         !
 ! D148  D(57,50,53,56)        -57.301                                          !
 ! D149  D(47,50,57,58)        175.7306                                         !
 ! D150  D(51,50,57,58)         59.4945                                         !
 ! D151  D(53,50,57,58)        -62.1749                                         !
 ! D152  D(49,59,61,62)         36.8971                                         !
 ! D153  D(49,59,61,63)        -82.4096                                         !
 ! D154  D(49,59,61,64)        156.7989                                         !
 ! D155  D(60,59,61,62)       -148.46                                           !
 ! D156  D(60,59,61,63)         92.2333                                         !
 ! D157  D(60,59,61,64)        -28.5581                                         !
 ! D158  D(59,61,63,67)        -98.4438                                         !
 ! D159  D(59,61,63,70)         82.352                                          !
 ! D160  D(62,61,63,67)        143.07                                           !
 ! D161  D(62,61,63,70)        -36.1342                                         !
 ! D162  D(64,61,63,67)         21.9269                                         !
 ! D163  D(64,61,63,70)       -157.2772                                         !
 ! D164  D(59,61,64,65)        -63.6967                                         !
 ! D165  D(59,61,64,66)        178.1387                                         !
 ! D166  D(59,61,64,68)         54.2493                                         !
 ! D167  D(62,61,64,65)         54.7618                                         !
 ! D168  D(62,61,64,66)        -63.4027                                         !
 ! D169  D(62,61,64,68)        172.7079                                         !
 ! D170  D(63,61,64,65)        175.3136                                         !
 ! D171  D(63,61,64,66)         57.149                                          !
 ! D172  D(63,61,64,68)        -66.7404                                         !
 ! D173  D(61,63,70,71)        -12.0414                                         !
 ! D174  D(61,63,70,72)       -178.7969                                         !
 ! D175  D(67,63,70,71)        168.7639                                         !
 ! D176  D(67,63,70,72)          2.0083                                         !
 ! D177  D(61,64,68,69)         63.5748                                         !
 ! D178  D(65,64,68,69)       -177.0589                                         !
 ! D179  D(66,64,68,69)        -58.1667                                         !
 ! D180  D(63,70,72,73)         47.58                                           !
 ! D181  D(63,70,72,74)        166.4316                                         !
 ! D182  D(63,70,72,75)        -72.2475                                         !
 ! D183  D(71,70,72,73)       -118.7122                                         !
 ! D184  D(71,70,72,74)          0.1394                                         !
 ! D185  D(71,70,72,75)        121.4602                                         !
 ! D186  D(70,72,75,76)        158.4025                                         !
 ! D187  D(70,72,75,77)        -23.9646                                         !
 ! D188  D(73,72,75,76)         35.9158                                         !
 ! D189  D(73,72,75,77)       -146.4512                                         !
 ! D190  D(74,72,75,76)        -80.4274                                         !
 ! D191  D(74,72,75,77)         97.2055                                         !
 ! D192  D(72,75,77,78)         13.7846                                         !
 ! D193  D(72,75,77,79)        165.944                                          !
 ! D194  D(76,75,77,78)       -168.6924                                         !
 ! D195  D(76,75,77,79)        -16.5329                                         !
 ! D196  D(75,77,79,80)         -9.0333                                         !
 ! D197  D(75,77,79,81)       -126.2878                                         !
 ! D198  D(75,77,79,82)        111.2462                                         !
 ! D199  D(78,77,79,80)        143.7094                                         !
 ! D200  D(78,77,79,81)         26.455                                          !
 ! D201  D(78,77,79,82)        -96.0111                                         !
 ! D202  D(77,79,81,85)        -13.8933                                         !
 ! D203  D(77,79,81,98)        168.0022                                         !
 ! D204  D(80,79,81,85)       -130.1829                                         !
 ! D205  D(80,79,81,98)         51.7126                                         !
 ! D206  D(82,79,81,85)        110.4887                                         !
 ! D207  D(82,79,81,98)        -67.6158                                         !
 ! D208  D(77,79,82,83)         63.3179                                         !
 ! D209  D(77,79,82,84)        178.8251                                         !
 ! D210  D(77,79,82,86)        -58.9052                                         !
 ! D211  D(80,79,82,83)       -177.0374                                         !
 ! D212  D(80,79,82,84)        -61.5302                                         !
 ! D213  D(80,79,82,86)         60.7395                                         !
 ! D214  D(81,79,82,83)        -57.4947                                         !
 ! D215  D(81,79,82,84)         58.0124                                         !
 ! D216  D(81,79,82,86)       -179.7179                                         !
 ! D217  D(79,81,98,99)        177.8923                                         !
 ! D218  D(85,81,98,99)         -0.2541                                         !
 ! D219  D(79,82,86,87)        -54.0304                                         !
 ! D220  D(79,82,86,88)         62.4376                                         !
 ! D221  D(79,82,86,89)       -176.0346                                         !
 ! D222  D(83,82,86,87)       -175.7005                                         !
 ! D223  D(83,82,86,88)        -59.2325                                         !
 ! D224  D(83,82,86,89)         62.2953                                         !
 ! D225  D(84,82,86,87)         66.7769                                         !
 ! D226  D(84,82,86,88)       -176.755                                          !
 ! D227  D(84,82,86,89)        -55.2272                                         !
 ! D228  D(82,86,89,90)         64.3254                                         !
 ! D229  D(82,86,89,91)        -51.9914                                         !
 ! D230  D(82,86,89,92)       -173.7472                                         !
 ! D231  D(87,86,89,90)        -57.6334                                         !
 ! D232  D(87,86,89,91)       -173.9502                                         !
 ! D233  D(87,86,89,92)         64.294                                          !
 ! D234  D(88,86,89,90)       -173.496                                          !
 ! D235  D(88,86,89,91)         70.1872                                         !
 ! D236  D(88,86,89,92)        -51.5686                                         !
 ! D237  D(86,89,92,93)       -169.1356                                         !
 ! D238  D(86,89,92,94)        -53.1614                                         !
 ! D239  D(86,89,92,95)         65.1383                                         !
 ! D240  D(90,89,92,93)        -46.4636                                         !
 ! D241  D(90,89,92,94)         69.5107                                         !
 ! D242  D(90,89,92,95)       -172.1897                                         !
 ! D243  D(91,89,92,93)         68.5488                                         !
 ! D244  D(91,89,92,94)       -175.4769                                         !
 ! D245  D(91,89,92,95)        -57.1772                                         !
 ! D246  D(89,92,95,96)       -171.7347                                         !
 ! D247  D(89,92,95,97)         72.5538                                         !
 ! D248  D(93,92,95,96)         65.1932                                         !
 ! D249  D(93,92,95,97)        -50.5183                                         !
 ! D250  D(94,92,95,96)        -52.4478                                         !
 ! D251  D(94,92,95,97)       -168.1594                                         !
 --------------------------------------------------------------------------------
 Symmetry turned off by external request.
 Stoichiometry    C28H52N9O11(1+)
 Framework group  C1[X(C28H52N9O11)]
 Deg. of freedom   294
 Full point group                 C1      NOp   1
                          Input orientation:                          
 ---------------------------------------------------------------------
 Center     Atomic      Atomic             Coordinates (Angstroms)
 Number     Number       Type             X           Y           Z
 ---------------------------------------------------------------------
      1          7           0       -7.150200    2.104279    2.080319
      2          1           0       -6.811296    2.134933    1.119290
      3          1           0       -7.064396    3.044989    2.460320
      4          6           0       -6.363617    1.147870    2.849036
      5          1           0       -6.675998    1.237617    3.898648
      6          6           0       -4.848283    1.368146    2.743268
      7          6           0       -6.690446   -0.269407    2.317016
      8          1           0       -7.736693   -0.491216    2.561333
      9          1           0       -6.606214   -0.267112    1.227696
     10          8           0       -4.238744    1.236741    1.687229
     11          6           0       -5.810119   -1.418287    2.791105
     12          7           0       -5.390184   -1.387681    4.152716
     13          1           0       -6.036268   -0.943122    4.801181
     14          1           0       -3.662514   -0.691239    3.999469
     15          8           0       -5.425442   -2.307155    2.065961
     16          7           0       -4.172099    1.631943    3.908921
     17          1           0       -4.669997    1.807295    4.770639
     18          6           0       -2.720492    1.716615    3.905097
     19          1           0       -2.392062    2.519151    3.233241
     20          6           0       -2.191043    0.408589    3.324284
     21          6           0       -2.181833    1.996498    5.343130
     22          1           0       -2.658265    1.262598    6.011537
     23          8           0       -2.726856   -0.740183    3.633496
     24          6           0       -2.607686    3.418468    5.783037
     25          1           0       -3.662691    3.590265    5.532626
     26          1           0       -2.039040    4.149334    5.192071
     27          6           0       -0.659652    1.810972    5.435542
     28          1           0       -0.131435    2.462283    4.728211
     29          1           0       -0.311074    2.068370    6.438231
     30          1           0       -0.351205    0.777951    5.247131
     31          6           0       -2.414402    3.694389    7.278914
     32          1           0       -2.783636    4.693970    7.528153
     33          1           0       -2.966460    2.973404    7.893795
     34          1           0       -1.362367    3.653826    7.576527
     35          7           0       -1.137427    0.396316    2.565872
     36          1           0       -0.627884    1.260946    2.344052
     37          6           0       -0.525156   -0.772502    1.915876
     38          1           0       -0.363899   -1.549084    2.671636
     39          6           0        0.836378   -0.235348    1.413035
     40          6           0       -1.406126   -1.311318    0.775282
     41          1           0       -0.919304   -2.169987    0.304503
     42          1           0       -2.377791   -1.634507    1.156229
     43          1           0       -1.562409   -0.540771    0.015160
     44          8           0        1.083297    0.973175    1.519406
     45          7           0        1.659054   -1.129337    0.848080
     46          1           0        1.496186   -2.118452    1.014083
     47          6           0        3.058737   -0.818160    0.508960
     48          1           0        3.443516   -0.144782    1.286029
     49          6           0        3.192473   -0.098092   -0.861400
     50          6           0        3.870015   -2.133313    0.502892
     51          1           0        3.719100   -2.617072   -0.469972
     52          8           0        3.889198   -0.572708   -1.763535
     53          6           0        5.358385   -1.885763    0.723196
     54          1           0        5.761599   -1.247389   -0.066991
     55          1           0        5.908677   -2.833486    0.697096
     56          1           0        5.531293   -1.415925    1.697567
     57          8           0        3.308548   -2.948483    1.545582
     58          1           0        3.756543   -3.808139    1.517472
     59          7           0        2.518324    1.062806   -0.980061
     60          1           0        2.042265    1.475664   -0.179309
     61          6           0        2.533376    1.844597   -2.216084
     62          1           0        2.531447    1.144742   -3.058155
     63          6           0        3.805556    2.716346   -2.280242
     64          6           0        1.286233    2.737014   -2.263468
     65          1           0        0.390131    2.108860   -2.301927
     66          1           0        1.324373    3.343480   -3.178340
     67          8           0        3.795967    3.906821   -1.964121
     68          8           0        1.186932    3.532579   -1.094606
     69          1           0        1.979267    4.105625   -1.129908
     70          7           0        4.919635    2.078039   -2.724139
     71          1           0        4.878384    1.065176   -2.793659
     72          6           0        6.194969    2.778657   -2.808366
     73          1           0        6.397839    3.329740   -1.886377
     74          1           0        6.986539    2.037075   -2.949022
     75          6           0        6.279875    3.810960   -3.948538
     76          8           0        7.095701    4.718807   -3.900693
     77          7           0        5.430002    3.590773   -4.992574
     78          1           0        4.682378    2.922759   -4.852157
     79          6           0        5.166714    4.610512   -5.991710
     80          1           0        5.621699    5.542811   -5.639976
     81          6           0        3.655981    4.794148   -6.071103
     82          6           0        5.744688    4.272910   -7.388381
     83          1           0        5.250942    3.366525   -7.767324
     84          1           0        5.475162    5.089374   -8.069845
     85          8           0        2.836837    4.032394   -5.593752
     86          6           0        7.263467    4.069226   -7.372298
     87          1           0        7.745163    4.947515   -6.921563
     88          1           0        7.519676    3.216895   -6.735625
     89          6           0        7.840019    3.831499   -8.773379
     90          1           0        7.695550    4.724840   -9.397010
     91          1           0        7.285851    3.020294   -9.271382
     92          6           0        9.331620    3.475116   -8.761955
     93          1           0        9.716668    3.512312   -9.796546
     94          1           0        9.880210    4.239156   -8.196466
     95          7           0        9.557732    2.184138   -8.096141
     96          1           0       10.557247    2.028979   -7.976104
     97          1           0        9.229006    1.431174   -8.700389
     98          8           0        3.314710    5.890022   -6.774279
     99          1           0        2.339353    5.914305   -6.805251
    100          1           0       -5.141991   -2.325431    4.466923
 ---------------------------------------------------------------------
 Rotational constants (GHZ):           0.0994508           0.0191277           0.0180904
 Standard basis: 6-31G(d) (6D, 7F)
   824 basis functions,  1552 primitive gaussians,   824 cartesian basis functions
   185 alpha electrons      185 beta electrons
       nuclear repulsion energy      6364.8542462116 Hartrees.
 NAtoms=  100 NActive=  100 NUniq=  100 SFac= 1.00D+00 NAtFMM=   60 NAOKFM=T Big=T
 Integral buffers will be    131072 words long.
 Raffenetti 2 integral format.
 Two-electron integral symmetry is turned off.
 One-electron integrals computed using PRISM.
 NBasis=   824 RedAO= T EigKep=  1.52D-03  NBF=   824
 NBsUse=   824 1.00D-06 EigRej= -1.00D+00 NBFU=   824
 Initial guess from the checkpoint file:  "conf-123.chk"
 B after Tr=     0.000000    0.000000    0.000000
         Rot=    1.000000    0.000000    0.000000    0.000000 Ang=   0.00 deg.
 Requested convergence on RMS density matrix=1.00D-08 within 128 cycles.
 Requested convergence on MAX density matrix=1.00D-06.
 Requested convergence on             energy=1.00D-06.
 No special actions if energy rises.
 SCF Done:  E(RB3LYP) =  -2418.41649129     A.U. after    2 cycles
            NFock=  2  Conv=0.68D-08     -V/T= 2.0093

 **********************************************************************

            Population analysis using the SCF Density.

 **********************************************************************

 Alpha  occ. eigenvalues --  -19.34819 -19.25453 -19.24919 -19.24832 -19.24644
 Alpha  occ. eigenvalues --  -19.24533 -19.20539 -19.20032 -19.19850 -19.18915
 Alpha  occ. eigenvalues --  -19.15449 -14.53202 -14.50363 -14.49179 -14.47872
 Alpha  occ. eigenvalues --  -14.44036 -14.43046 -14.42820 -14.39985 -14.34426
 Alpha  occ. eigenvalues --  -10.47364 -10.41758 -10.41544 -10.41496 -10.38759
 Alpha  occ. eigenvalues --  -10.37778 -10.37720 -10.37570 -10.35609 -10.35453
 Alpha  occ. eigenvalues --  -10.33459 -10.33446 -10.33320 -10.33087 -10.31090
 Alpha  occ. eigenvalues --  -10.30320 -10.30230 -10.29957 -10.29659 -10.29631
 Alpha  occ. eigenvalues --  -10.28331 -10.28326 -10.27753 -10.25723 -10.23780
 Alpha  occ. eigenvalues --  -10.23060 -10.21304 -10.20844  -1.25229  -1.17094
 Alpha  occ. eigenvalues --   -1.16829  -1.16443  -1.16415  -1.12483  -1.11700
 Alpha  occ. eigenvalues --   -1.10690  -1.10415  -1.07733  -1.07328  -1.07134
 Alpha  occ. eigenvalues --   -1.06655  -1.04191  -1.03128  -1.00674  -1.00374
 Alpha  occ. eigenvalues --   -0.98988  -0.96684  -0.94597  -0.91793  -0.91011
 Alpha  occ. eigenvalues --   -0.88189  -0.87506  -0.86066  -0.84279  -0.83397
 Alpha  occ. eigenvalues --   -0.83210  -0.81323  -0.80056  -0.79532  -0.77917
 Alpha  occ. eigenvalues --   -0.77583  -0.76813  -0.75995  -0.73063  -0.72545
 Alpha  occ. eigenvalues --   -0.72263  -0.70244  -0.70154  -0.69732  -0.69297
 Alpha  occ. eigenvalues --   -0.68768  -0.67569  -0.67067  -0.66452  -0.65811
 Alpha  occ. eigenvalues --   -0.65393  -0.65148  -0.64474  -0.63978  -0.62941
 Alpha  occ. eigenvalues --   -0.62604  -0.62137  -0.61584  -0.60936  -0.60493
 Alpha  occ. eigenvalues --   -0.60082  -0.59337  -0.58369  -0.57808  -0.57363
 Alpha  occ. eigenvalues --   -0.56920  -0.56866  -0.56475  -0.56076  -0.55693
 Alpha  occ. eigenvalues --   -0.55443  -0.54950  -0.54789  -0.54386  -0.54155
 Alpha  occ. eigenvalues --   -0.53339  -0.53045  -0.52675  -0.52484  -0.52369
 Alpha  occ. eigenvalues --   -0.51863  -0.51812  -0.51779  -0.51334  -0.51157
 Alpha  occ. eigenvalues --   -0.50760  -0.50290  -0.50120  -0.50081  -0.49729
 Alpha  occ. eigenvalues --   -0.49481  -0.49196  -0.48979  -0.48648  -0.48595
 Alpha  occ. eigenvalues --   -0.48269  -0.47969  -0.47780  -0.47714  -0.47601
 Alpha  occ. eigenvalues --   -0.47246  -0.46723  -0.46485  -0.45874  -0.45699
 Alpha  occ. eigenvalues --   -0.45599  -0.45464  -0.44903  -0.44718  -0.44545
 Alpha  occ. eigenvalues --   -0.44299  -0.43696  -0.43471  -0.42665  -0.42450
 Alpha  occ. eigenvalues --   -0.42388  -0.40656  -0.40496  -0.39838  -0.39762
 Alpha  occ. eigenvalues --   -0.39700  -0.39010  -0.38780  -0.38619  -0.37860
 Alpha  occ. eigenvalues --   -0.37337  -0.37165  -0.36745  -0.36298  -0.36013
 Alpha  occ. eigenvalues --   -0.35644  -0.34703  -0.33908  -0.33719  -0.33233
 Alpha  occ. eigenvalues --   -0.33035  -0.31092  -0.29836  -0.28841  -0.26558
 Alpha virt. eigenvalues --   -0.16269  -0.11946  -0.10879  -0.10312  -0.07706
 Alpha virt. eigenvalues --   -0.07316  -0.04928  -0.04598  -0.03992  -0.03457
 Alpha virt. eigenvalues --   -0.02543  -0.01866  -0.01680  -0.01381  -0.00775
 Alpha virt. eigenvalues --   -0.00634   0.00529   0.00863   0.01198   0.02050
 Alpha virt. eigenvalues --    0.02162   0.02351   0.02952   0.03067   0.03583
 Alpha virt. eigenvalues --    0.04157   0.04174   0.04389   0.04616   0.05166
 Alpha virt. eigenvalues --    0.05202   0.05479   0.05804   0.05986   0.06274
 Alpha virt. eigenvalues --    0.06603   0.06707   0.06894   0.07381   0.07581
 Alpha virt. eigenvalues --    0.07589   0.07975   0.08276   0.08369   0.08853
 Alpha virt. eigenvalues --    0.08907   0.09068   0.09448   0.09641   0.09743
 Alpha virt. eigenvalues --    0.09902   0.10328   0.10445   0.10498   0.10565
 Alpha virt. eigenvalues --    0.10999   0.11257   0.11511   0.11812   0.11892
 Alpha virt. eigenvalues --    0.12244   0.12340   0.12473   0.12967   0.13138
 Alpha virt. eigenvalues --    0.13353   0.13870   0.14254   0.14687   0.14857
 Alpha virt. eigenvalues --    0.15036   0.15148   0.15369   0.15923   0.16411
 Alpha virt. eigenvalues --    0.16747   0.16885   0.17134   0.17433   0.17597
 Alpha virt. eigenvalues --    0.17861   0.19084   0.19404   0.19768   0.20072
 Alpha virt. eigenvalues --    0.20511   0.21325   0.21718   0.22026   0.22636
 Alpha virt. eigenvalues --    0.23285   0.23796   0.24371   0.24578   0.25283
 Alpha virt. eigenvalues --    0.25878   0.27172   0.27806   0.28461   0.28617
 Alpha virt. eigenvalues --    0.29074   0.29588   0.31418   0.32340   0.33947
 Alpha virt. eigenvalues --    0.34756   0.35934   0.37041   0.37825   0.38129
 Alpha virt. eigenvalues --    0.38550   0.39229   0.39757   0.40716   0.41049
 Alpha virt. eigenvalues --    0.41628   0.41735   0.42714   0.42932   0.43717
 Alpha virt. eigenvalues --    0.44373   0.44665   0.45696   0.46179   0.46702
 Alpha virt. eigenvalues --    0.46840   0.47014   0.47161   0.47868   0.48198
 Alpha virt. eigenvalues --    0.48359   0.48895   0.48984   0.49014   0.49511
 Alpha virt. eigenvalues --    0.49692   0.50069   0.50509   0.50752   0.51016
 Alpha virt. eigenvalues --    0.51371   0.51920   0.52546   0.52675   0.52875
 Alpha virt. eigenvalues --    0.53094   0.53247   0.53436   0.53823   0.54386
 Alpha virt. eigenvalues --    0.54887   0.55083   0.55196   0.56059   0.56762
 Alpha virt. eigenvalues --    0.56932   0.57228   0.57561   0.57653   0.57996
 Alpha virt. eigenvalues --    0.58114   0.59445   0.59791   0.60351   0.60448
 Alpha virt. eigenvalues --    0.60658   0.61127   0.61748   0.62099   0.62608
 Alpha virt. eigenvalues --    0.62797   0.63026   0.63429   0.64314   0.64916
 Alpha virt. eigenvalues --    0.65580   0.65650   0.66233   0.66592   0.66699
 Alpha virt. eigenvalues --    0.67176   0.67784   0.68659   0.68809   0.69020
 Alpha virt. eigenvalues --    0.69209   0.69612   0.70008   0.70183   0.70484
 Alpha virt. eigenvalues --    0.70925   0.71101   0.71345   0.71664   0.72192
 Alpha virt. eigenvalues --    0.72387   0.72631   0.73190   0.73598   0.73711
 Alpha virt. eigenvalues --    0.73945   0.74330   0.74681   0.75304   0.75643
 Alpha virt. eigenvalues --    0.75716   0.76490   0.76593   0.76851   0.76934
 Alpha virt. eigenvalues --    0.77082   0.77331   0.77790   0.77832   0.77928
 Alpha virt. eigenvalues --    0.78258   0.78897   0.79228   0.79264   0.79497
 Alpha virt. eigenvalues --    0.79712   0.79862   0.80151   0.80537   0.80822
 Alpha virt. eigenvalues --    0.80992   0.81332   0.81563   0.81798   0.82286
 Alpha virt. eigenvalues --    0.82562   0.82764   0.82985   0.83063   0.83402
 Alpha virt. eigenvalues --    0.83664   0.84145   0.84451   0.84671   0.84894
 Alpha virt. eigenvalues --    0.85243   0.85361   0.85679   0.86068   0.86209
 Alpha virt. eigenvalues --    0.86512   0.86741   0.87255   0.87464   0.87949
 Alpha virt. eigenvalues --    0.88000   0.88181   0.88461   0.89062   0.89449
 Alpha virt. eigenvalues --    0.89510   0.89621   0.90062   0.90141   0.90914
 Alpha virt. eigenvalues --    0.91457   0.92095   0.92620   0.92851   0.93054
 Alpha virt. eigenvalues --    0.93403   0.93545   0.94374   0.94980   0.95487
 Alpha virt. eigenvalues --    0.95628   0.96037   0.96502   0.97113   0.97140
 Alpha virt. eigenvalues --    0.98370   0.98821   0.99007   0.99499   0.99691
 Alpha virt. eigenvalues --    0.99851   1.00618   1.00886   1.01332   1.02091
 Alpha virt. eigenvalues --    1.02531   1.03410   1.03657   1.03988   1.04501
 Alpha virt. eigenvalues --    1.05874   1.06269   1.07354   1.07678   1.07795
 Alpha virt. eigenvalues --    1.08610   1.09916   1.10607   1.11266   1.11861
 Alpha virt. eigenvalues --    1.12978   1.13761   1.13936   1.14733   1.14967
 Alpha virt. eigenvalues --    1.15842   1.16115   1.17290   1.17906   1.18213
 Alpha virt. eigenvalues --    1.18741   1.19166   1.20437   1.21199   1.21746
 Alpha virt. eigenvalues --    1.23461   1.24346   1.25229   1.25944   1.26514
 Alpha virt. eigenvalues --    1.27582   1.28317   1.28503   1.28822   1.29197
 Alpha virt. eigenvalues --    1.29847   1.31102   1.31275   1.32152   1.32659
 Alpha virt. eigenvalues --    1.33688   1.34261   1.34745   1.35584   1.35850
 Alpha virt. eigenvalues --    1.36397   1.37085   1.38412   1.39135   1.40372
 Alpha virt. eigenvalues --    1.40795   1.41572   1.41755   1.42923   1.43333
 Alpha virt. eigenvalues --    1.44443   1.44678   1.46264   1.46685   1.47524
 Alpha virt. eigenvalues --    1.48413   1.48484   1.49036   1.49727   1.50396
 Alpha virt. eigenvalues --    1.52133   1.52534   1.53109   1.53703   1.54268
 Alpha virt. eigenvalues --    1.54527   1.56007   1.56248   1.56458   1.57054
 Alpha virt. eigenvalues --    1.57705   1.57831   1.58926   1.60069   1.60866
 Alpha virt. eigenvalues --    1.61105   1.61788   1.62118   1.63025   1.63351
 Alpha virt. eigenvalues --    1.63793   1.64237   1.65240   1.65749   1.66001
 Alpha virt. eigenvalues --    1.66393   1.66816   1.67282   1.67486   1.67839
 Alpha virt. eigenvalues --    1.68222   1.68520   1.68676   1.69558   1.70298
 Alpha virt. eigenvalues --    1.70732   1.71219   1.71578   1.72367   1.72521
 Alpha virt. eigenvalues --    1.73150   1.73860   1.74229   1.74434   1.74741
 Alpha virt. eigenvalues --    1.74922   1.75270   1.75770   1.76479   1.76903
 Alpha virt. eigenvalues --    1.77344   1.77836   1.78737   1.79019   1.79257
 Alpha virt. eigenvalues --    1.79635   1.79858   1.80460   1.80797   1.81012
 Alpha virt. eigenvalues --    1.81803   1.82029   1.82639   1.82792   1.83856
 Alpha virt. eigenvalues --    1.84103   1.84640   1.84910   1.85439   1.85530
 Alpha virt. eigenvalues --    1.85848   1.86281   1.86656   1.87127   1.87430
 Alpha virt. eigenvalues --    1.87906   1.88036   1.89277   1.89425   1.89727
 Alpha virt. eigenvalues --    1.90041   1.90421   1.90520   1.91109   1.91704
 Alpha virt. eigenvalues --    1.92534   1.92721   1.93033   1.93812   1.94149
 Alpha virt. eigenvalues --    1.94943   1.95474   1.95707   1.96276   1.97210
 Alpha virt. eigenvalues --    1.97791   1.98638   1.98965   1.99307   1.99371
 Alpha virt. eigenvalues --    2.00103   2.00600   2.01208   2.01724   2.02111
 Alpha virt. eigenvalues --    2.02730   2.02984   2.04547   2.05219   2.05351
 Alpha virt. eigenvalues --    2.05906   2.06475   2.06914   2.07821   2.08433
 Alpha virt. eigenvalues --    2.08998   2.09420   2.10037   2.10934   2.11004
 Alpha virt. eigenvalues --    2.11416   2.12768   2.14137   2.14278   2.15454
 Alpha virt. eigenvalues --    2.15878   2.16148   2.16763   2.17255   2.17879
 Alpha virt. eigenvalues --    2.18442   2.18872   2.19370   2.20008   2.20881
 Alpha virt. eigenvalues --    2.21350   2.21865   2.22174   2.22460   2.23516
 Alpha virt. eigenvalues --    2.24281   2.25500   2.26118   2.27203   2.27918
 Alpha virt. eigenvalues --    2.28267   2.28558   2.29740   2.30764   2.31446
 Alpha virt. eigenvalues --    2.31745   2.32390   2.33080   2.33426   2.34007
 Alpha virt. eigenvalues --    2.34358   2.34983   2.36693   2.36848   2.37768
 Alpha virt. eigenvalues --    2.38136   2.39112   2.39756   2.40318   2.40644
 Alpha virt. eigenvalues --    2.40875   2.41242   2.42306   2.42529   2.43214
 Alpha virt. eigenvalues --    2.43896   2.44394   2.44546   2.44807   2.45554
 Alpha virt. eigenvalues --    2.47291   2.47774   2.48448   2.48966   2.49877
 Alpha virt. eigenvalues --    2.50028   2.50945   2.52041   2.52621   2.52816
 Alpha virt. eigenvalues --    2.54954   2.55257   2.56120   2.56349   2.56494
 Alpha virt. eigenvalues --    2.57145   2.58934   2.59258   2.59976   2.60462
 Alpha virt. eigenvalues --    2.60795   2.62523   2.63553   2.63893   2.64834
 Alpha virt. eigenvalues --    2.65251   2.68305   2.68494   2.69329   2.70708
 Alpha virt. eigenvalues --    2.71677   2.72257   2.73606   2.74285   2.75765
 Alpha virt. eigenvalues --    2.76940   2.78062   2.79168   2.80030   2.80370
 Alpha virt. eigenvalues --    2.81761   2.82821   2.84127   2.85706   2.87837
 Alpha virt. eigenvalues --    2.88372   2.89713   2.90049   2.91439   2.93535
 Alpha virt. eigenvalues --    2.94734   2.95815   2.96317   2.97469   3.01579
 Alpha virt. eigenvalues --    3.04082   3.04588   3.07940   3.08460   3.10456
 Alpha virt. eigenvalues --    3.12592   3.67782   3.73752   3.75033   3.75428
 Alpha virt. eigenvalues --    3.78750   3.79710   3.85786   3.91882   3.92823
 Alpha virt. eigenvalues --    3.94718   3.95114   3.95757   4.00627   4.01755
 Alpha virt. eigenvalues --    4.03109   4.04311   4.07267   4.08551   4.08763
 Alpha virt. eigenvalues --    4.13013   4.13597   4.14141   4.15830   4.16181
 Alpha virt. eigenvalues --    4.17290   4.18747   4.24102   4.25032   4.26194
 Alpha virt. eigenvalues --    4.27470   4.28511   4.29868   4.31816   4.32755
 Alpha virt. eigenvalues --    4.35676   4.38012   4.38873   4.40274   4.44054
 Alpha virt. eigenvalues --    4.46939   4.48406   4.50423   4.53139   4.55377
 Alpha virt. eigenvalues --    4.57238   4.59798   4.61440   4.63940
          Condensed to atoms (all electrons):
 Mulliken charges:
               1
     1  N   -0.688717
     2  H    0.329878
     3  H    0.318963
     4  C   -0.082523
     5  H    0.132994
     6  C    0.611311
     7  C   -0.349909
     8  H    0.210494
     9  H    0.213553
    10  O   -0.512670
    11  C    0.548165
    12  N   -0.807301
    13  H    0.345931
    14  H    0.487517
    15  O   -0.425330
    16  N   -0.650794
    17  H    0.346336
    18  C   -0.013088
    19  H    0.202935
    20  C    0.661940
    21  C   -0.113780
    22  H    0.139218
    23  O   -0.593189
    24  C   -0.269653
    25  H    0.135876
    26  H    0.164693
    27  C   -0.482185
    28  H    0.170944
    29  H    0.190592
    30  H    0.158825
    31  C   -0.455690
    32  H    0.176779
    33  H    0.151392
    34  H    0.169165
    35  N   -0.563947
    36  H    0.405370
    37  C   -0.074540
    38  H    0.207247
    39  C    0.642559
    40  C   -0.454775
    41  H    0.179240
    42  H    0.206419
    43  H    0.192320
    44  O   -0.548386
    45  N   -0.608490
    46  H    0.366884
    47  C   -0.072932
    48  H    0.193385
    49  C    0.637102
    50  C    0.120946
    51  H    0.167240
    52  O   -0.540370
    53  C   -0.474836
    54  H    0.183997
    55  H    0.157080
    56  H    0.161890
    57  O   -0.657919
    58  H    0.413186
    59  N   -0.620724
    60  H    0.391231
    61  C   -0.082594
    62  H    0.179491
    63  C    0.625694
    64  C   -0.060841
    65  H    0.140591
    66  H    0.176691
    67  O   -0.527531
    68  O   -0.644161
    69  H    0.423670
    70  N   -0.627255
    71  H    0.370731
    72  C   -0.225618
    73  H    0.203104
    74  H    0.187247
    75  C    0.610896
    76  O   -0.506735
    77  N   -0.587045
    78  H    0.341227
    79  C   -0.051208
    80  H    0.204455
    81  C    0.589702
    82  C   -0.265129
    83  H    0.133567
    84  H    0.156204
    85  O   -0.487738
    86  C   -0.251778
    87  H    0.147213
    88  H    0.170682
    89  C   -0.253677
    90  H    0.131319
    91  H    0.121378
    92  C   -0.142622
    93  H    0.118283
    94  H    0.144067
    95  N   -0.714445
    96  H    0.299841
    97  H    0.291192
    98  O   -0.554678
    99  H    0.416551
   100  H    0.367411
 Sum of Mulliken charges =   1.00000
 Mulliken charges with hydrogens summed into heavy atoms:
               1
     1  N   -0.039876
     4  C    0.050471
     6  C    0.611311
     7  C    0.074137
    10  O   -0.512670
    11  C    0.548165
    12  N   -0.093959
    15  O   -0.425330
    16  N   -0.304459
    18  C    0.189847
    20  C    0.661940
    21  C    0.025438
    23  O   -0.105672
    24  C    0.030916
    27  C    0.038175
    31  C    0.041647
    35  N   -0.158578
    37  C    0.132708
    39  C    0.642559
    40  C    0.123203
    44  O   -0.548386
    45  N   -0.241606
    47  C    0.120453
    49  C    0.637102
    50  C    0.288186
    52  O   -0.540370
    53  C    0.028132
    57  O   -0.244733
    59  N   -0.229493
    61  C    0.096898
    63  C    0.625694
    64  C    0.256440
    67  O   -0.527531
    68  O   -0.220491
    70  N   -0.256524
    72  C    0.164733
    75  C    0.610896
    76  O   -0.506735
    77  N   -0.245818
    79  C    0.153247
    81  C    0.589702
    82  C    0.024642
    85  O   -0.487738
    86  C    0.066118
    89  C   -0.000980
    92  C    0.119728
    95  N   -0.123412
    98  O   -0.138127
 Electronic spatial extent (au):  <R**2>=          64185.9006
 Charge=              1.0000 electrons
 Dipole moment (field-independent basis, Debye):
    X=            -10.3499    Y=             -1.1491    Z=             14.9199  Tot=             18.1946
 Quadrupole moment (field-independent basis, Debye-Ang):
   XX=           -186.8878   YY=           -268.1087   ZZ=           -141.7464
   XY=            -45.4363   XZ=            -92.9992   YZ=              3.6077
 Traceless Quadrupole moment (field-independent basis, Debye-Ang):
   XX=             12.0265   YY=            -69.1944   ZZ=             57.1679
   XY=            -45.4363   XZ=            -92.9992   YZ=              3.6077
 Octapole moment (field-independent basis, Debye-Ang**2):
  XXX=          -1193.9372  YYY=          -1363.2598  ZZZ=            449.1659  XYY=           -486.1443
  XXY=           -559.0584  XXZ=            269.7586  XZZ=           -385.0714  YZZ=           -174.2689
  YYZ=            199.5478  XYZ=            -60.1238
 Hexadecapole moment (field-independent basis, Debye-Ang**3):
 XXXX=         -32976.1357 YYYY=         -12620.6321 ZZZZ=         -25498.0840 XXXY=          -6128.6816
 XXXZ=           9261.7258 YYYX=          -6170.7408 YYYZ=           4873.1250 ZZZX=           8852.7584
 ZZZY=           4177.6473 XXYY=          -8938.9994 XXZZ=          -6778.3542 YYZZ=          -6212.0462
 XXYZ=           1603.5737 YYXZ=           4571.2119 ZZXY=          -1226.6509
 N-N= 6.364854246212D+03 E-N=-1.833972346673D+04  KE= 2.396234721343D+03
 Unable to Open any file for archive entry.
 1\1\GINC-AMR-119\SP\RB3LYP\6-31G(d)\C28H52N9O11(1+)\KENGMITH\27-May-20
 22\0\\# B3LYP/6-31G* guess=read geom=check nosymm integral(ultrafinegr
 id)\\Candidate Structure: Conf:123 Charge calc in gas phase\\1,1\N,0,-
 7.1501997422,2.1042792333,2.0803193844\H,0,-6.8112955154,2.1349331157,
 1.1192902952\H,0,-7.0643956707,3.0449892087,2.4603198247\C,0,-6.363616
 8897,1.1478701238,2.8490359542\H,0,-6.675997719,1.2376168244,3.8986482
 921\C,0,-4.8482834901,1.3681459179,2.7432679125\C,0,-6.6904461427,-0.2
 694071841,2.3170163005\H,0,-7.7366932791,-0.4912157346,2.5613334196\H,
 0,-6.6062139669,-0.2671121647,1.2276957407\O,0,-4.2387444999,1.2367411
 756,1.6872294751\C,0,-5.8101191401,-1.4182872013,2.7911049884\N,0,-5.3
 901843044,-1.3876814121,4.1527158077\H,0,-6.036268486,-0.9431216495,4.
 8011810977\H,0,-3.6625142153,-0.6912394396,3.9994692199\O,0,-5.4254423
 676,-2.3071546391,2.0659610598\N,0,-4.1720990009,1.6319425533,3.908920
 8015\H,0,-4.6699968661,1.8072954139,4.7706385045\C,0,-2.7204920814,1.7
 166152584,3.9050965028\H,0,-2.3920619701,2.5191514307,3.2332406539\C,0
 ,-2.1910425274,0.4085891167,3.3242840211\C,0,-2.1818332951,1.996497920
 3,5.3431298011\H,0,-2.6582653485,1.2625981657,6.0115374926\O,0,-2.7268
 556629,-0.7401828953,3.633496264\C,0,-2.6076857005,3.4184681645,5.7830
 372688\H,0,-3.6626907201,3.5902647814,5.5326260089\H,0,-2.0390398746,4
 .1493338259,5.1920707579\C,0,-0.6596523171,1.8109724547,5.4355415341\H
 ,0,-0.1314350609,2.4622827295,4.7282112543\H,0,-0.3110740511,2.0683695
 166,6.438230901\H,0,-0.3512054967,0.7779512789,5.2471305233\C,0,-2.414
 4016379,3.6943891009,7.2789141284\H,0,-2.7836359369,4.6939698632,7.528
 1526625\H,0,-2.9664600048,2.9734038021,7.8937950752\H,0,-1.3623671332,
 3.6538263036,7.5765265497\N,0,-1.1374265549,0.396316352,2.5658723325\H
 ,0,-0.6278838334,1.2609459098,2.3440515443\C,0,-0.5251561186,-0.772501
 9613,1.9158756721\H,0,-0.3638987117,-1.5490838924,2.6716355727\C,0,0.8
 363776972,-0.2353483227,1.4130350254\C,0,-1.4061256031,-1.3113182276,0
 .7752815768\H,0,-0.9193043794,-2.1699867384,0.3045032648\H,0,-2.377791
 4165,-1.6345071496,1.1562291416\H,0,-1.5624091218,-0.5407706766,0.0151
 597037\O,0,1.0832967682,0.9731751609,1.5194059617\N,0,1.65905368,-1.12
 93367161,0.8480804312\H,0,1.496186105,-2.1184521236,1.0140825643\C,0,3
 .0587372374,-0.8181597501,0.5089603347\H,0,3.44351622,-0.1447820977,1.
 286029255\C,0,3.1924734053,-0.0980923906,-0.8614002427\C,0,3.870014758
 8,-2.133312655,0.5028922097\H,0,3.7190997471,-2.6170722479,-0.46997249
 08\O,0,3.8891980542,-0.572707987,-1.7635345773\C,0,5.3583850927,-1.885
 7632643,0.7231957294\H,0,5.7615990658,-1.2473894015,-0.066990795\H,0,5
 .9086765504,-2.8334855862,0.6970960427\H,0,5.5312928587,-1.4159252496,
 1.6975673817\O,0,3.3085483087,-2.9484825668,1.5455819784\H,0,3.7565426
 454,-3.808138743,1.5174716456\N,0,2.5183238998,1.0628062578,-0.9800605
 852\H,0,2.0422649682,1.4756641794,-0.1793088423\C,0,2.5333758498,1.844
 5967156,-2.2160843947\H,0,2.5314468656,1.1447418648,-3.0581552711\C,0,
 3.8055563846,2.7163455438,-2.280241631\C,0,1.2862330365,2.7370140238,-
 2.2634676148\H,0,0.3901305294,2.1088604319,-2.3019272677\H,0,1.3243733
 058,3.3434797545,-3.1783403678\O,0,3.7959665668,3.9068211173,-1.964121
 2888\O,0,1.1869317415,3.5325789842,-1.0946063101\H,0,1.9792669455,4.10
 56251616,-1.1299083746\N,0,4.9196347899,2.0780387066,-2.7241391638\H,0
 ,4.8783835747,1.0651757946,-2.7936590346\C,0,6.1949686511,2.7786574279
 ,-2.808365927\H,0,6.3978391398,3.3297397269,-1.8863774945\H,0,6.986539
 2374,2.0370746971,-2.9490217829\C,0,6.2798752134,3.8109599254,-3.94853
 81064\O,0,7.0957008012,4.7188069209,-3.9006933749\N,0,5.4300019006,3.5
 907725368,-4.9925742485\H,0,4.6823779108,2.922759301,-4.8521568767\C,0
 ,5.1667138827,4.6105124154,-5.9917098036\H,0,5.6216992642,5.542811345,
 -5.6399762476\C,0,3.6559814986,4.7941482261,-6.0711025861\C,0,5.744687
 8738,4.2729098402,-7.3883805982\H,0,5.2509418366,3.3665249719,-7.76732
 39489\H,0,5.4751617045,5.0893739065,-8.0698447049\O,0,2.8368366938,4.0
 323944766,-5.5937518996\C,0,7.2634667782,4.0692260531,-7.3722975123\H,
 0,7.7451632671,4.9475151033,-6.9215625091\H,0,7.5196762496,3.216895357
 4,-6.73562508\C,0,7.8400192703,3.8314990201,-8.7733789771\H,0,7.695550
 4357,4.7248401516,-9.3970097463\H,0,7.2858506824,3.0202938522,-9.27138
 16146\C,0,9.33162046,3.4751158893,-8.7619549485\H,0,9.7166681072,3.512
 311663,-9.79654621\H,0,9.8802097527,4.2391561922,-8.19646572\N,0,9.557
 7321001,2.1841376497,-8.0961407665\H,0,10.5572469321,2.0289786438,-7.9
 761043385\H,0,9.2290061553,1.4311737061,-8.7003894367\O,0,3.3147095464
 ,5.8900219984,-6.7742789422\H,0,2.3393533792,5.9143047035,-6.805250731
 1\H,0,-5.141990963,-2.3254309918,4.4669229182\\Version=ES64L-G16RevC.0
 1\HF=-2418.4164913\RMSD=6.835e-09\Dipole=-6.3581629,-3.3567959,6.84428
 86\Quadrupole=8.9414347,-51.4443557,42.5029211,-33.7807512,-69.1426184
 ,2.6822585\PG=C01 [X(C28H52N9O11)]\\@
 The archive entry for this job was punched.


 THE UNDERLYING PHYSICAL LAWS NECESSARY FOR THE 
 MATHEMATICAL THEORY OF A LARGE PART OF PHYSICS AND THE
 WHOLE OF CHEMISTRY ARE THUS COMPLETELY KNOWN, AND THE
 DIFFICULTY IS ONLY THAT THE EXACT APPLICATION OF THESE
 LAWS LEADS TO EQUATIONS MUCH TOO COMPLICATED 
 TO BE SOLUBLE.

                                        -- P. A. M. DIRAC, 1929
 Job cpu time:       0 days  0 hours  3 minutes  1.9 seconds.
 Elapsed time:       0 days  0 hours  0 minutes 46.0 seconds.
 File lengths (MBytes):  RWF=    472 Int=      0 D2E=      0 Chk=     72 Scr=     16
 Normal termination of Gaussian 16 at Fri May 27 02:49:14 2022.
