 Entering Gaussian System, Link 0=/opt/software/Gaussian/g16-AVX2-C.01/g16/g16
 Input=charge-conf-578.com
 Output=charge-conf-578.log
 Initial command:
 /opt/software/Gaussian/g16-AVX2-C.01/g16/l1.exe "/mnt/gs18/scratch/users/kengmith/Gau-19684.inp" -scrdir="/mnt/gs18/scratch/users/kengmith/"
 Entering Link 1 = /opt/software/Gaussian/g16-AVX2-C.01/g16/l1.exe PID=     19694.
  
 Copyright (c) 1988-2019, Gaussian, Inc.  All Rights Reserved.
  
 This is part of the Gaussian(R) 16 program.  It is based on
 the Gaussian(R) 09 system (copyright 2009, Gaussian, Inc.),
 the Gaussian(R) 03 system (copyright 2003, Gaussian, Inc.),
 the Gaussian(R) 98 system (copyright 1998, Gaussian, Inc.),
 the Gaussian(R) 94 system (copyright 1995, Gaussian, Inc.),
 the Gaussian 92(TM) system (copyright 1992, Gaussian, Inc.),
 the Gaussian 90(TM) system (copyright 1990, Gaussian, Inc.),
 the Gaussian 88(TM) system (copyright 1988, Gaussian, Inc.),
 the Gaussian 86(TM) system (copyright 1986, Carnegie Mellon
 University), and the Gaussian 82(TM) system (copyright 1983,
 Carnegie Mellon University). Gaussian is a federally registered
 trademark of Gaussian, Inc.
  
 This software contains proprietary and confidential information,
 including trade secrets, belonging to Gaussian, Inc.
  
 This software is provided under written license and may be
 used, copied, transmitted, or stored only in accord with that
 written license.
  
 The following legend is applicable only to US Government
 contracts under FAR:
  
                    RESTRICTED RIGHTS LEGEND
  
 Use, reproduction and disclosure by the US Government is
 subject to restrictions as set forth in subparagraphs (a)
 and (c) of the Commercial Computer Software - Restricted
 Rights clause in FAR 52.227-19.
  
 Gaussian, Inc.
 340 Quinnipiac St., Bldg. 40, Wallingford CT 06492
  
  
 ---------------------------------------------------------------
 Warning -- This program may not be used in any manner that
 competes with the business of Gaussian, Inc. or will provide
 assistance to any competitor of Gaussian, Inc.  The licensee
 of this program is prohibited from giving any competitor of
 Gaussian, Inc. access to this program.  By using this program,
 the user acknowledges that Gaussian, Inc. is engaged in the
 business of creating and licensing software in the field of
 computational chemistry and represents and warrants to the
 licensee that it is not a competitor of Gaussian, Inc. and that
 it will not use this program in any manner prohibited above.
 ---------------------------------------------------------------
  

 Cite this work as:
 Gaussian 16, Revision C.01,
 M. J. Frisch, G. W. Trucks, H. B. Schlegel, G. E. Scuseria, 
 M. A. Robb, J. R. Cheeseman, G. Scalmani, V. Barone, 
 G. A. Petersson, H. Nakatsuji, X. Li, M. Caricato, A. V. Marenich, 
 J. Bloino, B. G. Janesko, R. Gomperts, B. Mennucci, H. P. Hratchian, 
 J. V. Ortiz, A. F. Izmaylov, J. L. Sonnenberg, D. Williams-Young, 
 F. Ding, F. Lipparini, F. Egidi, J. Goings, B. Peng, A. Petrone, 
 T. Henderson, D. Ranasinghe, V. G. Zakrzewski, J. Gao, N. Rega, 
 G. Zheng, W. Liang, M. Hada, M. Ehara, K. Toyota, R. Fukuda, 
 J. Hasegawa, M. Ishida, T. Nakajima, Y. Honda, O. Kitao, H. Nakai, 
 T. Vreven, K. Throssell, J. A. Montgomery, Jr., J. E. Peralta, 
 F. Ogliaro, M. J. Bearpark, J. J. Heyd, E. N. Brothers, K. N. Kudin, 
 V. N. Staroverov, T. A. Keith, R. Kobayashi, J. Normand, 
 K. Raghavachari, A. P. Rendell, J. C. Burant, S. S. Iyengar, 
 J. Tomasi, M. Cossi, J. M. Millam, M. Klene, C. Adamo, R. Cammi, 
 J. W. Ochterski, R. L. Martin, K. Morokuma, O. Farkas, 
 J. B. Foresman, and D. J. Fox, Gaussian, Inc., Wallingford CT, 2019.
 
 ******************************************
 Gaussian 16:  ES64L-G16RevC.01  3-Jul-2019
                19-Jun-2022 
 ******************************************
 %mem=8gb
 %nproc=4
 Will use up to    4 processors via shared memory.
 %chk=conf-578.chk
 -------------------------------------------------------------------
 # B3LYP/6-31G* guess=read geom=check nosymm integral(ultrafinegrid)
 -------------------------------------------------------------------
 1/29=2,38=1,172=1/1;
 2/12=2,15=1,40=1/2;
 3/5=1,6=6,7=1,11=2,14=-4,25=1,30=1,74=-5,75=-5,116=-2/1,2,3;
 4/5=1/1;
 5/5=2,38=6/2;
 6/7=2,8=2,9=2,10=2,28=1/1;
 99/5=1,9=1/99;
 ------------------------------------------------------
 Candidate Structure: Conf:578 Charge calc in gas phase
 ------------------------------------------------------
 Structure from the checkpoint file:  "conf-578.chk"
 Charge =  1 Multiplicity = 1
 Redundant internal coordinates found in file.  (old form).
 N,0,-6.406045199,-1.7839624602,-5.3670031578
 H,0,-6.7907695511,-0.9989928194,-5.8992125527
 H,0,-7.0930716661,-2.5424863766,-5.3578734543
 H,0,-5.48910573,-2.099591019,-5.8185612629
 C,0,-5.9326679091,-1.3910722568,-3.9773350311
 H,0,-6.3125107354,-0.3886207079,-3.7720634272
 C,0,-4.3876736066,-1.37503411,-4.162813387
 C,0,-6.4671432833,-2.3986506516,-2.9245068984
 H,0,-7.5561866318,-2.4359975402,-3.0890480925
 O,0,-3.9348223615,-1.8954391059,-5.1984242604
 C,0,-6.2641490289,-1.9115084276,-1.4714065688
 H,0,-5.1958600945,-1.8948135997,-1.2238696923
 H,0,-6.7017590416,-2.6841268752,-0.8282718995
 C,0,-5.8885209908,-3.8100812835,-3.1212880657
 H,0,-4.8125389656,-3.8316224173,-2.9193729018
 H,0,-6.3714455046,-4.5060054788,-2.4293672962
 H,0,-6.0408141564,-4.2087309695,-4.1323276149
 C,0,-6.9088199735,-0.5624936117,-1.129926258
 H,0,-6.8266264895,-0.3686917501,-0.0565985931
 H,0,-6.4283243418,0.2842605896,-1.636116261
 H,0,-7.974718366,-0.5484448044,-1.3876683596
 N,0,-3.6677591047,-0.814444362,-3.2038735892
 H,0,-4.0774960508,-0.4225403445,-2.3531328062
 C,0,-2.203727461,-0.7618195618,-3.1734169862
 H,0,-1.8108069433,-1.7109686423,-3.5488211243
 C,0,-1.8742745662,-0.5890829017,-1.6727367002
 C,0,-1.6761566357,0.4013064924,-4.061016449
 H,0,-2.0572295618,1.3441171872,-3.6518175312
 H,0,-2.1337810619,0.2655760204,-5.0485335823
 O,0,-2.7547935946,-0.1743173543,-0.904595225
 C,0,-0.168279734,0.4528160063,-4.1898578907
 C,0,0.5611075354,1.5207214483,-3.6502501749
 H,0,0.0341394434,2.3222904329,-3.1359912537
 C,0,0.5238295382,-0.56378015,-4.8654693905
 H,0,-0.0281757231,-1.3874494713,-5.3160032679
 C,0,1.9499876716,1.5720615655,-3.7791305857
 H,0,2.5230984949,2.3983582321,-3.370588006
 C,0,1.9139924902,-0.5187503403,-4.9854553751
 H,0,2.4344682589,-1.3143790618,-5.5115338378
 C,0,2.63067958,0.5482119406,-4.4404610845
 H,0,3.711519242,0.6063108383,-4.5156268786
 N,0,-0.6316606786,-0.9128493452,-1.2974862404
 H,0,0.0757389703,-1.1885506691,-1.9773207824
 C,0,-0.1162498469,-0.7128454767,0.0560628694
 H,0,-0.4878227446,0.2503340534,0.4252470127
 C,0,1.414758875,-0.6703707211,-0.1121303881
 C,0,-0.6046778838,-1.8253694219,1.0340724532
 H,0,-1.6955766193,-1.828849867,0.9170273485
 O,0,1.9481119235,-1.2470148303,-1.0603820649
 C,0,-0.0689170072,-3.215494635,0.6668584217
 H,0,1.0172009711,-3.2786216837,0.7963620363
 H,0,-0.5269090651,-3.9771744549,1.3074095746
 H,0,-0.2927240071,-3.4722131998,-0.3736482975
 C,0,-0.2993007364,-1.4695468397,2.4962498424
 H,0,0.7778868968,-1.4664079947,2.6977776884
 H,0,-0.7038128285,-0.4849809991,2.7643818067
 H,0,-0.7561864551,-2.2054193581,3.1665568991
 N,0,2.1163304365,0.0151514204,0.8170694285
 H,0,1.6692851075,0.5116743644,1.5775377586
 C,0,3.5603457622,0.1665912645,0.7037596176
 H,0,3.9854407025,-0.8167956453,0.4776618745
 C,0,4.0958180167,0.6710772474,2.0473122603
 C,0,3.9692009371,1.1641368265,-0.4295701794
 H,0,3.1253435476,1.2647006471,-1.1149929196
 H,0,4.1480446328,2.1547921371,0.0068129144
 O,0,3.2828972348,1.1622288745,2.8840405834
 C,0,5.2018446791,0.7127671237,-1.2366384693
 H,0,4.9060540127,-0.1047980063,-1.901762606
 H,0,6.002822434,0.3543515806,-0.586404576
 C,0,5.722982233,1.8708136392,-2.0890033052
 N,0,6.8426267215,2.4581849089,-1.6114002223
 H,0,7.2681887239,2.1857101067,-0.7180427287
 H,0,7.1981826451,3.2642599275,-2.1076009211
 O,0,5.1286709613,2.243514225,-3.1039260651
 N,0,5.4083971946,0.6135584176,2.2035034897
 H,0,5.9979055514,0.3933501698,1.3836777337
 C,0,6.2522177507,1.4381561614,3.0759726004
 H,0,5.6829829455,2.3079586559,3.4192165066
 C,0,7.4110392144,2.0141876808,2.1498760667
 C,0,6.834905212,0.6522461505,4.2543573736
 H,0,7.6596407321,1.2489023508,4.6603637474
 H,0,7.2792919397,-0.267546417,3.8553769533
 O,0,8.0813933955,2.9102858759,2.664193305
 C,0,5.8408679402,0.291099568,5.3725158471
 H,0,4.9318192824,-0.1431852175,4.9331589963
 H,0,6.2794991007,-0.5051442866,5.9837791433
 C,0,5.4784082747,1.4760812058,6.3095909872
 H,0,6.1120074057,2.3474134176,6.0905337696
 H,0,5.706735113,1.2097719327,7.3478813818
 C,0,4.0161521529,1.9155197432,6.31599384
 H,0,3.3366402087,1.0654128834,6.4222515061
 H,0,3.8199716976,2.6210839286,7.1283455913
 N,0,3.6226885784,2.6098032244,5.0327941469
 H,0,2.6825594269,3.009747123,5.1042067721
 H,0,3.611270637,1.9494743126,4.1582563503
 H,0,4.2665720465,3.381197999,4.8311019576
 O,0,7.4768621363,1.4528846329,1.0116061438
 Recover connectivity data from disk.
                           ----------------------------
                           !    Current Parameters    !
                           ! (Angstroms and Degrees)  !
 --------------------------                            --------------------------
 ! Name  Definition              Value                                          !
 --------------------------------------------------------------------------------
 ! R1    R(1,2)                  1.0234                                         !
 ! R2    R(1,3)                  1.0234                                         !
 ! R3    R(1,4)                  1.0697                                         !
 ! R4    R(1,5)                  1.5197                                         !
 ! R5    R(5,6)                  1.0915                                         !
 ! R6    R(5,7)                  1.5562                                         !
 ! R7    R(5,8)                  1.5522                                         !
 ! R8    R(7,10)                 1.2443                                         !
 ! R9    R(7,22)                 1.3237                                         !
 ! R10   R(8,9)                  1.102                                          !
 ! R11   R(8,11)                 1.546                                          !
 ! R12   R(8,14)                 1.5381                                         !
 ! R13   R(11,12)                1.0967                                         !
 ! R14   R(11,13)                1.0964                                         !
 ! R15   R(11,18)                1.5336                                         !
 ! R16   R(14,15)                1.095                                          !
 ! R17   R(14,16)                1.0937                                         !
 ! R18   R(14,17)                1.0974                                         !
 ! R19   R(18,19)                1.0938                                         !
 ! R20   R(18,20)                1.0973                                         !
 ! R21   R(18,21)                1.0967                                         !
 ! R22   R(22,23)                1.0224                                         !
 ! R23   R(22,24)                1.4653                                         !
 ! R24   R(24,25)                1.0937                                         !
 ! R25   R(24,26)                1.5461                                         !
 ! R26   R(24,27)                1.5553                                         !
 ! R27   R(26,30)                1.2399                                         !
 ! R28   R(26,42)                1.3378                                         !
 ! R29   R(27,28)                1.0962                                         !
 ! R30   R(27,29)                1.0968                                         !
 ! R31   R(27,31)                1.5142                                         !
 ! R32   R(31,32)                1.4013                                         !
 ! R33   R(31,34)                1.4032                                         !
 ! R34   R(32,33)                1.0884                                         !
 ! R35   R(32,36)                1.3958                                         !
 ! R36   R(34,35)                1.0891                                         !
 ! R37   R(34,38)                1.3961                                         !
 ! R38   R(36,37)                1.0854                                         !
 ! R39   R(36,40)                1.3961                                         !
 ! R40   R(38,39)                1.0866                                         !
 ! R41   R(38,40)                1.3961                                         !
 ! R42   R(40,41)                1.085                                          !
 ! R43   R(42,43)                1.0191                                         !
 ! R44   R(42,44)                1.4621                                         !
 ! R45   R(44,45)                1.0964                                         !
 ! R46   R(44,46)                1.5408                                         !
 ! R47   R(44,47)                1.5597                                         !
 ! R48   R(46,49)                1.2313                                         !
 ! R49   R(46,58)                1.3511                                         !
 ! R50   R(47,48)                1.0972                                         !
 ! R51   R(47,50)                1.5344                                         !
 ! R52   R(47,54)                1.5355                                         !
 ! R53   R(50,51)                1.0956                                         !
 ! R54   R(50,52)                1.0955                                         !
 ! R55   R(50,53)                1.0948                                         !
 ! R56   R(54,55)                1.0959                                         !
 ! R57   R(54,56)                1.0977                                         !
 ! R58   R(54,57)                1.0952                                         !
 ! R59   R(58,59)                1.0123                                         !
 ! R60   R(58,60)                1.4563                                         !
 ! R61   R(60,61)                1.0949                                         !
 ! R62   R(60,62)                1.5318                                         !
 ! R63   R(60,63)                1.5642                                         !
 ! R64   R(62,66)                1.2658                                         !
 ! R65   R(62,75)                1.3231                                         !
 ! R66   R(63,64)                1.0918                                         !
 ! R67   R(63,65)                1.0972                                         !
 ! R68   R(63,67)                1.5409                                         !
 ! R69   R(67,68)                1.0947                                         !
 ! R70   R(67,69)                1.0922                                         !
 ! R71   R(67,70)                1.5294                                         !
 ! R72   R(70,71)                1.3516                                         !
 ! R73   R(70,74)                1.2338                                         !
 ! R74   R(71,72)                1.0264                                         !
 ! R75   R(71,73)                1.0111                                         !
 ! R76   R(75,76)                1.0335                                         !
 ! R77   R(75,77)                1.4674                                         !
 ! R78   R(77,78)                1.0947                                         !
 ! R79   R(77,79)                1.5913                                         !
 ! R80   R(77,80)                1.5316                                         !
 ! R81   R(79,83)                1.2316                                         !
 ! R82   R(79,97)                1.2708                                         !
 ! R83   R(80,81)                1.0959                                         !
 ! R84   R(80,82)                1.0967                                         !
 ! R85   R(80,84)                1.5391                                         !
 ! R86   R(84,85)                1.0991                                         !
 ! R87   R(84,86)                1.0955                                         !
 ! R88   R(84,87)                1.5536                                         !
 ! R89   R(87,88)                1.0994                                         !
 ! R90   R(87,89)                1.0959                                         !
 ! R91   R(87,90)                1.5269                                         !
 ! R92   R(90,91)                1.0935                                         !
 ! R93   R(90,92)                1.0937                                         !
 ! R94   R(90,93)                1.5111                                         !
 ! R95   R(93,94)                1.0242                                         !
 ! R96   R(93,95)                1.0959                                         !
 ! R97   R(93,96)                1.0248                                         !
 ! A1    A(2,1,3)              108.708                                          !
 ! A2    A(2,1,4)              109.2089                                         !
 ! A3    A(2,1,5)              113.2233                                         !
 ! A4    A(3,1,4)              111.1306                                         !
 ! A5    A(3,1,5)              113.1127                                         !
 ! A6    A(4,1,5)              101.261                                          !
 ! A7    A(1,5,6)              107.5182                                         !
 ! A8    A(1,5,7)              101.708                                          !
 ! A9    A(1,5,8)              110.1913                                         !
 ! A10   A(6,5,7)              111.0055                                         !
 ! A11   A(6,5,8)              110.4133                                         !
 ! A12   A(7,5,8)              115.4292                                         !
 ! A13   A(5,7,10)             117.1422                                         !
 ! A14   A(5,7,22)             117.2574                                         !
 ! A15   A(10,7,22)            125.5998                                         !
 ! A16   A(5,8,9)              105.1295                                         !
 ! A17   A(5,8,11)             112.8164                                         !
 ! A18   A(5,8,14)             112.2943                                         !
 ! A19   A(9,8,11)             106.3064                                         !
 ! A20   A(9,8,14)             108.7575                                         !
 ! A21   A(11,8,14)            111.1013                                         !
 ! A22   A(8,11,12)            110.1724                                         !
 ! A23   A(8,11,13)            106.075                                          !
 ! A24   A(8,11,18)            115.5477                                         !
 ! A25   A(12,11,13)           105.493                                          !
 ! A26   A(12,11,18)           110.2313                                         !
 ! A27   A(13,11,18)           108.7519                                         !
 ! A28   A(8,14,15)            111.3544                                         !
 ! A29   A(8,14,16)            109.6848                                         !
 ! A30   A(8,14,17)            113.5167                                         !
 ! A31   A(15,14,16)           107.7402                                         !
 ! A32   A(15,14,17)           107.4041                                         !
 ! A33   A(16,14,17)           106.8828                                         !
 ! A34   A(11,18,19)           110.0454                                         !
 ! A35   A(11,18,20)           113.0782                                         !
 ! A36   A(11,18,21)           111.5606                                         !
 ! A37   A(19,18,20)           106.4418                                         !
 ! A38   A(19,18,21)           107.5409                                         !
 ! A39   A(20,18,21)           107.8957                                         !
 ! A40   A(7,22,23)            123.1761                                         !
 ! A41   A(7,22,24)            125.007                                          !
 ! A42   A(23,22,24)           111.6765                                         !
 ! A43   A(22,24,25)           108.7019                                         !
 ! A44   A(22,24,26)           103.7149                                         !
 ! A45   A(22,24,27)           110.7265                                         !
 ! A46   A(25,24,26)           110.7053                                         !
 ! A47   A(25,24,27)           109.3446                                         !
 ! A48   A(26,24,27)           113.4588                                         !
 ! A49   A(24,26,30)           119.1675                                         !
 ! A50   A(24,26,42)           116.3046                                         !
 ! A51   A(30,26,42)           124.5273                                         !
 ! A52   A(24,27,28)           108.1954                                         !
 ! A53   A(24,27,29)           106.2448                                         !
 ! A54   A(24,27,31)           114.3162                                         !
 ! A55   A(28,27,29)           107.307                                          !
 ! A56   A(28,27,31)           110.4071                                         !
 ! A57   A(29,27,31)           110.0642                                         !
 ! A58   A(27,31,32)           120.7625                                         !
 ! A59   A(27,31,34)           120.4967                                         !
 ! A60   A(32,31,34)           118.7376                                         !
 ! A61   A(31,32,33)           119.4177                                         !
 ! A62   A(31,32,36)           120.6911                                         !
 ! A63   A(33,32,36)           119.8874                                         !
 ! A64   A(31,34,35)           119.8087                                         !
 ! A65   A(31,34,38)           120.6087                                         !
 ! A66   A(35,34,38)           119.5741                                         !
 ! A67   A(32,36,37)           121.2412                                         !
 ! A68   A(32,36,40)           120.128                                          !
 ! A69   A(37,36,40)           118.6306                                         !
 ! A70   A(34,38,39)           119.6678                                         !
 ! A71   A(34,38,40)           120.1513                                         !
 ! A72   A(39,38,40)           120.1793                                         !
 ! A73   A(36,40,38)           119.6773                                         !
 ! A74   A(36,40,41)           118.6369                                         !
 ! A75   A(38,40,41)           121.6858                                         !
 ! A76   A(26,42,43)           121.5401                                         !
 ! A77   A(26,42,44)           123.6416                                         !
 ! A78   A(43,42,44)           114.1967                                         !
 ! A79   A(42,44,45)           108.2057                                         !
 ! A80   A(42,44,46)           104.6544                                         !
 ! A81   A(42,44,47)           111.8712                                         !
 ! A82   A(45,44,46)           110.4439                                         !
 ! A83   A(45,44,47)           108.0198                                         !
 ! A84   A(46,44,47)           113.5323                                         !
 ! A85   A(44,46,49)           120.1028                                         !
 ! A86   A(44,46,58)           117.056                                          !
 ! A87   A(49,46,58)           122.841                                          !
 ! A88   A(44,47,48)           104.2841                                         !
 ! A89   A(44,47,50)           112.7562                                         !
 ! A90   A(44,47,54)           111.6861                                         !
 ! A91   A(48,47,50)           108.5886                                         !
 ! A92   A(48,47,54)           107.4611                                         !
 ! A93   A(50,47,54)           111.6165                                         !
 ! A94   A(47,50,51)           111.7187                                         !
 ! A95   A(47,50,52)           110.1199                                         !
 ! A96   A(47,50,53)           111.6237                                         !
 ! A97   A(51,50,52)           107.7733                                         !
 ! A98   A(51,50,53)           107.546                                          !
 ! A99   A(52,50,53)           107.8902                                         !
 ! A100  A(47,54,55)           111.7932                                         !
 ! A101  A(47,54,56)           111.5409                                         !
 ! A102  A(47,54,57)           110.1286                                         !
 ! A103  A(55,54,56)           108.3452                                         !
 ! A104  A(55,54,57)           107.4225                                         !
 ! A105  A(56,54,57)           107.4227                                         !
 ! A106  A(46,58,59)           122.4254                                         !
 ! A107  A(46,58,60)           120.9374                                         !
 ! A108  A(59,58,60)           116.4444                                         !
 ! A109  A(58,60,61)           107.9161                                         !
 ! A110  A(58,60,62)           108.217                                          !
 ! A111  A(58,60,63)           112.4489                                         !
 ! A112  A(61,60,62)           109.9497                                         !
 ! A113  A(61,60,63)           108.7643                                         !
 ! A114  A(62,60,63)           109.5179                                         !
 ! A115  A(60,62,66)           118.8877                                         !
 ! A116  A(60,62,75)           115.8504                                         !
 ! A117  A(66,62,75)           125.1671                                         !
 ! A118  A(60,63,64)           108.1546                                         !
 ! A119  A(60,63,65)           109.284                                          !
 ! A120  A(60,63,67)           113.6885                                         !
 ! A121  A(64,63,65)           107.0085                                         !
 ! A122  A(64,63,67)           108.4481                                         !
 ! A123  A(65,63,67)           110.0231                                         !
 ! A124  A(63,67,68)           108.7145                                         !
 ! A125  A(63,67,69)           111.7749                                         !
 ! A126  A(63,67,70)           110.0394                                         !
 ! A127  A(68,67,69)           108.3496                                         !
 ! A128  A(68,67,70)           108.5996                                         !
 ! A129  A(69,67,70)           109.2922                                         !
 ! A130  A(67,70,71)           114.481                                          !
 ! A131  A(67,70,74)           121.5368                                         !
 ! A132  A(71,70,74)           123.9492                                         !
 ! A133  A(70,71,72)           122.3905                                         !
 ! A134  A(70,71,73)           117.6677                                         !
 ! A135  A(72,71,73)           119.5364                                         !
 ! A136  A(62,75,76)           118.7826                                         !
 ! A137  A(62,75,77)           128.0425                                         !
 ! A138  A(76,75,77)           105.2704                                         !
 ! A139  A(75,77,78)           109.5061                                         !
 ! A140  A(75,77,79)           106.0308                                         !
 ! A141  A(75,77,80)           112.8226                                         !
 ! A142  A(78,77,79)           105.8738                                         !
 ! A143  A(78,77,80)           111.3643                                         !
 ! A144  A(79,77,80)           110.8826                                         !
 ! A145  A(77,79,83)           114.6263                                         !
 ! A146  A(77,79,97)           113.5214                                         !
 ! A147  A(83,79,97)           131.8507                                         !
 ! A148  A(77,80,81)           106.9762                                         !
 ! A149  A(77,80,82)           107.7355                                         !
 ! A150  A(77,80,84)           115.6997                                         !
 ! A151  A(81,80,82)           106.6463                                         !
 ! A152  A(81,80,84)           110.1601                                         !
 ! A153  A(82,80,84)           109.2213                                         !
 ! A154  A(80,84,85)           109.6627                                         !
 ! A155  A(80,84,86)           108.5018                                         !
 ! A156  A(80,84,87)           114.199                                          !
 ! A157  A(85,84,86)           105.4873                                         !
 ! A158  A(85,84,87)           110.4584                                         !
 ! A159  A(86,84,87)           108.1346                                         !
 ! A160  A(84,87,88)           110.4795                                         !
 ! A161  A(84,87,89)           109.7238                                         !
 ! A162  A(84,87,90)           116.4538                                         !
 ! A163  A(88,87,89)           105.1466                                         !
 ! A164  A(88,87,90)           108.9452                                         !
 ! A165  A(89,87,90)           105.3956                                         !
 ! A166  A(87,90,91)           111.8255                                         !
 ! A167  A(87,90,92)           111.1344                                         !
 ! A168  A(87,90,93)           112.2119                                         !
 ! A169  A(91,90,92)           108.5351                                         !
 ! A170  A(91,90,93)           106.1352                                         !
 ! A171  A(92,90,93)           106.7155                                         !
 ! A172  A(90,93,94)           111.0528                                         !
 ! A173  A(90,93,95)           113.7988                                         !
 ! A174  A(90,93,96)           110.448                                          !
 ! A175  A(94,93,95)           106.3427                                         !
 ! A176  A(94,93,96)           107.2483                                         !
 ! A177  A(95,93,96)           107.6396                                         !
 ! D1    D(2,1,5,6)             12.3295                                         !
 ! D2    D(2,1,5,7)           -104.3688                                         !
 ! D3    D(2,1,5,8)            132.7128                                         !
 ! D4    D(3,1,5,6)           -111.9074                                         !
 ! D5    D(3,1,5,7)            131.3943                                         !
 ! D6    D(3,1,5,8)              8.4759                                         !
 ! D7    D(4,1,5,6)            129.1043                                         !
 ! D8    D(4,1,5,7)             12.406                                          !
 ! D9    D(4,1,5,8)           -110.5124                                         !
 ! D10   D(1,5,7,10)           -13.1951                                         !
 ! D11   D(1,5,7,22)           167.0749                                         !
 ! D12   D(6,5,7,10)          -127.3284                                         !
 ! D13   D(6,5,7,22)            52.9417                                         !
 ! D14   D(8,5,7,10)           106.069                                          !
 ! D15   D(8,5,7,22)           -73.661                                          !
 ! D16   D(1,5,8,9)            -53.1634                                         !
 ! D17   D(1,5,8,11)          -168.586                                          !
 ! D18   D(1,5,8,14)            64.9279                                         !
 ! D19   D(6,5,8,9)             65.4614                                         !
 ! D20   D(6,5,8,11)           -49.9612                                         !
 ! D21   D(6,5,8,14)          -176.4473                                         !
 ! D22   D(7,5,8,9)           -167.6361                                         !
 ! D23   D(7,5,8,11)            76.9413                                         !
 ! D24   D(7,5,8,14)           -49.5448                                         !
 ! D25   D(5,7,22,23)            1.6511                                         !
 ! D26   D(5,7,22,24)          176.9802                                         !
 ! D27   D(10,7,22,23)        -178.0534                                         !
 ! D28   D(10,7,22,24)          -2.7242                                         !
 ! D29   D(5,8,11,12)          -67.8709                                         !
 ! D30   D(5,8,11,13)          178.4245                                         !
 ! D31   D(5,8,11,18)           57.8573                                         !
 ! D32   D(9,8,11,12)          177.4147                                         !
 ! D33   D(9,8,11,13)           63.71                                           !
 ! D34   D(9,8,11,18)          -56.8571                                         !
 ! D35   D(14,8,11,12)          59.2497                                         !
 ! D36   D(14,8,11,13)         -54.4549                                         !
 ! D37   D(14,8,11,18)        -175.0221                                         !
 ! D38   D(5,8,14,15)           66.859                                          !
 ! D39   D(5,8,14,16)         -173.9751                                         !
 ! D40   D(5,8,14,17)          -54.4991                                         !
 ! D41   D(9,8,14,15)         -177.2188                                         !
 ! D42   D(9,8,14,16)          -58.0528                                         !
 ! D43   D(9,8,14,17)           61.4231                                         !
 ! D44   D(11,8,14,15)         -60.5466                                         !
 ! D45   D(11,8,14,16)          58.6193                                         !
 ! D46   D(11,8,14,17)         178.0953                                         !
 ! D47   D(8,11,18,19)         172.4561                                         !
 ! D48   D(8,11,18,20)         -68.6644                                         !
 ! D49   D(8,11,18,21)          53.1727                                         !
 ! D50   D(12,11,18,19)        -61.8458                                         !
 ! D51   D(12,11,18,20)         57.0337                                         !
 ! D52   D(12,11,18,21)        178.8708                                         !
 ! D53   D(13,11,18,19)         53.353                                          !
 ! D54   D(13,11,18,20)        172.2325                                         !
 ! D55   D(13,11,18,21)        -65.9303                                         !
 ! D56   D(7,22,24,25)         -38.7865                                         !
 ! D57   D(7,22,24,26)        -156.6159                                         !
 ! D58   D(7,22,24,27)          81.3465                                         !
 ! D59   D(23,22,24,25)        137.0075                                         !
 ! D60   D(23,22,24,26)         19.1781                                         !
 ! D61   D(23,22,24,27)       -102.8596                                         !
 ! D62   D(22,24,26,30)        -19.3888                                         !
 ! D63   D(22,24,26,42)        160.3389                                         !
 ! D64   D(25,24,26,30)       -135.8178                                         !
 ! D65   D(25,24,26,42)         43.9099                                         !
 ! D66   D(27,24,26,30)        100.8115                                         !
 ! D67   D(27,24,26,42)        -79.4607                                         !
 ! D68   D(22,24,27,28)         61.8483                                         !
 ! D69   D(22,24,27,29)        -53.1091                                         !
 ! D70   D(22,24,27,31)       -174.6957                                         !
 ! D71   D(25,24,27,28)       -178.4035                                         !
 ! D72   D(25,24,27,29)         66.6391                                         !
 ! D73   D(25,24,27,31)        -54.9475                                         !
 ! D74   D(26,24,27,28)        -54.2904                                         !
 ! D75   D(26,24,27,29)       -169.2478                                         !
 ! D76   D(26,24,27,31)         69.1656                                         !
 ! D77   D(24,26,42,43)          4.5572                                         !
 ! D78   D(24,26,42,44)        174.9886                                         !
 ! D79   D(30,26,42,43)       -175.7314                                         !
 ! D80   D(30,26,42,44)         -5.3                                            !
 ! D81   D(24,27,31,32)       -113.8082                                         !
 ! D82   D(24,27,31,34)         66.8512                                         !
 ! D83   D(28,27,31,32)          8.4483                                         !
 ! D84   D(28,27,31,34)       -170.8924                                         !
 ! D85   D(29,27,31,32)        126.7298                                         !
 ! D86   D(29,27,31,34)        -52.6109                                         !
 ! D87   D(27,31,32,33)         -0.1959                                         !
 ! D88   D(27,31,32,36)       -179.4872                                         !
 ! D89   D(34,31,32,33)        179.1561                                         !
 ! D90   D(34,31,32,36)         -0.1351                                         !
 ! D91   D(27,31,34,35)          1.0777                                         !
 ! D92   D(27,31,34,38)       -179.9896                                         !
 ! D93   D(32,31,34,35)       -178.2761                                         !
 ! D94   D(32,31,34,38)          0.6565                                         !
 ! D95   D(31,32,36,37)        179.5764                                         !
 ! D96   D(31,32,36,40)         -0.5642                                         !
 ! D97   D(33,32,36,37)          0.2885                                         !
 ! D98   D(33,32,36,40)       -179.8521                                         !
 ! D99   D(31,34,38,39)        179.9768                                         !
 ! D100  D(31,34,38,40)         -0.481                                          !
 ! D101  D(35,34,38,39)         -1.088                                          !
 ! D102  D(35,34,38,40)        178.4542                                         !
 ! D103  D(32,36,40,38)          0.7434                                         !
 ! D104  D(32,36,40,41)       -179.2311                                         !
 ! D105  D(37,36,40,38)       -179.3936                                         !
 ! D106  D(37,36,40,41)          0.632                                          !
 ! D107  D(34,38,40,36)         -0.2246                                         !
 ! D108  D(34,38,40,41)        179.749                                          !
 ! D109  D(39,38,40,36)        179.3152                                         !
 ! D110  D(39,38,40,41)         -0.7112                                         !
 ! D111  D(26,42,44,45)        -39.9764                                         !
 ! D112  D(26,42,44,46)       -157.7555                                         !
 ! D113  D(26,42,44,47)         78.9003                                         !
 ! D114  D(43,42,44,45)        131.0884                                         !
 ! D115  D(43,42,44,46)         13.3093                                         !
 ! D116  D(43,42,44,47)       -110.0349                                         !
 ! D117  D(42,44,46,49)        -26.1698                                         !
 ! D118  D(42,44,46,58)        153.9451                                         !
 ! D119  D(45,44,46,49)       -142.4089                                         !
 ! D120  D(45,44,46,58)         37.706                                          !
 ! D121  D(47,44,46,49)         96.0963                                         !
 ! D122  D(47,44,46,58)        -83.7888                                         !
 ! D123  D(42,44,47,48)        -52.9702                                         !
 ! D124  D(42,44,47,50)         64.6431                                         !
 ! D125  D(42,44,47,54)       -168.7213                                         !
 ! D126  D(45,44,47,48)         66.0165                                         !
 ! D127  D(45,44,47,50)       -176.3702                                         !
 ! D128  D(45,44,47,54)        -49.7346                                         !
 ! D129  D(46,44,47,48)       -171.144                                          !
 ! D130  D(46,44,47,50)        -53.5306                                         !
 ! D131  D(46,44,47,54)         73.105                                          !
 ! D132  D(44,46,58,59)         -2.122                                          !
 ! D133  D(44,46,58,60)       -176.8968                                         !
 ! D134  D(49,46,58,59)        177.9963                                         !
 ! D135  D(49,46,58,60)          3.2214                                         !
 ! D136  D(44,47,50,51)         66.7369                                         !
 ! D137  D(44,47,50,52)       -173.537                                          !
 ! D138  D(44,47,50,53)        -53.7256                                         !
 ! D139  D(48,47,50,51)       -178.2165                                         !
 ! D140  D(48,47,50,52)        -58.4904                                         !
 ! D141  D(48,47,50,53)         61.321                                          !
 ! D142  D(54,47,50,51)        -59.9359                                         !
 ! D143  D(54,47,50,52)         59.7903                                         !
 ! D144  D(54,47,50,53)        179.6017                                         !
 ! D145  D(44,47,54,55)        -67.3889                                         !
 ! D146  D(44,47,54,56)         54.0942                                         !
 ! D147  D(44,47,54,57)        173.2717                                         !
 ! D148  D(48,47,54,55)        178.8179                                         !
 ! D149  D(48,47,54,56)        -59.699                                          !
 ! D150  D(48,47,54,57)         59.4785                                         !
 ! D151  D(50,47,54,55)         59.8648                                         !
 ! D152  D(50,47,54,56)       -178.6521                                         !
 ! D153  D(50,47,54,57)        -59.4747                                         !
 ! D154  D(46,58,60,61)        -47.2255                                         !
 ! D155  D(46,58,60,62)       -166.1664                                         !
 ! D156  D(46,58,60,63)         72.7326                                         !
 ! D157  D(59,58,60,61)        137.6997                                         !
 ! D158  D(59,58,60,62)         18.7588                                         !
 ! D159  D(59,58,60,63)       -102.3423                                         !
 ! D160  D(58,60,62,66)        -16.141                                          !
 ! D161  D(58,60,62,75)        167.216                                          !
 ! D162  D(61,60,62,66)       -133.7859                                         !
 ! D163  D(61,60,62,75)         49.5711                                         !
 ! D164  D(63,60,62,66)        106.7592                                         !
 ! D165  D(63,60,62,75)        -69.8837                                         !
 ! D166  D(58,60,63,64)        -19.6787                                         !
 ! D167  D(58,60,63,65)         96.4803                                         !
 ! D168  D(58,60,63,67)       -140.1779                                         !
 ! D169  D(61,60,63,64)         99.7867                                         !
 ! D170  D(61,60,63,65)       -144.0543                                         !
 ! D171  D(61,60,63,67)        -20.7125                                         !
 ! D172  D(62,60,63,64)       -140.0318                                         !
 ! D173  D(62,60,63,65)        -23.8727                                         !
 ! D174  D(62,60,63,67)         99.469                                          !
 ! D175  D(60,62,75,76)         10.1169                                         !
 ! D176  D(60,62,75,77)        154.352                                          !
 ! D177  D(66,62,75,76)       -166.2872                                         !
 ! D178  D(66,62,75,77)        -22.0521                                         !
 ! D179  D(60,63,67,68)         74.2381                                         !
 ! D180  D(60,63,67,69)        -45.3164                                         !
 ! D181  D(60,63,67,70)       -166.9444                                         !
 ! D182  D(64,63,67,68)        -46.0958                                         !
 ! D183  D(64,63,67,69)       -165.6503                                         !
 ! D184  D(64,63,67,70)         72.7218                                         !
 ! D185  D(65,63,67,68)       -162.8245                                         !
 ! D186  D(65,63,67,69)         77.6211                                         !
 ! D187  D(65,63,67,70)        -44.0069                                         !
 ! D188  D(63,67,70,71)        104.1002                                         !
 ! D189  D(63,67,70,74)        -73.8888                                         !
 ! D190  D(68,67,70,71)       -137.0118                                         !
 ! D191  D(68,67,70,74)         44.9992                                         !
 ! D192  D(69,67,70,71)        -18.9954                                         !
 ! D193  D(69,67,70,74)        163.0156                                         !
 ! D194  D(67,70,71,72)         -3.8185                                         !
 ! D195  D(67,70,71,73)       -176.4692                                         !
 ! D196  D(74,70,71,72)        174.1153                                         !
 ! D197  D(74,70,71,73)          1.4646                                         !
 ! D198  D(62,75,77,78)        -14.3633                                         !
 ! D199  D(62,75,77,79)       -128.1727                                         !
 ! D200  D(62,75,77,80)        110.2738                                         !
 ! D201  D(76,75,77,78)        133.5636                                         !
 ! D202  D(76,75,77,79)         19.7542                                         !
 ! D203  D(76,75,77,80)       -101.7992                                         !
 ! D204  D(75,77,79,83)        168.1505                                         !
 ! D205  D(75,77,79,97)        -12.2543                                         !
 ! D206  D(78,77,79,83)         51.8617                                         !
 ! D207  D(78,77,79,97)       -128.543                                          !
 ! D208  D(80,77,79,83)        -69.0592                                         !
 ! D209  D(80,77,79,97)        110.536                                          !
 ! D210  D(75,77,80,81)        163.6115                                         !
 ! D211  D(75,77,80,82)         49.2751                                         !
 ! D212  D(75,77,80,84)        -73.2392                                         !
 ! D213  D(78,77,80,81)        -72.773                                          !
 ! D214  D(78,77,80,82)        172.8906                                         !
 ! D215  D(78,77,80,84)         50.3763                                         !
 ! D216  D(79,77,80,81)         44.846                                          !
 ! D217  D(79,77,80,82)        -69.4904                                         !
 ! D218  D(79,77,80,84)        167.9954                                         !
 ! D219  D(77,80,84,85)         48.2176                                         !
 ! D220  D(77,80,84,86)        162.9628                                         !
 ! D221  D(77,80,84,87)        -76.359                                          !
 ! D222  D(81,80,84,85)        169.675                                          !
 ! D223  D(81,80,84,86)        -75.5798                                         !
 ! D224  D(81,80,84,87)         45.0984                                         !
 ! D225  D(82,80,84,85)        -73.5057                                         !
 ! D226  D(82,80,84,86)         41.2395                                         !
 ! D227  D(82,80,84,87)        161.9178                                         !
 ! D228  D(80,84,87,88)         -7.9002                                         !
 ! D229  D(80,84,87,89)       -123.3805                                         !
 ! D230  D(80,84,87,90)        117.0549                                         !
 ! D231  D(85,84,87,88)       -132.0518                                         !
 ! D232  D(85,84,87,89)        112.4678                                         !
 ! D233  D(85,84,87,90)         -7.0967                                         !
 ! D234  D(86,84,87,88)        112.9822                                         !
 ! D235  D(86,84,87,89)         -2.4982                                         !
 ! D236  D(86,84,87,90)       -122.0628                                         !
 ! D237  D(84,87,90,91)         48.1044                                         !
 ! D238  D(84,87,90,92)        169.5666                                         !
 ! D239  D(84,87,90,93)        -71.0321                                         !
 ! D240  D(88,87,90,91)        173.8347                                         !
 ! D241  D(88,87,90,92)        -64.7031                                         !
 ! D242  D(88,87,90,93)         54.6982                                         !
 ! D243  D(89,87,90,91)        -73.766                                          !
 ! D244  D(89,87,90,92)         47.6962                                         !
 ! D245  D(89,87,90,93)        167.0975                                         !
 ! D246  D(87,90,93,94)       -172.1939                                         !
 ! D247  D(87,90,93,95)         67.8532                                         !
 ! D248  D(87,90,93,96)        -53.3383                                         !
 ! D249  D(91,90,93,94)         65.382                                          !
 ! D250  D(91,90,93,95)        -54.5709                                         !
 ! D251  D(91,90,93,96)       -175.7623                                         !
 ! D252  D(92,90,93,94)        -50.238                                          !
 ! D253  D(92,90,93,95)       -170.1909                                         !
 ! D254  D(92,90,93,96)         68.6177                                         !
 --------------------------------------------------------------------------------
 Symmetry turned off by external request.
 Stoichiometry    C31H52N7O7(1+)
 Framework group  C1[X(C31H52N7O7)]
 Deg. of freedom   285
 Full point group                 C1      NOp   1
                          Input orientation:                          
 ---------------------------------------------------------------------
 Center     Atomic      Atomic             Coordinates (Angstroms)
 Number     Number       Type             X           Y           Z
 ---------------------------------------------------------------------
      1          7           0       -6.406045   -1.783962   -5.367003
      2          1           0       -6.790770   -0.998993   -5.899213
      3          1           0       -7.093072   -2.542486   -5.357873
      4          1           0       -5.489106   -2.099591   -5.818561
      5          6           0       -5.932668   -1.391072   -3.977335
      6          1           0       -6.312511   -0.388621   -3.772063
      7          6           0       -4.387674   -1.375034   -4.162813
      8          6           0       -6.467143   -2.398651   -2.924507
      9          1           0       -7.556187   -2.435998   -3.089048
     10          8           0       -3.934822   -1.895439   -5.198424
     11          6           0       -6.264149   -1.911508   -1.471407
     12          1           0       -5.195860   -1.894814   -1.223870
     13          1           0       -6.701759   -2.684127   -0.828272
     14          6           0       -5.888521   -3.810081   -3.121288
     15          1           0       -4.812539   -3.831622   -2.919373
     16          1           0       -6.371446   -4.506005   -2.429367
     17          1           0       -6.040814   -4.208731   -4.132328
     18          6           0       -6.908820   -0.562494   -1.129926
     19          1           0       -6.826626   -0.368692   -0.056599
     20          1           0       -6.428324    0.284261   -1.636116
     21          1           0       -7.974718   -0.548445   -1.387668
     22          7           0       -3.667759   -0.814444   -3.203874
     23          1           0       -4.077496   -0.422540   -2.353133
     24          6           0       -2.203727   -0.761820   -3.173417
     25          1           0       -1.810807   -1.710969   -3.548821
     26          6           0       -1.874275   -0.589083   -1.672737
     27          6           0       -1.676157    0.401306   -4.061016
     28          1           0       -2.057230    1.344117   -3.651818
     29          1           0       -2.133781    0.265576   -5.048534
     30          8           0       -2.754794   -0.174317   -0.904595
     31          6           0       -0.168280    0.452816   -4.189858
     32          6           0        0.561108    1.520721   -3.650250
     33          1           0        0.034139    2.322290   -3.135991
     34          6           0        0.523830   -0.563780   -4.865469
     35          1           0       -0.028176   -1.387449   -5.316003
     36          6           0        1.949988    1.572062   -3.779131
     37          1           0        2.523098    2.398358   -3.370588
     38          6           0        1.913992   -0.518750   -4.985455
     39          1           0        2.434468   -1.314379   -5.511534
     40          6           0        2.630680    0.548212   -4.440461
     41          1           0        3.711519    0.606311   -4.515627
     42          7           0       -0.631661   -0.912849   -1.297486
     43          1           0        0.075739   -1.188551   -1.977321
     44          6           0       -0.116250   -0.712845    0.056063
     45          1           0       -0.487823    0.250334    0.425247
     46          6           0        1.414759   -0.670371   -0.112130
     47          6           0       -0.604678   -1.825369    1.034072
     48          1           0       -1.695577   -1.828850    0.917027
     49          8           0        1.948112   -1.247015   -1.060382
     50          6           0       -0.068917   -3.215495    0.666858
     51          1           0        1.017201   -3.278622    0.796362
     52          1           0       -0.526909   -3.977174    1.307410
     53          1           0       -0.292724   -3.472213   -0.373648
     54          6           0       -0.299301   -1.469547    2.496250
     55          1           0        0.777887   -1.466408    2.697778
     56          1           0       -0.703813   -0.484981    2.764382
     57          1           0       -0.756186   -2.205419    3.166557
     58          7           0        2.116330    0.015151    0.817069
     59          1           0        1.669285    0.511674    1.577538
     60          6           0        3.560346    0.166591    0.703760
     61          1           0        3.985441   -0.816796    0.477662
     62          6           0        4.095818    0.671077    2.047312
     63          6           0        3.969201    1.164137   -0.429570
     64          1           0        3.125344    1.264701   -1.114993
     65          1           0        4.148045    2.154792    0.006813
     66          8           0        3.282897    1.162229    2.884041
     67          6           0        5.201845    0.712767   -1.236638
     68          1           0        4.906054   -0.104798   -1.901763
     69          1           0        6.002822    0.354352   -0.586405
     70          6           0        5.722982    1.870814   -2.089003
     71          7           0        6.842627    2.458185   -1.611400
     72          1           0        7.268189    2.185710   -0.718043
     73          1           0        7.198183    3.264260   -2.107601
     74          8           0        5.128671    2.243514   -3.103926
     75          7           0        5.408397    0.613558    2.203503
     76          1           0        5.997906    0.393350    1.383678
     77          6           0        6.252218    1.438156    3.075973
     78          1           0        5.682983    2.307959    3.419217
     79          6           0        7.411039    2.014188    2.149876
     80          6           0        6.834905    0.652246    4.254357
     81          1           0        7.659641    1.248902    4.660364
     82          1           0        7.279292   -0.267546    3.855377
     83          8           0        8.081393    2.910286    2.664193
     84          6           0        5.840868    0.291100    5.372516
     85          1           0        4.931819   -0.143185    4.933159
     86          1           0        6.279499   -0.505144    5.983779
     87          6           0        5.478408    1.476081    6.309591
     88          1           0        6.112007    2.347413    6.090534
     89          1           0        5.706735    1.209772    7.347881
     90          6           0        4.016152    1.915520    6.315994
     91          1           0        3.336640    1.065413    6.422252
     92          1           0        3.819972    2.621084    7.128346
     93          7           0        3.622689    2.609803    5.032794
     94          1           0        2.682559    3.009747    5.104207
     95          1           0        3.611271    1.949474    4.158256
     96          1           0        4.266572    3.381198    4.831102
     97          8           0        7.476862    1.452885    1.011606
 ---------------------------------------------------------------------
 Rotational constants (GHZ):           0.1187018           0.0296696           0.0251617
 Standard basis: 6-31G(d) (6D, 7F)
   779 basis functions,  1468 primitive gaussians,   779 cartesian basis functions
   171 alpha electrons      171 beta electrons
       nuclear repulsion energy      5852.8969548651 Hartrees.
 NAtoms=   97 NActive=   97 NUniq=   97 SFac= 1.00D+00 NAtFMM=   60 NAOKFM=T Big=T
 Integral buffers will be    131072 words long.
 Raffenetti 2 integral format.
 Two-electron integral symmetry is turned off.
 One-electron integrals computed using PRISM.
 NBasis=   779 RedAO= T EigKep=  4.65D-04  NBF=   779
 NBsUse=   779 1.00D-06 EigRej= -1.00D+00 NBFU=   779
 Initial guess from the checkpoint file:  "conf-578.chk"
 B after Tr=     0.000000    0.000000    0.000000
         Rot=    1.000000    0.000000    0.000000    0.000000 Ang=   0.00 deg.
 Requested convergence on RMS density matrix=1.00D-08 within 128 cycles.
 Requested convergence on MAX density matrix=1.00D-06.
 Requested convergence on             energy=1.00D-06.
 No special actions if energy rises.
 SCF Done:  E(RB3LYP) =  -2122.32766912     A.U. after    3 cycles
            NFock=  3  Conv=0.52D-09     -V/T= 2.0095

 **********************************************************************

            Population analysis using the SCF Density.

 **********************************************************************

 Alpha  occ. eigenvalues --  -19.26709 -19.22339 -19.21594 -19.19408 -19.13450
 Alpha  occ. eigenvalues --  -19.12153 -19.10683 -14.59731 -14.54266 -14.49223
 Alpha  occ. eigenvalues --  -14.44930 -14.43854 -14.42811 -14.36794 -10.43409
 Alpha  occ. eigenvalues --  -10.40440 -10.38567 -10.37802 -10.36608 -10.35273
 Alpha  occ. eigenvalues --  -10.34433 -10.34178 -10.31616 -10.31213 -10.30991
 Alpha  occ. eigenvalues --  -10.30590 -10.30580 -10.29797 -10.28847 -10.28801
 Alpha  occ. eigenvalues --  -10.28357 -10.27598 -10.27422 -10.26342 -10.26183
 Alpha  occ. eigenvalues --  -10.25420 -10.25127 -10.24990 -10.24793 -10.24486
 Alpha  occ. eigenvalues --  -10.24413 -10.24395 -10.23765 -10.23519 -10.22961
 Alpha  occ. eigenvalues --   -1.19127  -1.13776  -1.13233  -1.12828  -1.11387
 Alpha  occ. eigenvalues --   -1.09059  -1.05825  -1.05039  -1.04847  -1.01541
 Alpha  occ. eigenvalues --   -1.00200  -0.99902  -0.96360  -0.95404  -0.91839
 Alpha  occ. eigenvalues --   -0.91807  -0.89213  -0.89122  -0.87963  -0.86157
 Alpha  occ. eigenvalues --   -0.85777  -0.84559  -0.83512  -0.81457  -0.79907
 Alpha  occ. eigenvalues --   -0.79795  -0.78495  -0.76556  -0.76330  -0.75866
 Alpha  occ. eigenvalues --   -0.74931  -0.74214  -0.73466  -0.72533  -0.71058
 Alpha  occ. eigenvalues --   -0.69698  -0.68886  -0.68561  -0.68401  -0.67405
 Alpha  occ. eigenvalues --   -0.66591  -0.66280  -0.66100  -0.65199  -0.64487
 Alpha  occ. eigenvalues --   -0.64307  -0.64242  -0.62594  -0.61904  -0.60626
 Alpha  occ. eigenvalues --   -0.60506  -0.59900  -0.59099  -0.58078  -0.56953
 Alpha  occ. eigenvalues --   -0.56669  -0.56243  -0.55886  -0.55850  -0.55425
 Alpha  occ. eigenvalues --   -0.54882  -0.54713  -0.54363  -0.54003  -0.53496
 Alpha  occ. eigenvalues --   -0.53067  -0.52764  -0.52644  -0.52350  -0.52029
 Alpha  occ. eigenvalues --   -0.51720  -0.51539  -0.50936  -0.50643  -0.49920
 Alpha  occ. eigenvalues --   -0.49669  -0.49562  -0.49453  -0.49107  -0.48601
 Alpha  occ. eigenvalues --   -0.48432  -0.47675  -0.47479  -0.46886  -0.46788
 Alpha  occ. eigenvalues --   -0.46587  -0.46343  -0.46120  -0.45834  -0.45577
 Alpha  occ. eigenvalues --   -0.45439  -0.45268  -0.45225  -0.45050  -0.44838
 Alpha  occ. eigenvalues --   -0.44351  -0.43112  -0.42281  -0.42196  -0.41686
 Alpha  occ. eigenvalues --   -0.41600  -0.41414  -0.41259  -0.41186  -0.41002
 Alpha  occ. eigenvalues --   -0.40668  -0.40446  -0.40138  -0.39588  -0.39418
 Alpha  occ. eigenvalues --   -0.38976  -0.38664  -0.38482  -0.36608  -0.35781
 Alpha  occ. eigenvalues --   -0.34863  -0.34438  -0.33270  -0.32633  -0.30587
 Alpha  occ. eigenvalues --   -0.30040  -0.28582  -0.27721  -0.26939  -0.26758
 Alpha  occ. eigenvalues --   -0.24756
 Alpha virt. eigenvalues --   -0.12179  -0.11132  -0.07699  -0.07064  -0.06834
 Alpha virt. eigenvalues --   -0.06619  -0.06165  -0.05827  -0.05342  -0.04953
 Alpha virt. eigenvalues --   -0.01848  -0.01144  -0.00685   0.00191   0.00346
 Alpha virt. eigenvalues --    0.00598   0.00743   0.00769   0.01564   0.02205
 Alpha virt. eigenvalues --    0.02498   0.02733   0.02963   0.03257   0.03335
 Alpha virt. eigenvalues --    0.03728   0.04341   0.04421   0.05031   0.05082
 Alpha virt. eigenvalues --    0.05207   0.05501   0.06043   0.06110   0.06263
 Alpha virt. eigenvalues --    0.06535   0.06841   0.07082   0.07568   0.07751
 Alpha virt. eigenvalues --    0.07865   0.08042   0.08221   0.08806   0.08953
 Alpha virt. eigenvalues --    0.09269   0.09459   0.09526   0.09901   0.10189
 Alpha virt. eigenvalues --    0.10589   0.10758   0.10929   0.11006   0.11151
 Alpha virt. eigenvalues --    0.11380   0.11534   0.11845   0.12081   0.12451
 Alpha virt. eigenvalues --    0.12800   0.12927   0.13207   0.13461   0.13837
 Alpha virt. eigenvalues --    0.14080   0.14657   0.14967   0.15272   0.15867
 Alpha virt. eigenvalues --    0.15961   0.16070   0.16564   0.17145   0.17650
 Alpha virt. eigenvalues --    0.17866   0.18301   0.18805   0.19381   0.19561
 Alpha virt. eigenvalues --    0.19942   0.20661   0.21131   0.21770   0.22484
 Alpha virt. eigenvalues --    0.22985   0.23792   0.24120   0.25088   0.25510
 Alpha virt. eigenvalues --    0.26360   0.27188   0.27482   0.28947   0.29008
 Alpha virt. eigenvalues --    0.29189   0.29556   0.31965   0.32609   0.33224
 Alpha virt. eigenvalues --    0.34345   0.35715   0.36790   0.37175   0.37890
 Alpha virt. eigenvalues --    0.38130   0.38393   0.39974   0.40531   0.40952
 Alpha virt. eigenvalues --    0.41863   0.42527   0.42590   0.42723   0.43006
 Alpha virt. eigenvalues --    0.43250   0.43868   0.44493   0.44938   0.45266
 Alpha virt. eigenvalues --    0.45385   0.45596   0.46937   0.47496   0.47678
 Alpha virt. eigenvalues --    0.48141   0.48398   0.48766   0.49092   0.49345
 Alpha virt. eigenvalues --    0.49437   0.49578   0.49757   0.50155   0.50599
 Alpha virt. eigenvalues --    0.51562   0.51675   0.51793   0.52258   0.52468
 Alpha virt. eigenvalues --    0.52879   0.53199   0.53559   0.53995   0.54273
 Alpha virt. eigenvalues --    0.54313   0.54813   0.55066   0.55555   0.55793
 Alpha virt. eigenvalues --    0.56223   0.56585   0.56686   0.56914   0.57415
 Alpha virt. eigenvalues --    0.57613   0.58021   0.58309   0.59033   0.59779
 Alpha virt. eigenvalues --    0.59989   0.60493   0.60623   0.60861   0.60945
 Alpha virt. eigenvalues --    0.61706   0.62738   0.63053   0.63161   0.63520
 Alpha virt. eigenvalues --    0.63971   0.64022   0.64111   0.64630   0.65202
 Alpha virt. eigenvalues --    0.65572   0.65642   0.65898   0.66185   0.66310
 Alpha virt. eigenvalues --    0.67171   0.67547   0.67997   0.68284   0.69452
 Alpha virt. eigenvalues --    0.69692   0.69894   0.70479   0.70632   0.70868
 Alpha virt. eigenvalues --    0.71337   0.71837   0.72200   0.72769   0.73095
 Alpha virt. eigenvalues --    0.73463   0.73577   0.74072   0.74400   0.74608
 Alpha virt. eigenvalues --    0.75489   0.75649   0.75909   0.76470   0.77009
 Alpha virt. eigenvalues --    0.77202   0.77466   0.77831   0.78040   0.78263
 Alpha virt. eigenvalues --    0.78528   0.78619   0.78998   0.79209   0.79407
 Alpha virt. eigenvalues --    0.79599   0.79875   0.80160   0.80258   0.80550
 Alpha virt. eigenvalues --    0.80964   0.81287   0.81511   0.81663   0.82204
 Alpha virt. eigenvalues --    0.82344   0.82416   0.82831   0.83202   0.83366
 Alpha virt. eigenvalues --    0.83615   0.83691   0.84261   0.84355   0.84676
 Alpha virt. eigenvalues --    0.84918   0.85375   0.85701   0.86251   0.86478
 Alpha virt. eigenvalues --    0.86692   0.86817   0.86839   0.87371   0.87830
 Alpha virt. eigenvalues --    0.87945   0.88234   0.88657   0.88934   0.89369
 Alpha virt. eigenvalues --    0.89872   0.90468   0.90577   0.91386   0.91707
 Alpha virt. eigenvalues --    0.92129   0.92497   0.92921   0.93198   0.93777
 Alpha virt. eigenvalues --    0.94296   0.94724   0.94794   0.95637   0.95848
 Alpha virt. eigenvalues --    0.96556   0.97204   0.97864   0.98149   0.99242
 Alpha virt. eigenvalues --    0.99633   1.00100   1.00819   1.01720   1.02110
 Alpha virt. eigenvalues --    1.02875   1.03220   1.04615   1.05805   1.06507
 Alpha virt. eigenvalues --    1.07314   1.07590   1.08360   1.08833   1.09107
 Alpha virt. eigenvalues --    1.10443   1.11272   1.11957   1.12368   1.12947
 Alpha virt. eigenvalues --    1.13024   1.13681   1.15154   1.15674   1.16181
 Alpha virt. eigenvalues --    1.17234   1.18999   1.19808   1.20322   1.20671
 Alpha virt. eigenvalues --    1.21454   1.22241   1.23437   1.24229   1.26219
 Alpha virt. eigenvalues --    1.26863   1.28177   1.28304   1.28743   1.29274
 Alpha virt. eigenvalues --    1.29359   1.30273   1.30958   1.31513   1.32331
 Alpha virt. eigenvalues --    1.32654   1.32784   1.33449   1.36060   1.36435
 Alpha virt. eigenvalues --    1.37222   1.38232   1.38763   1.39041   1.39898
 Alpha virt. eigenvalues --    1.40291   1.40505   1.41082   1.42023   1.42617
 Alpha virt. eigenvalues --    1.43205   1.43499   1.43821   1.44273   1.44576
 Alpha virt. eigenvalues --    1.45700   1.46036   1.46190   1.46918   1.47258
 Alpha virt. eigenvalues --    1.47709   1.47938   1.49492   1.49879   1.51031
 Alpha virt. eigenvalues --    1.51128   1.52185   1.52955   1.54027   1.55886
 Alpha virt. eigenvalues --    1.56590   1.57005   1.57082   1.59076   1.59702
 Alpha virt. eigenvalues --    1.61258   1.61516   1.61586   1.62730   1.63031
 Alpha virt. eigenvalues --    1.63963   1.65015   1.65671   1.65983   1.66667
 Alpha virt. eigenvalues --    1.67316   1.67612   1.68366   1.69018   1.69401
 Alpha virt. eigenvalues --    1.69867   1.70417   1.71028   1.71290   1.71834
 Alpha virt. eigenvalues --    1.72556   1.73380   1.73858   1.74254   1.74449
 Alpha virt. eigenvalues --    1.74739   1.75031   1.75526   1.75822   1.76262
 Alpha virt. eigenvalues --    1.76799   1.76930   1.77862   1.78515   1.78581
 Alpha virt. eigenvalues --    1.78975   1.79134   1.79944   1.80342   1.80716
 Alpha virt. eigenvalues --    1.80782   1.81544   1.82080   1.82655   1.83245
 Alpha virt. eigenvalues --    1.83462   1.83657   1.83920   1.84166   1.84463
 Alpha virt. eigenvalues --    1.85058   1.85892   1.86639   1.87141   1.87308
 Alpha virt. eigenvalues --    1.87350   1.88301   1.89427   1.89798   1.89885
 Alpha virt. eigenvalues --    1.91036   1.91264   1.91769   1.92413   1.92688
 Alpha virt. eigenvalues --    1.92851   1.93190   1.93591   1.93779   1.94203
 Alpha virt. eigenvalues --    1.94564   1.95654   1.96391   1.97124   1.97688
 Alpha virt. eigenvalues --    1.98019   1.98416   1.98693   1.99851   2.00162
 Alpha virt. eigenvalues --    2.00575   2.00723   2.01441   2.02055   2.02729
 Alpha virt. eigenvalues --    2.02886   2.03951   2.04965   2.05150   2.05317
 Alpha virt. eigenvalues --    2.05474   2.06207   2.06645   2.07362   2.09627
 Alpha virt. eigenvalues --    2.10242   2.10690   2.10847   2.12097   2.12262
 Alpha virt. eigenvalues --    2.12623   2.13954   2.14272   2.15517   2.15587
 Alpha virt. eigenvalues --    2.16340   2.16705   2.17153   2.17778   2.18390
 Alpha virt. eigenvalues --    2.19164   2.19849   2.21015   2.21443   2.22072
 Alpha virt. eigenvalues --    2.22509   2.23714   2.23992   2.24642   2.25142
 Alpha virt. eigenvalues --    2.25749   2.26206   2.26771   2.27292   2.27850
 Alpha virt. eigenvalues --    2.27981   2.28449   2.29602   2.29807   2.30696
 Alpha virt. eigenvalues --    2.31416   2.31457   2.33616   2.34026   2.34323
 Alpha virt. eigenvalues --    2.34694   2.35287   2.36231   2.36583   2.37633
 Alpha virt. eigenvalues --    2.38122   2.40596   2.41163   2.41706   2.41841
 Alpha virt. eigenvalues --    2.42181   2.44144   2.44888   2.45235   2.46366
 Alpha virt. eigenvalues --    2.48445   2.49117   2.49511   2.49697   2.51447
 Alpha virt. eigenvalues --    2.52783   2.53246   2.53642   2.53955   2.54456
 Alpha virt. eigenvalues --    2.55198   2.56825   2.57602   2.58914   2.59727
 Alpha virt. eigenvalues --    2.60216   2.60595   2.61355   2.61522   2.62128
 Alpha virt. eigenvalues --    2.63645   2.63943   2.65878   2.66514   2.67806
 Alpha virt. eigenvalues --    2.68494   2.69008   2.69349   2.69722   2.70539
 Alpha virt. eigenvalues --    2.71602   2.72423   2.74576   2.75720   2.77835
 Alpha virt. eigenvalues --    2.79502   2.79817   2.80447   2.81855   2.83555
 Alpha virt. eigenvalues --    2.85710   2.86493   2.87208   2.88961   2.91203
 Alpha virt. eigenvalues --    2.91878   2.93985   2.95488   2.98234   2.99237
 Alpha virt. eigenvalues --    3.00008   3.04437   3.05102   3.07982   3.11645
 Alpha virt. eigenvalues --    3.14155   3.18412   3.35364   3.64135   3.73768
 Alpha virt. eigenvalues --    3.83963   3.93188   3.93900   3.95444   3.96490
 Alpha virt. eigenvalues --    3.99140   4.02787   4.04181   4.04764   4.05869
 Alpha virt. eigenvalues --    4.06818   4.07167   4.09096   4.10318   4.11589
 Alpha virt. eigenvalues --    4.13619   4.14854   4.15586   4.17503   4.19673
 Alpha virt. eigenvalues --    4.21396   4.21936   4.25677   4.28547   4.29501
 Alpha virt. eigenvalues --    4.30588   4.32195   4.32547   4.35126   4.36181
 Alpha virt. eigenvalues --    4.38815   4.40298   4.43086   4.44506   4.48552
 Alpha virt. eigenvalues --    4.49447   4.50422   4.54677   4.55898   4.58396
 Alpha virt. eigenvalues --    4.60399   4.64008   4.65397
          Condensed to atoms (all electrons):
 Mulliken charges:
               1
     1  N   -0.764145
     2  H    0.415543
     3  H    0.410332
     4  H    0.436404
     5  C   -0.109730
     6  H    0.212208
     7  C    0.655469
     8  C   -0.110003
     9  H    0.151978
    10  O   -0.551260
    11  C   -0.284085
    12  H    0.171178
    13  H    0.173434
    14  C   -0.474658
    15  H    0.185883
    16  H    0.192156
    17  H    0.141329
    18  C   -0.468937
    19  H    0.189539
    20  H    0.146286
    21  H    0.158757
    22  N   -0.613547
    23  H    0.384473
    24  C   -0.067955
    25  H    0.193863
    26  C    0.634163
    27  C   -0.349617
    28  H    0.158015
    29  H    0.175315
    30  O   -0.564551
    31  C    0.151493
    32  C   -0.190503
    33  H    0.121247
    34  C   -0.201229
    35  H    0.125150
    36  C   -0.136926
    37  H    0.171452
    38  C   -0.119818
    39  H    0.141819
    40  C   -0.127613
    41  H    0.178347
    42  N   -0.620393
    43  H    0.380421
    44  C   -0.037338
    45  H    0.163435
    46  C    0.634529
    47  C   -0.076783
    48  H    0.155865
    49  O   -0.536939
    50  C   -0.453970
    51  H    0.164063
    52  H    0.151054
    53  H    0.148661
    54  C   -0.467766
    55  H    0.153622
    56  H    0.139473
    57  H    0.160595
    58  N   -0.634095
    59  H    0.346324
    60  C   -0.025334
    61  H    0.195882
    62  C    0.607873
    63  C   -0.286243
    64  H    0.185831
    65  H    0.156426
    66  O   -0.641544
    67  C   -0.374972
    68  H    0.176203
    69  H    0.176888
    70  C    0.568359
    71  N   -0.763995
    72  H    0.405760
    73  H    0.331976
    74  O   -0.536132
    75  N   -0.569036
    76  H    0.388465
    77  C   -0.095692
    78  H    0.092053
    79  C    0.600909
    80  C   -0.263785
    81  H    0.182931
    82  H    0.158706
    83  O   -0.546919
    84  C   -0.287638
    85  H    0.142882
    86  H    0.164477
    87  C   -0.286766
    88  H    0.174044
    89  H    0.183714
    90  C   -0.192859
    91  H    0.202782
    92  H    0.193805
    93  N   -0.772565
    94  H    0.392030
    95  H    0.466972
    96  H    0.399876
    97  O   -0.617373
 Sum of Mulliken charges =   1.00000
 Mulliken charges with hydrogens summed into heavy atoms:
               1
     1  N    0.498133
     5  C    0.102477
     7  C    0.655469
     8  C    0.041975
    10  O   -0.551260
    11  C    0.060527
    14  C    0.044710
    18  C    0.025645
    22  N   -0.229075
    24  C    0.125907
    26  C    0.634163
    27  C   -0.016286
    30  O   -0.564551
    31  C    0.151493
    32  C   -0.069256
    34  C   -0.076078
    36  C    0.034526
    38  C    0.022001
    40  C    0.050734
    42  N   -0.239972
    44  C    0.126097
    46  C    0.634529
    47  C    0.079082
    49  O   -0.536939
    50  C    0.009808
    54  C   -0.014076
    58  N   -0.287771
    60  C    0.170548
    62  C    0.607873
    63  C    0.056014
    66  O   -0.641544
    67  C   -0.021881
    70  C    0.568359
    71  N   -0.026259
    74  O   -0.536132
    75  N   -0.180571
    77  C   -0.003639
    79  C    0.600909
    80  C    0.077852
    83  O   -0.546919
    84  C    0.019722
    87  C    0.070991
    90  C    0.203727
    93  N    0.486313
    97  O   -0.617373
 Electronic spatial extent (au):  <R**2>=          42962.9722
 Charge=              1.0000 electrons
 Dipole moment (field-independent basis, Debye):
    X=            -27.2372    Y=             -4.6456    Z=             -0.6696  Tot=             27.6386
 Quadrupole moment (field-independent basis, Debye-Ang):
   XX=           -172.2134   YY=           -241.6058   ZZ=           -109.5918
   XY=             28.0903   XZ=            155.7935   YZ=             59.0711
 Traceless Quadrupole moment (field-independent basis, Debye-Ang):
   XX=              2.2569   YY=            -67.1355   ZZ=             64.8785
   XY=             28.0903   XZ=            155.7935   YZ=             59.0711
 Octapole moment (field-independent basis, Debye-Ang**2):
  XXX=          -2721.7842  YYY=             -8.9186  ZZZ=            591.7274  XYY=           -421.2380
  XXY=           -529.7435  XXZ=           -564.7586  XZZ=           -580.9435  YZZ=             25.0349
  YYZ=            180.3668  XYZ=           -118.0342
 Hexadecapole moment (field-independent basis, Debye-Ang**3):
 XXXX=         -32472.1510 YYYY=          -4260.1621 ZZZZ=         -12620.3864 XXXY=          -4620.4100
 XXXZ=          -1767.2659 YYYX=          -4071.1183 YYYZ=          -1242.9098 ZZZX=           -846.0866
 ZZZY=            402.1506 XXYY=          -6107.9156 XXZZ=          -3516.8552 YYZZ=          -2981.3097
 XXYZ=            465.4862 YYXZ=          -1534.3107 ZZXY=           -111.6022
 N-N= 5.852896954865D+03 E-N=-1.661866250476D+04  KE= 2.102384485104D+03
 Unable to Open any file for archive entry.
 1\1\GINC-LAC-260\SP\RB3LYP\6-31G(d)\C31H52N7O7(1+)\KENGMITH\19-Jun-202
 2\0\\# B3LYP/6-31G* guess=read geom=check nosymm integral(ultrafinegri
 d)\\Candidate Structure: Conf:578 Charge calc in gas phase\\1,1\N,0,-6
 .406045199,-1.7839624602,-5.3670031578\H,0,-6.7907695511,-0.9989928194
 ,-5.8992125527\H,0,-7.0930716661,-2.5424863766,-5.3578734543\H,0,-5.48
 910573,-2.099591019,-5.8185612629\C,0,-5.9326679091,-1.3910722568,-3.9
 773350311\H,0,-6.3125107354,-0.3886207079,-3.7720634272\C,0,-4.3876736
 066,-1.37503411,-4.162813387\C,0,-6.4671432833,-2.3986506516,-2.924506
 8984\H,0,-7.5561866318,-2.4359975402,-3.0890480925\O,0,-3.9348223615,-
 1.8954391059,-5.1984242604\C,0,-6.2641490289,-1.9115084276,-1.47140656
 88\H,0,-5.1958600945,-1.8948135997,-1.2238696923\H,0,-6.7017590416,-2.
 6841268752,-0.8282718995\C,0,-5.8885209908,-3.8100812835,-3.1212880657
 \H,0,-4.8125389656,-3.8316224173,-2.9193729018\H,0,-6.3714455046,-4.50
 60054788,-2.4293672962\H,0,-6.0408141564,-4.2087309695,-4.1323276149\C
 ,0,-6.9088199735,-0.5624936117,-1.129926258\H,0,-6.8266264895,-0.36869
 17501,-0.0565985931\H,0,-6.4283243418,0.2842605896,-1.636116261\H,0,-7
 .974718366,-0.5484448044,-1.3876683596\N,0,-3.6677591047,-0.814444362,
 -3.2038735892\H,0,-4.0774960508,-0.4225403445,-2.3531328062\C,0,-2.203
 727461,-0.7618195618,-3.1734169862\H,0,-1.8108069433,-1.7109686423,-3.
 5488211243\C,0,-1.8742745662,-0.5890829017,-1.6727367002\C,0,-1.676156
 6357,0.4013064924,-4.061016449\H,0,-2.0572295618,1.3441171872,-3.65181
 75312\H,0,-2.1337810619,0.2655760204,-5.0485335823\O,0,-2.7547935946,-
 0.1743173543,-0.904595225\C,0,-0.168279734,0.4528160063,-4.1898578907\
 C,0,0.5611075354,1.5207214483,-3.6502501749\H,0,0.0341394434,2.3222904
 329,-3.1359912537\C,0,0.5238295382,-0.56378015,-4.8654693905\H,0,-0.02
 81757231,-1.3874494713,-5.3160032679\C,0,1.9499876716,1.5720615655,-3.
 7791305857\H,0,2.5230984949,2.3983582321,-3.370588006\C,0,1.9139924902
 ,-0.5187503403,-4.9854553751\H,0,2.4344682589,-1.3143790618,-5.5115338
 378\C,0,2.63067958,0.5482119406,-4.4404610845\H,0,3.711519242,0.606310
 8383,-4.5156268786\N,0,-0.6316606786,-0.9128493452,-1.2974862404\H,0,0
 .0757389703,-1.1885506691,-1.9773207824\C,0,-0.1162498469,-0.712845476
 7,0.0560628694\H,0,-0.4878227446,0.2503340534,0.4252470127\C,0,1.41475
 8875,-0.6703707211,-0.1121303881\C,0,-0.6046778838,-1.8253694219,1.034
 0724532\H,0,-1.6955766193,-1.828849867,0.9170273485\O,0,1.9481119235,-
 1.2470148303,-1.0603820649\C,0,-0.0689170072,-3.215494635,0.6668584217
 \H,0,1.0172009711,-3.2786216837,0.7963620363\H,0,-0.5269090651,-3.9771
 744549,1.3074095746\H,0,-0.2927240071,-3.4722131998,-0.3736482975\C,0,
 -0.2993007364,-1.4695468397,2.4962498424\H,0,0.7778868968,-1.466407994
 7,2.6977776884\H,0,-0.7038128285,-0.4849809991,2.7643818067\H,0,-0.756
 1864551,-2.2054193581,3.1665568991\N,0,2.1163304365,0.0151514204,0.817
 0694285\H,0,1.6692851075,0.5116743644,1.5775377586\C,0,3.5603457622,0.
 1665912645,0.7037596176\H,0,3.9854407025,-0.8167956453,0.4776618745\C,
 0,4.0958180167,0.6710772474,2.0473122603\C,0,3.9692009371,1.1641368265
 ,-0.4295701794\H,0,3.1253435476,1.2647006471,-1.1149929196\H,0,4.14804
 46328,2.1547921371,0.0068129144\O,0,3.2828972348,1.1622288745,2.884040
 5834\C,0,5.2018446791,0.7127671237,-1.2366384693\H,0,4.9060540127,-0.1
 047980063,-1.901762606\H,0,6.002822434,0.3543515806,-0.586404576\C,0,5
 .722982233,1.8708136392,-2.0890033052\N,0,6.8426267215,2.4581849089,-1
 .6114002223\H,0,7.2681887239,2.1857101067,-0.7180427287\H,0,7.19818264
 51,3.2642599275,-2.1076009211\O,0,5.1286709613,2.243514225,-3.10392606
 51\N,0,5.4083971946,0.6135584176,2.2035034897\H,0,5.9979055514,0.39335
 01698,1.3836777337\C,0,6.2522177507,1.4381561614,3.0759726004\H,0,5.68
 29829455,2.3079586559,3.4192165066\C,0,7.4110392144,2.0141876808,2.149
 8760667\C,0,6.834905212,0.6522461505,4.2543573736\H,0,7.6596407321,1.2
 489023508,4.6603637474\H,0,7.2792919397,-0.267546417,3.8553769533\O,0,
 8.0813933955,2.9102858759,2.664193305\C,0,5.8408679402,0.291099568,5.3
 725158471\H,0,4.9318192824,-0.1431852175,4.9331589963\H,0,6.2794991007
 ,-0.5051442866,5.9837791433\C,0,5.4784082747,1.4760812058,6.3095909872
 \H,0,6.1120074057,2.3474134176,6.0905337696\H,0,5.706735113,1.20977193
 27,7.3478813818\C,0,4.0161521529,1.9155197432,6.31599384\H,0,3.3366402
 087,1.0654128834,6.4222515061\H,0,3.8199716976,2.6210839286,7.12834559
 13\N,0,3.6226885784,2.6098032244,5.0327941469\H,0,2.6825594269,3.00974
 7123,5.1042067721\H,0,3.611270637,1.9494743126,4.1582563503\H,0,4.2665
 720465,3.381197999,4.8311019576\O,0,7.4768621363,1.4528846329,1.011606
 1438\\Version=ES64L-G16RevC.01\HF=-2122.3276691\RMSD=5.166e-10\Dipole=
 -12.75444,-1.8669732,0.749799\Quadrupole=1.6779691,-49.9135719,48.2356
 028,20.8844636,115.8286523,43.9178796\PG=C01 [X(C31H52N7O7)]\\@
 The archive entry for this job was punched.


 FROM WHENCE IT HAPPENS, THAT THEY WHICH TRUST TO BOOKS, DO AS THEY THAT CAST UP MANY LITTLE SUMMS INTO GREATER,
 WITHOUT CONSIDERING WETHER THOSE LITTLE SUMMES WERE RIGHTLY CAST UP OR NOT...
 AND AT LAST FINDING THE ERROUR VISIBLE, AND NOT MISTRUSTING THEIR FIRST GROUNDS,
 KNOW NOT WHICH WAY TO CLEERE THEMSELVES...
 BUT SPEND TIME IN FLUTTERING OVER THEIR BOOKES....
 AS BIRDS THAT ENTERING BY THE CHIMNEY, AND FINDING THEMSELVES INCLOSED IN A CHAMBER,
 FLUTTER AT THE FALSE LIGHT OF A GLASSE WINDOW,
 FOR WANT OF WIT TO CONSIDER WHICH WAY THEY CAME IN....
           LEVIATHAN
 Job cpu time:       0 days  0 hours  5 minutes 56.8 seconds.
 Elapsed time:       0 days  0 hours  1 minutes 30.2 seconds.
 File lengths (MBytes):  RWF=    432 Int=      0 D2E=      0 Chk=     64 Scr=     16
 Normal termination of Gaussian 16 at Sun Jun 19 17:48:41 2022.
