 Entering Gaussian System, Link 0=/opt/software/Gaussian/g16-AVX2-C.01/g16/g16
 Input=charge-conf-252.com
 Output=charge-conf-252.log
 Initial command:
 /opt/software/Gaussian/g16-AVX2-C.01/g16/l1.exe "/mnt/gs18/scratch/users/kengmith/Gau-22173.inp" -scrdir="/mnt/gs18/scratch/users/kengmith/"
 Entering Link 1 = /opt/software/Gaussian/g16-AVX2-C.01/g16/l1.exe PID=     22184.
  
 Copyright (c) 1988-2019, Gaussian, Inc.  All Rights Reserved.
  
 This is part of the Gaussian(R) 16 program.  It is based on
 the Gaussian(R) 09 system (copyright 2009, Gaussian, Inc.),
 the Gaussian(R) 03 system (copyright 2003, Gaussian, Inc.),
 the Gaussian(R) 98 system (copyright 1998, Gaussian, Inc.),
 the Gaussian(R) 94 system (copyright 1995, Gaussian, Inc.),
 the Gaussian 92(TM) system (copyright 1992, Gaussian, Inc.),
 the Gaussian 90(TM) system (copyright 1990, Gaussian, Inc.),
 the Gaussian 88(TM) system (copyright 1988, Gaussian, Inc.),
 the Gaussian 86(TM) system (copyright 1986, Carnegie Mellon
 University), and the Gaussian 82(TM) system (copyright 1983,
 Carnegie Mellon University). Gaussian is a federally registered
 trademark of Gaussian, Inc.
  
 This software contains proprietary and confidential information,
 including trade secrets, belonging to Gaussian, Inc.
  
 This software is provided under written license and may be
 used, copied, transmitted, or stored only in accord with that
 written license.
  
 The following legend is applicable only to US Government
 contracts under FAR:
  
                    RESTRICTED RIGHTS LEGEND
  
 Use, reproduction and disclosure by the US Government is
 subject to restrictions as set forth in subparagraphs (a)
 and (c) of the Commercial Computer Software - Restricted
 Rights clause in FAR 52.227-19.
  
 Gaussian, Inc.
 340 Quinnipiac St., Bldg. 40, Wallingford CT 06492
  
  
 ---------------------------------------------------------------
 Warning -- This program may not be used in any manner that
 competes with the business of Gaussian, Inc. or will provide
 assistance to any competitor of Gaussian, Inc.  The licensee
 of this program is prohibited from giving any competitor of
 Gaussian, Inc. access to this program.  By using this program,
 the user acknowledges that Gaussian, Inc. is engaged in the
 business of creating and licensing software in the field of
 computational chemistry and represents and warrants to the
 licensee that it is not a competitor of Gaussian, Inc. and that
 it will not use this program in any manner prohibited above.
 ---------------------------------------------------------------
  

 Cite this work as:
 Gaussian 16, Revision C.01,
 M. J. Frisch, G. W. Trucks, H. B. Schlegel, G. E. Scuseria, 
 M. A. Robb, J. R. Cheeseman, G. Scalmani, V. Barone, 
 G. A. Petersson, H. Nakatsuji, X. Li, M. Caricato, A. V. Marenich, 
 J. Bloino, B. G. Janesko, R. Gomperts, B. Mennucci, H. P. Hratchian, 
 J. V. Ortiz, A. F. Izmaylov, J. L. Sonnenberg, D. Williams-Young, 
 F. Ding, F. Lipparini, F. Egidi, J. Goings, B. Peng, A. Petrone, 
 T. Henderson, D. Ranasinghe, V. G. Zakrzewski, J. Gao, N. Rega, 
 G. Zheng, W. Liang, M. Hada, M. Ehara, K. Toyota, R. Fukuda, 
 J. Hasegawa, M. Ishida, T. Nakajima, Y. Honda, O. Kitao, H. Nakai, 
 T. Vreven, K. Throssell, J. A. Montgomery, Jr., J. E. Peralta, 
 F. Ogliaro, M. J. Bearpark, J. J. Heyd, E. N. Brothers, K. N. Kudin, 
 V. N. Staroverov, T. A. Keith, R. Kobayashi, J. Normand, 
 K. Raghavachari, A. P. Rendell, J. C. Burant, S. S. Iyengar, 
 J. Tomasi, M. Cossi, J. M. Millam, M. Klene, C. Adamo, R. Cammi, 
 J. W. Ochterski, R. L. Martin, K. Morokuma, O. Farkas, 
 J. B. Foresman, and D. J. Fox, Gaussian, Inc., Wallingford CT, 2019.
 
 ******************************************
 Gaussian 16:  ES64L-G16RevC.01  3-Jul-2019
                 2-Jul-2022 
 ******************************************
 %mem=8gb
 %nproc=4
 Will use up to    4 processors via shared memory.
 %chk=conf-252.chk
 -------------------------------------------------------------------
 # B3LYP/6-31G* guess=read geom=check nosymm integral(ultrafinegrid)
 -------------------------------------------------------------------
 1/29=2,38=1,172=1/1;
 2/12=2,15=1,40=1/2;
 3/5=1,6=6,7=1,11=2,14=-4,25=1,30=1,74=-5,75=-5,116=-2/1,2,3;
 4/5=1/1;
 5/5=2,38=6/2;
 6/7=2,8=2,9=2,10=2,28=1/1;
 99/5=1,9=1/99;
 ------------------------------------------------------
 Candidate Structure: Conf:252 Charge calc in gas phase
 ------------------------------------------------------
 Structure from the checkpoint file:  "conf-252.chk"
 Charge =  1 Multiplicity = 1
 Redundant internal coordinates found in file.  (old form).
 N,0,-7.8353396675,1.5061516553,4.3696043857
 H,0,-8.1014082113,0.5499309308,4.6234612331
 H,0,-8.6857218854,2.0634899766,4.2545454704
 H,0,-7.2099392657,1.8876496908,5.1352484322
 C,0,-6.9193351099,1.5611615993,3.1585818381
 H,0,-7.0953151436,0.6632215237,2.5600031743
 C,0,-5.520182734,1.5436393929,3.8410673289
 C,0,-7.2076333593,2.8374933798,2.3249324852
 H,0,-7.0065321896,3.7002836323,2.9762081812
 O,0,-5.4641280219,1.9395349213,5.0121283475
 C,0,-6.2711890784,2.9207871647,1.106408704
 H,0,-6.413368887,2.0626527171,0.4374147675
 H,0,-6.5065703509,3.8211211388,0.5318441061
 H,0,-5.2145754444,2.9751551928,1.3782932411
 C,0,-8.6740686502,2.8905726691,1.8565992526
 H,0,-8.9281397786,2.0200516488,1.2404022416
 H,0,-9.4081920273,2.9564382468,2.6718210204
 H,0,-8.8293551204,3.7846987752,1.2461957534
 N,0,-4.4963014652,1.0947086715,3.117743733
 H,0,-4.5850494751,0.9302426341,2.1170408429
 C,0,-3.1148557037,1.0692598514,3.584961552
 H,0,-3.0303915344,1.7500877172,4.4361606915
 C,0,-2.2544196487,1.5178521898,2.386161459
 C,0,-2.7126935054,-0.3496534119,4.0292971715
 H,0,-1.6791509908,-0.317642072,4.4050307336
 H,0,-2.7300077155,-1.0176671487,3.1535948777
 O,0,-2.7333765384,1.4655382079,1.246707331
 O,0,-3.6299711733,-0.756149372,5.0249291136
 H,0,-3.3410878905,-1.6142019441,5.3723306105
 N,0,-1.0001376729,1.9132465013,2.6596304189
 H,0,-0.670422267,1.9016006587,3.617204985
 C,0,-0.0300323132,2.303517076,1.6176547149
 H,0,-0.6183941822,2.7694362901,0.8208310172
 C,0,0.6737150918,1.043008445,1.0464613728
 C,0,0.9797504534,3.292131336,2.1876953633
 H,0,1.6648293977,3.6158021351,1.4007116154
 H,0,1.5889500127,2.8221933289,2.9657022634
 H,0,0.4711272738,4.1716367849,2.5947050014
 O,0,1.8464972633,0.7934628105,1.301505143
 N,0,-0.1241163139,0.2515539502,0.2837948583
 H,0,-1.0607591374,0.5699957287,0.0588666005
 C,0,0.373017228,-0.9714325621,-0.3578921921
 H,0,1.2098191837,-1.3091762942,0.2575675572
 C,0,0.8828553313,-0.6072856771,-1.7729891448
 C,0,-0.7355775853,-2.0277821609,-0.411323346
 H,0,-1.1435483252,-2.1437995301,0.6037915103
 H,0,-1.5385582493,-1.6402450536,-1.0505458227
 O,0,0.1470926204,-0.6715192921,-2.7580657331
 C,0,-0.3049641349,-3.4075481609,-0.9486715047
 H,0,0.1026018731,-3.2541617306,-1.9559984149
 C,0,0.7740318226,-4.073444274,-0.0808866911
 H,0,0.4219738635,-4.2112958388,0.9505600713
 H,0,1.0311343492,-5.0627675148,-0.4758309553
 H,0,1.7005565381,-3.4899768339,-0.043192347
 C,0,-1.5338396102,-4.3199161873,-1.0786509961
 H,0,-1.9944392183,-4.5050528017,-0.0984789353
 H,0,-1.258651058,-5.2923397813,-1.5020994652
 H,0,-2.2946328246,-3.8743284312,-1.7301907332
 N,0,2.1678794474,-0.1885180006,-1.819601539
 H,0,2.7262490321,-0.0765649339,-0.9764387387
 C,0,2.7935342187,0.2633539662,-3.0514726044
 H,0,2.4990977353,-0.4200193507,-3.8545633327
 C,0,4.3103258913,0.2055453205,-2.8120382903
 C,0,2.3245003396,1.7006114343,-3.4330025876
 H,0,2.7014107287,2.3949373223,-2.6728329888
 H,0,1.2316319554,1.6889944746,-3.3606058873
 O,0,4.7686023106,0.3297607804,-1.6748733508
 C,0,2.7450793717,2.1435808213,-4.8160829214
 C,0,3.7702971271,3.0809483797,-5.0099125027
 H,0,4.2691074001,3.5128515137,-4.1451650283
 C,0,2.1220635157,1.6101410676,-5.9526709418
 H,0,1.3135547237,0.8916447406,-5.8330261026
 C,0,4.1663244579,3.4746079734,-6.284566765
 H,0,4.9602081325,4.2001906325,-6.4298663056
 C,0,2.5105314718,1.9900097641,-7.2368541687
 H,0,2.0116825724,1.5649666344,-8.1061707206
 O,0,3.9616991727,3.344660911,-8.6353026708
 H,0,3.4677534614,2.8690331044,-9.3210915823
 C,0,3.5374568894,2.9248964272,-7.4065922797
 N,0,5.0759214729,0.0339554876,-3.9111613432
 H,0,4.6623323849,-0.0176710708,-4.8358568624
 C,0,6.5297602011,0.0829768949,-3.8715353538
 H,0,6.8421618977,0.8418825392,-3.1501287139
 C,0,7.0421781684,0.4531132668,-5.2542118056
 C,0,7.1385087943,-1.2952588979,-3.4495464161
 H,0,6.9805555606,-1.3803730924,-2.3699155836
 H,0,6.5324153666,-2.0792057105,-3.9203312328
 O,0,8.2247628547,1.0570119969,-5.1918875489
 C,0,8.6287508306,-1.5136006153,-3.8007218213
 H,0,9.0598532562,-2.1994583291,-3.0620843304
 H,0,9.1700568081,-0.5688632037,-3.6912043147
 C,0,8.8620206888,-2.1090159893,-5.219683557
 H,0,8.9786358389,-3.195217494,-5.1244600566
 H,0,7.9701962708,-1.9677103501,-5.8425108187
 C,0,10.0778206976,-1.5664214507,-5.9984765767
 H,0,10.4965845344,-2.3639531155,-6.6287130541
 H,0,10.8695497554,-1.2595324713,-5.3057949163
 N,0,9.7276515215,-0.3816449836,-6.8259659623
 H,0,10.5638500125,-0.0030960875,-7.2692267667
 H,0,9.1017885488,-0.665680331,-7.5802142916
 H,0,8.8016659708,0.730312743,-5.9742182837
 O,0,6.4713240152,0.117068461,-6.2795590715
 Recover connectivity data from disk.
                           ----------------------------
                           !    Current Parameters    !
                           ! (Angstroms and Degrees)  !
 --------------------------                            --------------------------
 ! Name  Definition              Value                                          !
 --------------------------------------------------------------------------------
 ! R1    R(1,2)                  1.0245                                         !
 ! R2    R(1,3)                  1.0232                                         !
 ! R3    R(1,4)                  1.0597                                         !
 ! R4    R(1,5)                  1.5194                                         !
 ! R5    R(5,6)                  1.0934                                         !
 ! R6    R(5,7)                  1.5568                                         !
 ! R7    R(5,8)                  1.5515                                         !
 ! R8    R(7,10)                 1.2374                                         !
 ! R9    R(7,19)                 1.3316                                         !
 ! R10   R(8,9)                  1.0995                                         !
 ! R11   R(8,11)                 1.539                                          !
 ! R12   R(8,15)                 1.5403                                         !
 ! R13   R(11,12)                1.0973                                         !
 ! R14   R(11,13)                1.0937                                         !
 ! R15   R(11,14)                1.0924                                         !
 ! R16   R(15,16)                1.0964                                         !
 ! R17   R(15,17)                1.099                                          !
 ! R18   R(15,18)                1.0937                                         !
 ! R19   R(19,20)                1.018                                          !
 ! R20   R(19,21)                1.4585                                         !
 ! R21   R(21,22)                1.0933                                         !
 ! R22   R(21,23)                1.5423                                         !
 ! R23   R(21,24)                1.5403                                         !
 ! R24   R(23,27)                1.2371                                         !
 ! R25   R(23,30)                1.3433                                         !
 ! R26   R(24,25)                1.1002                                         !
 ! R27   R(24,26)                1.1015                                         !
 ! R28   R(24,28)                1.4135                                         !
 ! R29   R(28,29)                0.9697                                         !
 ! R30   R(30,31)                1.0128                                         !
 ! R31   R(30,32)                1.4762                                         !
 ! R32   R(32,33)                1.0946                                         !
 ! R33   R(32,34)                1.5525                                         !
 ! R34   R(32,35)                1.5238                                         !
 ! R35   R(34,39)                1.2259                                         !
 ! R36   R(34,40)                1.3582                                         !
 ! R37   R(35,36)                1.0924                                         !
 ! R38   R(35,37)                1.0942                                         !
 ! R39   R(35,38)                1.0945                                         !
 ! R40   R(40,41)                1.0145                                         !
 ! R41   R(40,42)                1.4679                                         !
 ! R42   R(42,43)                1.0923                                         !
 ! R43   R(42,44)                1.5476                                         !
 ! R44   R(42,45)                1.5322                                         !
 ! R45   R(44,48)                1.2312                                         !
 ! R46   R(44,59)                1.3523                                         !
 ! R47   R(45,46)                1.1002                                         !
 ! R48   R(45,47)                1.0971                                         !
 ! R49   R(45,49)                1.5421                                         !
 ! R50   R(49,50)                1.0974                                         !
 ! R51   R(49,51)                1.5365                                         !
 ! R52   R(49,55)                1.536                                          !
 ! R53   R(51,52)                1.0986                                         !
 ! R54   R(51,53)                1.0958                                         !
 ! R55   R(51,54)                1.0956                                         !
 ! R56   R(55,56)                1.0987                                         !
 ! R57   R(55,57)                1.0957                                         !
 ! R58   R(55,58)                1.0963                                         !
 ! R59   R(59,60)                1.0175                                         !
 ! R60   R(59,61)                1.4537                                         !
 ! R61   R(61,62)                1.0948                                         !
 ! R62   R(61,63)                1.5367                                         !
 ! R63   R(61,64)                1.5593                                         !
 ! R64   R(63,67)                1.2323                                         !
 ! R65   R(63,80)                1.3504                                         !
 ! R66   R(64,65)                1.0964                                         !
 ! R67   R(64,66)                1.0953                                         !
 ! R68   R(64,68)                1.512                                          !
 ! R69   R(68,69)                1.4026                                         !
 ! R70   R(68,71)                1.4016                                         !
 ! R71   R(69,70)                1.0877                                         !
 ! R72   R(69,73)                1.3916                                         !
 ! R73   R(71,72)                1.0882                                         !
 ! R74   R(71,75)                1.3944                                         !
 ! R75   R(73,74)                1.0853                                         !
 ! R76   R(73,79)                1.3988                                         !
 ! R77   R(75,76)                1.0887                                         !
 ! R78   R(75,79)                1.3991                                         !
 ! R79   R(77,78)                0.9698                                         !
 ! R80   R(77,79)                1.366                                          !
 ! R81   R(80,81)                1.0143                                         !
 ! R82   R(80,82)                1.4552                                         !
 ! R83   R(82,83)                1.0927                                         !
 ! R84   R(82,84)                1.5203                                         !
 ! R85   R(82,85)                1.5647                                         !
 ! R86   R(84,88)                1.3293                                         !
 ! R87   R(84,102)               1.2207                                         !
 ! R88   R(85,86)                1.0944                                         !
 ! R89   R(85,87)                1.0971                                         !
 ! R90   R(85,89)                1.5466                                         !
 ! R91   R(89,90)                1.0963                                         !
 ! R92   R(89,91)                1.0943                                         !
 ! R93   R(89,92)                1.5564                                         !
 ! R94   R(92,93)                1.0966                                         !
 ! R95   R(92,94)                1.0969                                         !
 ! R96   R(92,95)                1.5424                                         !
 ! R97   R(95,96)                1.0994                                         !
 ! R98   R(95,97)                1.0958                                         !
 ! R99   R(95,98)                1.487                                          !
 ! R100  R(98,99)                1.0193                                         !
 ! R101  R(98,100)               1.0204                                         !
 ! R102  R(98,101)               1.6791                                         !
 ! A1    A(2,1,3)              108.6877                                         !
 ! A2    A(2,1,4)              108.0753                                         !
 ! A3    A(2,1,5)              112.8208                                         !
 ! A4    A(3,1,4)              112.0639                                         !
 ! A5    A(3,1,5)              113.0589                                         !
 ! A6    A(4,1,5)              101.9492                                         !
 ! A7    A(1,5,6)              108.0329                                         !
 ! A8    A(1,5,7)              101.0692                                         !
 ! A9    A(1,5,8)              110.244                                          !
 ! A10   A(6,5,7)              112.0483                                         !
 ! A11   A(6,5,8)              110.5804                                         !
 ! A12   A(7,5,8)              114.3187                                         !
 ! A13   A(5,7,10)             116.8705                                         !
 ! A14   A(5,7,19)             117.1751                                         !
 ! A15   A(10,7,19)            125.9518                                         !
 ! A16   A(5,8,9)              107.0536                                         !
 ! A17   A(5,8,11)             110.9086                                         !
 ! A18   A(5,8,15)             111.6311                                         !
 ! A19   A(9,8,11)             108.3732                                         !
 ! A20   A(9,8,15)             109.0973                                         !
 ! A21   A(11,8,15)            109.6746                                         !
 ! A22   A(8,11,12)            111.1938                                         !
 ! A23   A(8,11,13)            109.241                                          !
 ! A24   A(8,11,14)            113.2141                                         !
 ! A25   A(12,11,13)           107.1935                                         !
 ! A26   A(12,11,14)           108.42                                           !
 ! A27   A(13,11,14)           107.3348                                         !
 ! A28   A(8,15,16)            111.3548                                         !
 ! A29   A(8,15,17)            114.3598                                         !
 ! A30   A(8,15,18)            109.4533                                         !
 ! A31   A(16,15,17)           108.0402                                         !
 ! A32   A(16,15,18)           107.6099                                         !
 ! A33   A(17,15,18)           105.6733                                         !
 ! A34   A(7,19,20)            121.4272                                         !
 ! A35   A(7,19,21)            124.067                                          !
 ! A36   A(20,19,21)           113.2436                                         !
 ! A37   A(19,21,22)           108.1629                                         !
 ! A38   A(19,21,23)           105.9226                                         !
 ! A39   A(19,21,24)           110.8411                                         !
 ! A40   A(22,21,23)           112.3924                                         !
 ! A41   A(22,21,24)           109.2023                                         !
 ! A42   A(23,21,24)           110.2735                                         !
 ! A43   A(21,23,27)           119.1844                                         !
 ! A44   A(21,23,30)           116.6351                                         !
 ! A45   A(27,23,30)           124.1572                                         !
 ! A46   A(21,24,25)           108.4813                                         !
 ! A47   A(21,24,26)           108.9784                                         !
 ! A48   A(21,24,28)           107.3786                                         !
 ! A49   A(25,24,26)           107.6926                                         !
 ! A50   A(25,24,28)           112.1757                                         !
 ! A51   A(26,24,28)           112.0471                                         !
 ! A52   A(24,28,29)           108.2692                                         !
 ! A53   A(23,30,31)           119.543                                          !
 ! A54   A(23,30,32)           123.2133                                         !
 ! A55   A(31,30,32)           117.1589                                         !
 ! A56   A(30,32,33)           105.8504                                         !
 ! A57   A(30,32,34)           110.0553                                         !
 ! A58   A(30,32,35)           110.0572                                         !
 ! A59   A(33,32,34)           108.7481                                         !
 ! A60   A(33,32,35)           110.6317                                         !
 ! A61   A(34,32,35)           111.3457                                         !
 ! A62   A(32,34,39)           121.4927                                         !
 ! A63   A(32,34,40)           114.4215                                         !
 ! A64   A(39,34,40)           124.0699                                         !
 ! A65   A(32,35,36)           109.7732                                         !
 ! A66   A(32,35,37)           110.873                                          !
 ! A67   A(32,35,38)           110.6409                                         !
 ! A68   A(36,35,37)           106.8771                                         !
 ! A69   A(36,35,38)           108.7376                                         !
 ! A70   A(37,35,38)           109.8431                                         !
 ! A71   A(34,40,41)           118.9416                                         !
 ! A72   A(34,40,42)           122.1447                                         !
 ! A73   A(41,40,42)           118.5073                                         !
 ! A74   A(40,42,43)           105.7098                                         !
 ! A75   A(40,42,44)           108.3766                                         !
 ! A76   A(40,42,45)           110.1583                                         !
 ! A77   A(43,42,44)           109.6085                                         !
 ! A78   A(43,42,45)           111.147                                          !
 ! A79   A(44,42,45)           111.6349                                         !
 ! A80   A(42,44,48)           121.4966                                         !
 ! A81   A(42,44,59)           114.6719                                         !
 ! A82   A(48,44,59)           123.8092                                         !
 ! A83   A(42,45,46)           107.9886                                         !
 ! A84   A(42,45,47)           107.8393                                         !
 ! A85   A(42,45,49)           115.2759                                         !
 ! A86   A(46,45,47)           107.665                                          !
 ! A87   A(46,45,49)           109.3125                                         !
 ! A88   A(47,45,49)           108.5072                                         !
 ! A89   A(45,49,50)           107.3676                                         !
 ! A90   A(45,49,51)           112.773                                          !
 ! A91   A(45,49,55)           109.7273                                         !
 ! A92   A(50,49,51)           108.5537                                         !
 ! A93   A(50,49,55)           107.6056                                         !
 ! A94   A(51,49,55)           110.6216                                         !
 ! A95   A(49,51,52)           111.0769                                         !
 ! A96   A(49,51,53)           110.6392                                         !
 ! A97   A(49,51,54)           112.4897                                         !
 ! A98   A(52,51,53)           107.475                                          !
 ! A99   A(52,51,54)           107.791                                          !
 ! A100  A(53,51,54)           107.1448                                         !
 ! A101  A(49,55,56)           111.099                                          !
 ! A102  A(49,55,57)           111.0329                                         !
 ! A103  A(49,55,58)           111.3499                                         !
 ! A104  A(56,55,57)           107.4877                                         !
 ! A105  A(56,55,58)           107.924                                          !
 ! A106  A(57,55,58)           107.7775                                         !
 ! A107  A(44,59,60)           121.8014                                         !
 ! A108  A(44,59,61)           122.306                                          !
 ! A109  A(60,59,61)           115.5852                                         !
 ! A110  A(59,61,62)           108.17                                           !
 ! A111  A(59,61,63)           106.3257                                         !
 ! A112  A(59,61,64)           111.3717                                         !
 ! A113  A(62,61,63)           110.8713                                         !
 ! A114  A(62,61,64)           108.3587                                         !
 ! A115  A(63,61,64)           111.6983                                         !
 ! A116  A(61,63,67)           120.4687                                         !
 ! A117  A(61,63,80)           115.9483                                         !
 ! A118  A(67,63,80)           123.576                                          !
 ! A119  A(61,64,65)           108.1004                                         !
 ! A120  A(61,64,66)           105.9133                                         !
 ! A121  A(61,64,68)           114.2181                                         !
 ! A122  A(65,64,66)           107.692                                          !
 ! A123  A(65,64,68)           110.676                                          !
 ! A124  A(66,64,68)           109.9447                                         !
 ! A125  A(64,68,69)           121.7043                                         !
 ! A126  A(64,68,71)           120.4403                                         !
 ! A127  A(69,68,71)           117.8519                                         !
 ! A128  A(68,69,70)           119.3863                                         !
 ! A129  A(68,69,73)           121.5771                                         !
 ! A130  A(70,69,73)           119.0366                                         !
 ! A131  A(68,71,72)           119.4964                                         !
 ! A132  A(68,71,75)           121.2854                                         !
 ! A133  A(72,71,75)           119.2161                                         !
 ! A134  A(69,73,74)           121.3276                                         !
 ! A135  A(69,73,79)           119.7106                                         !
 ! A136  A(74,73,79)           118.9613                                         !
 ! A137  A(71,75,76)           120.0911                                         !
 ! A138  A(71,75,79)           119.8851                                         !
 ! A139  A(76,75,79)           120.0227                                         !
 ! A140  A(78,77,79)           109.098                                          !
 ! A141  A(73,79,75)           119.6884                                         !
 ! A142  A(73,79,77)           117.4605                                         !
 ! A143  A(75,79,77)           122.8497                                         !
 ! A144  A(63,80,81)           121.152                                          !
 ! A145  A(63,80,82)           122.6805                                         !
 ! A146  A(81,80,82)           115.7166                                         !
 ! A147  A(80,82,83)           109.0873                                         !
 ! A148  A(80,82,84)           108.673                                          !
 ! A149  A(80,82,85)           111.4916                                         !
 ! A150  A(83,82,84)           109.5719                                         !
 ! A151  A(83,82,85)           108.8134                                         !
 ! A152  A(84,82,85)           109.1839                                         !
 ! A153  A(82,84,88)           111.5803                                         !
 ! A154  A(82,84,102)          122.6343                                         !
 ! A155  A(88,84,102)          125.4831                                         !
 ! A156  A(82,85,86)           106.1649                                         !
 ! A157  A(82,85,87)           107.3833                                         !
 ! A158  A(82,85,89)           115.9771                                         !
 ! A159  A(86,85,87)           106.7393                                         !
 ! A160  A(86,85,89)           110.615                                          !
 ! A161  A(87,85,89)           109.5132                                         !
 ! A162  A(85,89,90)           108.3159                                         !
 ! A163  A(85,89,91)           109.3923                                         !
 ! A164  A(85,89,92)           113.9192                                         !
 ! A165  A(90,89,91)           106.1504                                         !
 ! A166  A(90,89,92)           108.4208                                         !
 ! A167  A(91,89,92)           110.3266                                         !
 ! A168  A(89,92,93)           108.4035                                         !
 ! A169  A(89,92,94)           110.2747                                         !
 ! A170  A(89,92,95)           116.3522                                         !
 ! A171  A(93,92,94)           105.2699                                         !
 ! A172  A(93,92,95)           107.9669                                         !
 ! A173  A(94,92,95)           107.9901                                         !
 ! A174  A(92,95,96)           109.5424                                         !
 ! A175  A(92,95,97)           110.4173                                         !
 ! A176  A(92,95,98)           112.0643                                         !
 ! A177  A(96,95,97)           106.8774                                         !
 ! A178  A(96,95,98)           110.4076                                         !
 ! A179  A(97,95,98)           107.3838                                         !
 ! A180  A(95,98,99)           110.1644                                         !
 ! A181  A(95,98,100)          109.511                                          !
 ! A182  A(95,98,101)          112.0386                                         !
 ! A183  A(99,98,100)          106.5645                                         !
 ! A184  A(99,98,101)          115.281                                          !
 ! A185  A(100,98,101)         102.77                                           !
 ! D1    D(2,1,5,6)             25.2497                                         !
 ! D2    D(2,1,5,7)            -92.5223                                         !
 ! D3    D(2,1,5,8)            146.186                                          !
 ! D4    D(3,1,5,6)            -98.5942                                         !
 ! D5    D(3,1,5,7)            143.6338                                         !
 ! D6    D(3,1,5,8)             22.3421                                         !
 ! D7    D(4,1,5,6)            140.9156                                         !
 ! D8    D(4,1,5,7)             23.1437                                         !
 ! D9    D(4,1,5,8)            -98.148                                          !
 ! D10   D(1,5,7,10)           -23.61                                           !
 ! D11   D(1,5,7,19)           155.8449                                         !
 ! D12   D(6,5,7,10)          -138.4163                                         !
 ! D13   D(6,5,7,19)            41.0385                                         !
 ! D14   D(8,5,7,10)            94.7701                                         !
 ! D15   D(8,5,7,19)           -85.7751                                         !
 ! D16   D(1,5,8,9)             60.9976                                         !
 ! D17   D(1,5,8,11)           179.0407                                         !
 ! D18   D(1,5,8,15)           -58.3293                                         !
 ! D19   D(6,5,8,9)           -179.6016                                         !
 ! D20   D(6,5,8,11)           -61.5585                                         !
 ! D21   D(6,5,8,15)            61.0716                                         !
 ! D22   D(7,5,8,9)            -52.0331                                         !
 ! D23   D(7,5,8,11)            66.0099                                         !
 ! D24   D(7,5,8,15)          -171.36                                           !
 ! D25   D(5,7,19,20)           10.8269                                         !
 ! D26   D(5,7,19,21)          177.1152                                         !
 ! D27   D(10,7,19,20)        -169.7738                                         !
 ! D28   D(10,7,19,21)          -3.4855                                         !
 ! D29   D(5,8,11,12)           61.1177                                         !
 ! D30   D(5,8,11,13)          179.2261                                         !
 ! D31   D(5,8,11,14)          -61.2303                                         !
 ! D32   D(9,8,11,12)          178.3559                                         !
 ! D33   D(9,8,11,13)          -63.5357                                         !
 ! D34   D(9,8,11,14)           56.0078                                         !
 ! D35   D(15,8,11,12)         -62.6396                                         !
 ! D36   D(15,8,11,13)          55.4688                                         !
 ! D37   D(15,8,11,14)         175.0123                                         !
 ! D38   D(5,8,15,16)          -59.2726                                         !
 ! D39   D(5,8,15,17)           63.5499                                         !
 ! D40   D(5,8,15,18)         -178.128                                          !
 ! D41   D(9,8,15,16)         -177.382                                          !
 ! D42   D(9,8,15,17)          -54.5595                                         !
 ! D43   D(9,8,15,18)           63.7626                                         !
 ! D44   D(11,8,15,16)          64.0606                                         !
 ! D45   D(11,8,15,17)        -173.117                                          !
 ! D46   D(11,8,15,18)         -54.7949                                         !
 ! D47   D(7,19,21,22)         -18.1124                                         !
 ! D48   D(7,19,21,23)        -138.8104                                         !
 ! D49   D(7,19,21,24)         101.5754                                         !
 ! D50   D(20,19,21,22)        149.1708                                         !
 ! D51   D(20,19,21,23)         28.4728                                         !
 ! D52   D(20,19,21,24)        -91.1413                                         !
 ! D53   D(19,21,23,27)        -18.8004                                         !
 ! D54   D(19,21,23,30)        162.8802                                         !
 ! D55   D(22,21,23,27)       -136.7136                                         !
 ! D56   D(22,21,23,30)         44.967                                          !
 ! D57   D(24,21,23,27)        101.1854                                         !
 ! D58   D(24,21,23,30)        -77.134                                          !
 ! D59   D(19,21,24,25)       -178.0959                                         !
 ! D60   D(19,21,24,26)         64.9163                                         !
 ! D61   D(19,21,24,28)        -56.6554                                         !
 ! D62   D(22,21,24,25)        -59.0324                                         !
 ! D63   D(22,21,24,26)       -176.0202                                         !
 ! D64   D(22,21,24,28)         62.4081                                         !
 ! D65   D(23,21,24,25)         64.9323                                         !
 ! D66   D(23,21,24,26)        -52.0555                                         !
 ! D67   D(23,21,24,28)       -173.6271                                         !
 ! D68   D(21,23,30,31)          0.1395                                         !
 ! D69   D(21,23,30,32)        176.6921                                         !
 ! D70   D(27,23,30,31)       -178.0874                                         !
 ! D71   D(27,23,30,32)         -1.5347                                         !
 ! D72   D(21,24,28,29)       -174.8549                                         !
 ! D73   D(25,24,28,29)        -55.76                                           !
 ! D74   D(26,24,28,29)         65.515                                          !
 ! D75   D(23,30,32,33)         33.0739                                         !
 ! D76   D(23,30,32,34)        -84.2699                                         !
 ! D77   D(23,30,32,35)        152.6511                                         !
 ! D78   D(31,30,32,33)       -150.2968                                         !
 ! D79   D(31,30,32,34)         92.3594                                         !
 ! D80   D(31,30,32,35)        -30.7196                                         !
 ! D81   D(30,32,34,39)       -108.1035                                         !
 ! D82   D(30,32,34,40)         70.4993                                         !
 ! D83   D(33,32,34,39)        136.3681                                         !
 ! D84   D(33,32,34,40)        -45.0291                                         !
 ! D85   D(35,32,34,39)         14.217                                          !
 ! D86   D(35,32,34,40)       -167.1802                                         !
 ! D87   D(30,32,35,36)       -177.2016                                         !
 ! D88   D(30,32,35,37)         64.9416                                         !
 ! D89   D(30,32,35,38)        -57.1887                                         !
 ! D90   D(33,32,35,36)        -60.5766                                         !
 ! D91   D(33,32,35,37)       -178.4333                                         !
 ! D92   D(33,32,35,38)         59.4363                                         !
 ! D93   D(34,32,35,36)         60.4789                                         !
 ! D94   D(34,32,35,37)        -57.3778                                         !
 ! D95   D(34,32,35,38)       -179.5082                                         !
 ! D96   D(32,34,40,41)          6.417                                          !
 ! D97   D(32,34,40,42)        178.9873                                         !
 ! D98   D(39,34,40,41)       -175.0214                                         !
 ! D99   D(39,34,40,42)         -2.451                                          !
 ! D100  D(34,40,42,43)         26.3619                                         !
 ! D101  D(34,40,42,44)        -91.0759                                         !
 ! D102  D(34,40,42,45)        146.5255                                         !
 ! D103  D(41,40,42,43)       -161.0368                                         !
 ! D104  D(41,40,42,44)         81.5254                                         !
 ! D105  D(41,40,42,45)        -40.8731                                         !
 ! D106  D(40,42,44,48)        -91.8509                                         !
 ! D107  D(40,42,44,59)         86.4957                                         !
 ! D108  D(43,42,44,48)        153.237                                          !
 ! D109  D(43,42,44,59)        -28.4164                                         !
 ! D110  D(45,42,44,48)         29.6436                                         !
 ! D111  D(45,42,44,59)       -152.0098                                         !
 ! D112  D(40,42,45,46)        -52.177                                          !
 ! D113  D(40,42,45,47)         63.905                                          !
 ! D114  D(40,42,45,49)       -174.7145                                         !
 ! D115  D(43,42,45,46)         64.6475                                         !
 ! D116  D(43,42,45,47)       -179.2705                                         !
 ! D117  D(43,42,45,49)        -57.8899                                         !
 ! D118  D(44,42,45,46)       -172.6339                                         !
 ! D119  D(44,42,45,47)        -56.5519                                         !
 ! D120  D(44,42,45,49)         64.8287                                         !
 ! D121  D(42,44,59,60)         -3.278                                          !
 ! D122  D(42,44,59,61)       -176.6292                                         !
 ! D123  D(48,44,59,60)        175.0252                                         !
 ! D124  D(48,44,59,61)          1.674                                          !
 ! D125  D(42,45,49,50)        -57.7516                                         !
 ! D126  D(42,45,49,51)         61.7783                                         !
 ! D127  D(42,45,49,55)       -174.4197                                         !
 ! D128  D(46,45,49,50)       -179.5789                                         !
 ! D129  D(46,45,49,51)        -60.049                                          !
 ! D130  D(46,45,49,55)         63.7529                                         !
 ! D131  D(47,45,49,50)         63.267                                          !
 ! D132  D(47,45,49,51)       -177.2031                                         !
 ! D133  D(47,45,49,55)        -53.4012                                         !
 ! D134  D(45,49,51,52)         58.9633                                         !
 ! D135  D(45,49,51,53)        178.2419                                         !
 ! D136  D(45,49,51,54)        -61.9649                                         !
 ! D137  D(50,49,51,52)        177.8049                                         !
 ! D138  D(50,49,51,53)        -62.9165                                         !
 ! D139  D(50,49,51,54)         56.8766                                         !
 ! D140  D(55,49,51,52)        -64.3432                                         !
 ! D141  D(55,49,51,53)         54.9354                                         !
 ! D142  D(55,49,51,54)        174.7285                                         !
 ! D143  D(45,49,55,56)        -63.0018                                         !
 ! D144  D(45,49,55,57)        177.4304                                         !
 ! D145  D(45,49,55,58)         57.3295                                         !
 ! D146  D(50,49,55,56)       -179.5202                                         !
 ! D147  D(50,49,55,57)         60.912                                          !
 ! D148  D(50,49,55,58)        -59.1889                                         !
 ! D149  D(51,49,55,56)         62.0492                                         !
 ! D150  D(51,49,55,57)        -57.5186                                         !
 ! D151  D(51,49,55,58)       -177.6195                                         !
 ! D152  D(44,59,61,62)        -42.6971                                         !
 ! D153  D(44,59,61,63)       -161.8312                                         !
 ! D154  D(44,59,61,64)         76.2765                                         !
 ! D155  D(60,59,61,62)        143.5663                                         !
 ! D156  D(60,59,61,63)         24.4322                                         !
 ! D157  D(60,59,61,64)        -97.4601                                         !
 ! D158  D(59,61,63,67)        -27.5831                                         !
 ! D159  D(59,61,63,80)        153.3468                                         !
 ! D160  D(62,61,63,67)       -144.934                                          !
 ! D161  D(62,61,63,80)         35.9959                                         !
 ! D162  D(64,61,63,67)         94.1013                                         !
 ! D163  D(64,61,63,80)        -84.9688                                         !
 ! D164  D(59,61,64,65)         66.2876                                         !
 ! D165  D(59,61,64,66)        -48.9045                                         !
 ! D166  D(59,61,64,68)       -170.0476                                         !
 ! D167  D(62,61,64,65)       -174.8516                                         !
 ! D168  D(62,61,64,66)         69.9564                                         !
 ! D169  D(62,61,64,68)        -51.1868                                         !
 ! D170  D(63,61,64,65)        -52.4363                                         !
 ! D171  D(63,61,64,66)       -167.6284                                         !
 ! D172  D(63,61,64,68)         71.2285                                         !
 ! D173  D(61,63,80,81)          2.1562                                         !
 ! D174  D(61,63,80,82)        174.117                                          !
 ! D175  D(67,63,80,81)       -176.8818                                         !
 ! D176  D(67,63,80,82)         -4.921                                          !
 ! D177  D(61,64,68,69)       -106.0395                                         !
 ! D178  D(61,64,68,71)         73.2569                                         !
 ! D179  D(65,64,68,69)         16.2276                                         !
 ! D180  D(65,64,68,71)       -164.4761                                         !
 ! D181  D(66,64,68,69)        135.076                                          !
 ! D182  D(66,64,68,71)        -45.6277                                         !
 ! D183  D(64,68,69,70)         -0.8429                                         !
 ! D184  D(64,68,69,73)        179.2049                                         !
 ! D185  D(71,68,69,70)        179.8432                                         !
 ! D186  D(71,68,69,73)         -0.109                                          !
 ! D187  D(64,68,71,72)          1.5621                                         !
 ! D188  D(64,68,71,75)       -178.9585                                         !
 ! D189  D(69,68,71,72)       -179.115                                          !
 ! D190  D(69,68,71,75)          0.3644                                         !
 ! D191  D(68,69,73,74)       -179.9933                                         !
 ! D192  D(68,69,73,79)         -0.2575                                         !
 ! D193  D(70,69,73,74)          0.0544                                         !
 ! D194  D(70,69,73,79)        179.7902                                         !
 ! D195  D(68,71,75,76)       -179.8622                                         !
 ! D196  D(68,71,75,79)         -0.2515                                         !
 ! D197  D(72,71,75,76)         -0.3813                                         !
 ! D198  D(72,71,75,79)        179.2293                                         !
 ! D199  D(69,73,79,75)          0.3737                                         !
 ! D200  D(69,73,79,77)        179.9535                                         !
 ! D201  D(74,73,79,75)       -179.8843                                         !
 ! D202  D(74,73,79,77)         -0.3045                                         !
 ! D203  D(71,75,79,73)         -0.1241                                         !
 ! D204  D(71,75,79,77)       -179.6802                                         !
 ! D205  D(76,75,79,73)        179.4868                                         !
 ! D206  D(76,75,79,77)         -0.0693                                         !
 ! D207  D(78,77,79,73)        178.2021                                         !
 ! D208  D(78,77,79,75)         -2.2325                                         !
 ! D209  D(63,80,82,83)        -36.4171                                         !
 ! D210  D(63,80,82,84)       -155.8312                                         !
 ! D211  D(63,80,82,85)         83.7812                                         !
 ! D212  D(81,80,82,83)        135.949                                          !
 ! D213  D(81,80,82,84)         16.535                                          !
 ! D214  D(81,80,82,85)       -103.8526                                         !
 ! D215  D(80,82,84,88)        153.3849                                         !
 ! D216  D(80,82,84,102)       -32.6139                                         !
 ! D217  D(83,82,84,88)         34.2741                                         !
 ! D218  D(83,82,84,102)      -151.7246                                         !
 ! D219  D(85,82,84,88)        -84.8093                                         !
 ! D220  D(85,82,84,102)        89.192                                          !
 ! D221  D(80,82,85,86)        -75.6203                                         !
 ! D222  D(80,82,85,87)         38.2688                                         !
 ! D223  D(80,82,85,89)        161.0805                                         !
 ! D224  D(83,82,85,86)         44.7391                                         !
 ! D225  D(83,82,85,87)        158.6283                                         !
 ! D226  D(83,82,85,89)        -78.56                                           !
 ! D227  D(84,82,85,86)        164.2927                                         !
 ! D228  D(84,82,85,87)        -81.8182                                         !
 ! D229  D(84,82,85,89)         40.9936                                         !
 ! D230  D(82,85,89,90)        151.2384                                         !
 ! D231  D(82,85,89,91)         35.9516                                         !
 ! D232  D(82,85,89,92)        -88.0344                                         !
 ! D233  D(86,85,89,90)         30.2967                                         !
 ! D234  D(86,85,89,91)        -84.99                                           !
 ! D235  D(86,85,89,92)        151.024                                          !
 ! D236  D(87,85,89,90)        -87.0762                                         !
 ! D237  D(87,85,89,91)        157.6371                                         !
 ! D238  D(87,85,89,92)         33.6511                                         !
 ! D239  D(85,89,92,93)        -96.2611                                         !
 ! D240  D(85,89,92,94)         18.4981                                         !
 ! D241  D(85,89,92,95)        141.8945                                         !
 ! D242  D(90,89,92,93)         24.4075                                         !
 ! D243  D(90,89,92,94)        139.1667                                         !
 ! D244  D(90,89,92,95)        -97.4369                                         !
 ! D245  D(91,89,92,93)        140.2583                                         !
 ! D246  D(91,89,92,94)       -104.9825                                         !
 ! D247  D(91,89,92,95)         18.4139                                         !
 ! D248  D(89,92,95,96)        147.0689                                         !
 ! D249  D(89,92,95,97)         29.6269                                         !
 ! D250  D(89,92,95,98)        -90.0345                                         !
 ! D251  D(93,92,95,96)         24.9946                                         !
 ! D252  D(93,92,95,97)        -92.4474                                         !
 ! D253  D(93,92,95,98)        147.8912                                         !
 ! D254  D(94,92,95,96)        -88.3589                                         !
 ! D255  D(94,92,95,97)        154.1991                                         !
 ! D256  D(94,92,95,98)         34.5377                                         !
 ! D257  D(92,95,98,99)        175.5593                                         !
 ! D258  D(92,95,98,100)       -67.5473                                         !
 ! D259  D(92,95,98,101)        45.8077                                         !
 ! D260  D(96,95,98,99)        -62.0349                                         !
 ! D261  D(96,95,98,100)        54.8585                                         !
 ! D262  D(96,95,98,101)       168.2135                                         !
 ! D263  D(97,95,98,99)         54.1373                                         !
 ! D264  D(97,95,98,100)       171.0307                                         !
 ! D265  D(97,95,98,101)       -75.6143                                         !
 --------------------------------------------------------------------------------
 Symmetry turned off by external request.
 Stoichiometry    C32H54N7O9(1+)
 Framework group  C1[X(C32H54N7O9)]
 Deg. of freedom   300
 Full point group                 C1      NOp   1
                          Input orientation:                          
 ---------------------------------------------------------------------
 Center     Atomic      Atomic             Coordinates (Angstroms)
 Number     Number       Type             X           Y           Z
 ---------------------------------------------------------------------
      1          7           0       -7.835340    1.506152    4.369604
      2          1           0       -8.101408    0.549931    4.623461
      3          1           0       -8.685722    2.063490    4.254545
      4          1           0       -7.209939    1.887650    5.135248
      5          6           0       -6.919335    1.561162    3.158582
      6          1           0       -7.095315    0.663222    2.560003
      7          6           0       -5.520183    1.543639    3.841067
      8          6           0       -7.207633    2.837493    2.324932
      9          1           0       -7.006532    3.700284    2.976208
     10          8           0       -5.464128    1.939535    5.012128
     11          6           0       -6.271189    2.920787    1.106409
     12          1           0       -6.413369    2.062653    0.437415
     13          1           0       -6.506570    3.821121    0.531844
     14          1           0       -5.214575    2.975155    1.378293
     15          6           0       -8.674069    2.890573    1.856599
     16          1           0       -8.928140    2.020052    1.240402
     17          1           0       -9.408192    2.956438    2.671821
     18          1           0       -8.829355    3.784699    1.246196
     19          7           0       -4.496301    1.094709    3.117744
     20          1           0       -4.585049    0.930243    2.117041
     21          6           0       -3.114856    1.069260    3.584962
     22          1           0       -3.030392    1.750088    4.436161
     23          6           0       -2.254420    1.517852    2.386161
     24          6           0       -2.712694   -0.349653    4.029297
     25          1           0       -1.679151   -0.317642    4.405031
     26          1           0       -2.730008   -1.017667    3.153595
     27          8           0       -2.733377    1.465538    1.246707
     28          8           0       -3.629971   -0.756149    5.024929
     29          1           0       -3.341088   -1.614202    5.372331
     30          7           0       -1.000138    1.913247    2.659630
     31          1           0       -0.670422    1.901601    3.617205
     32          6           0       -0.030032    2.303517    1.617655
     33          1           0       -0.618394    2.769436    0.820831
     34          6           0        0.673715    1.043008    1.046461
     35          6           0        0.979750    3.292131    2.187695
     36          1           0        1.664829    3.615802    1.400712
     37          1           0        1.588950    2.822193    2.965702
     38          1           0        0.471127    4.171637    2.594705
     39          8           0        1.846497    0.793463    1.301505
     40          7           0       -0.124116    0.251554    0.283795
     41          1           0       -1.060759    0.569996    0.058867
     42          6           0        0.373017   -0.971433   -0.357892
     43          1           0        1.209819   -1.309176    0.257568
     44          6           0        0.882855   -0.607286   -1.772989
     45          6           0       -0.735578   -2.027782   -0.411323
     46          1           0       -1.143548   -2.143800    0.603792
     47          1           0       -1.538558   -1.640245   -1.050546
     48          8           0        0.147093   -0.671519   -2.758066
     49          6           0       -0.304964   -3.407548   -0.948672
     50          1           0        0.102602   -3.254162   -1.955998
     51          6           0        0.774032   -4.073444   -0.080887
     52          1           0        0.421974   -4.211296    0.950560
     53          1           0        1.031134   -5.062768   -0.475831
     54          1           0        1.700557   -3.489977   -0.043192
     55          6           0       -1.533840   -4.319916   -1.078651
     56          1           0       -1.994439   -4.505053   -0.098479
     57          1           0       -1.258651   -5.292340   -1.502099
     58          1           0       -2.294633   -3.874328   -1.730191
     59          7           0        2.167879   -0.188518   -1.819602
     60          1           0        2.726249   -0.076565   -0.976439
     61          6           0        2.793534    0.263354   -3.051473
     62          1           0        2.499098   -0.420019   -3.854563
     63          6           0        4.310326    0.205545   -2.812038
     64          6           0        2.324500    1.700611   -3.433003
     65          1           0        2.701411    2.394937   -2.672833
     66          1           0        1.231632    1.688994   -3.360606
     67          8           0        4.768602    0.329761   -1.674873
     68          6           0        2.745079    2.143581   -4.816083
     69          6           0        3.770297    3.080948   -5.009913
     70          1           0        4.269107    3.512852   -4.145165
     71          6           0        2.122064    1.610141   -5.952671
     72          1           0        1.313555    0.891645   -5.833026
     73          6           0        4.166324    3.474608   -6.284567
     74          1           0        4.960208    4.200191   -6.429866
     75          6           0        2.510531    1.990010   -7.236854
     76          1           0        2.011683    1.564967   -8.106171
     77          8           0        3.961699    3.344661   -8.635303
     78          1           0        3.467753    2.869033   -9.321092
     79          6           0        3.537457    2.924896   -7.406592
     80          7           0        5.075921    0.033955   -3.911161
     81          1           0        4.662332   -0.017671   -4.835857
     82          6           0        6.529760    0.082977   -3.871535
     83          1           0        6.842162    0.841883   -3.150129
     84          6           0        7.042178    0.453113   -5.254212
     85          6           0        7.138509   -1.295259   -3.449546
     86          1           0        6.980556   -1.380373   -2.369916
     87          1           0        6.532415   -2.079206   -3.920331
     88          8           0        8.224763    1.057012   -5.191888
     89          6           0        8.628751   -1.513601   -3.800722
     90          1           0        9.059853   -2.199458   -3.062084
     91          1           0        9.170057   -0.568863   -3.691204
     92          6           0        8.862021   -2.109016   -5.219684
     93          1           0        8.978636   -3.195217   -5.124460
     94          1           0        7.970196   -1.967710   -5.842511
     95          6           0       10.077821   -1.566421   -5.998477
     96          1           0       10.496585   -2.363953   -6.628713
     97          1           0       10.869550   -1.259532   -5.305795
     98          7           0        9.727652   -0.381645   -6.825966
     99          1           0       10.563850   -0.003096   -7.269227
    100          1           0        9.101789   -0.665680   -7.580214
    101          1           0        8.801666    0.730313   -5.974218
    102          8           0        6.471324    0.117068   -6.279559
 ---------------------------------------------------------------------
 Rotational constants (GHZ):           0.1089246           0.0196191           0.0184454
 Standard basis: 6-31G(d) (6D, 7F)
   828 basis functions,  1560 primitive gaussians,   828 cartesian basis functions
   183 alpha electrons      183 beta electrons
       nuclear repulsion energy      6225.6664012119 Hartrees.
 NAtoms=  102 NActive=  102 NUniq=  102 SFac= 1.00D+00 NAtFMM=   60 NAOKFM=T Big=T
 Integral buffers will be    131072 words long.
 Raffenetti 2 integral format.
 Two-electron integral symmetry is turned off.
 One-electron integrals computed using PRISM.
 NBasis=   828 RedAO= T EigKep=  4.33D-04  NBF=   828
 NBsUse=   828 1.00D-06 EigRej= -1.00D+00 NBFU=   828
 Initial guess from the checkpoint file:  "conf-252.chk"
 B after Tr=     0.000000    0.000000    0.000000
         Rot=    1.000000    0.000000    0.000000    0.000000 Ang=   0.00 deg.
 Requested convergence on RMS density matrix=1.00D-08 within 128 cycles.
 Requested convergence on MAX density matrix=1.00D-06.
 Requested convergence on             energy=1.00D-06.
 No special actions if energy rises.
 SCF Done:  E(RB3LYP) =  -2312.08366033     A.U. after    1 cycles
            NFock=  1  Conv=0.63D-08     -V/T= 2.0094
 Hyperfine terms turned off by default for NAtoms > 100.

 **********************************************************************

            Population analysis using the SCF Density.

 **********************************************************************

 Alpha  occ. eigenvalues --  -19.27248 -19.25707 -19.23828 -19.21309 -19.19756
 Alpha  occ. eigenvalues --  -19.18761 -19.16671 -19.16034 -19.15529 -14.60592
 Alpha  occ. eigenvalues --  -14.50435 -14.47982 -14.42959 -14.40153 -14.39885
 Alpha  occ. eigenvalues --  -14.39256 -10.44272 -10.41291 -10.40914 -10.35998
 Alpha  occ. eigenvalues --  -10.35939 -10.35418 -10.35265 -10.34522 -10.33189
 Alpha  occ. eigenvalues --  -10.32742 -10.32494 -10.31963 -10.30508 -10.28804
 Alpha  occ. eigenvalues --  -10.28485 -10.27666 -10.26900 -10.26496 -10.26063
 Alpha  occ. eigenvalues --  -10.24277 -10.24107 -10.23384 -10.22862 -10.22802
 Alpha  occ. eigenvalues --  -10.22743 -10.22679 -10.22666 -10.22660 -10.22488
 Alpha  occ. eigenvalues --  -10.22433 -10.22215 -10.21994  -1.19899  -1.15754
 Alpha  occ. eigenvalues --   -1.14440  -1.13215  -1.11936  -1.10656  -1.09359
 Alpha  occ. eigenvalues --   -1.08060  -1.07209  -1.06911  -1.03905  -1.03497
 Alpha  occ. eigenvalues --   -0.99163  -0.96648  -0.96314  -0.95897  -0.94701
 Alpha  occ. eigenvalues --   -0.90291  -0.89000  -0.87052  -0.86290  -0.84826
 Alpha  occ. eigenvalues --   -0.84071  -0.82633  -0.82130  -0.80266  -0.79173
 Alpha  occ. eigenvalues --   -0.78346  -0.77147  -0.76494  -0.75488  -0.74610
 Alpha  occ. eigenvalues --   -0.73977  -0.73542  -0.73326  -0.72643  -0.71188
 Alpha  occ. eigenvalues --   -0.70877  -0.70507  -0.68745  -0.67277  -0.66781
 Alpha  occ. eigenvalues --   -0.65793  -0.65484  -0.64581  -0.64291  -0.63322
 Alpha  occ. eigenvalues --   -0.63110  -0.62941  -0.61654  -0.61522  -0.61354
 Alpha  occ. eigenvalues --   -0.60907  -0.60537  -0.59381  -0.58605  -0.57928
 Alpha  occ. eigenvalues --   -0.57904  -0.57436  -0.57098  -0.56560  -0.55328
 Alpha  occ. eigenvalues --   -0.55266  -0.54743  -0.54340  -0.53442  -0.53305
 Alpha  occ. eigenvalues --   -0.53261  -0.53048  -0.52513  -0.51613  -0.51543
 Alpha  occ. eigenvalues --   -0.51410  -0.50838  -0.50588  -0.50338  -0.49933
 Alpha  occ. eigenvalues --   -0.49547  -0.49175  -0.48909  -0.48711  -0.48608
 Alpha  occ. eigenvalues --   -0.48426  -0.48082  -0.48042  -0.47733  -0.47394
 Alpha  occ. eigenvalues --   -0.47025  -0.46845  -0.46543  -0.46242  -0.45819
 Alpha  occ. eigenvalues --   -0.45731  -0.45479  -0.45359  -0.45003  -0.44788
 Alpha  occ. eigenvalues --   -0.44522  -0.44392  -0.43929  -0.43569  -0.43509
 Alpha  occ. eigenvalues --   -0.42722  -0.42150  -0.41898  -0.41573  -0.41293
 Alpha  occ. eigenvalues --   -0.40769  -0.40321  -0.40072  -0.39771  -0.39393
 Alpha  occ. eigenvalues --   -0.39054  -0.38712  -0.38358  -0.37862  -0.37704
 Alpha  occ. eigenvalues --   -0.37580  -0.37517  -0.37471  -0.37253  -0.37170
 Alpha  occ. eigenvalues --   -0.36918  -0.36274  -0.33520  -0.33253  -0.31972
 Alpha  occ. eigenvalues --   -0.31484  -0.30598  -0.30488  -0.29388  -0.28955
 Alpha  occ. eigenvalues --   -0.28865  -0.28505  -0.25179
 Alpha virt. eigenvalues --   -0.13237  -0.11432  -0.09867  -0.07031  -0.05734
 Alpha virt. eigenvalues --   -0.05089  -0.04002  -0.03236  -0.03120  -0.02707
 Alpha virt. eigenvalues --   -0.02585  -0.02242  -0.01858  -0.01537  -0.00969
 Alpha virt. eigenvalues --   -0.00424   0.00846   0.01630   0.01950   0.02404
 Alpha virt. eigenvalues --    0.02582   0.02684   0.03421   0.03609   0.03732
 Alpha virt. eigenvalues --    0.04404   0.05267   0.05599   0.05870   0.05940
 Alpha virt. eigenvalues --    0.06355   0.06721   0.06936   0.07240   0.07579
 Alpha virt. eigenvalues --    0.07712   0.07869   0.08298   0.08480   0.08596
 Alpha virt. eigenvalues --    0.08696   0.08971   0.09381   0.09459   0.09637
 Alpha virt. eigenvalues --    0.09766   0.10003   0.10164   0.10260   0.10449
 Alpha virt. eigenvalues --    0.10651   0.10732   0.10935   0.11319   0.11462
 Alpha virt. eigenvalues --    0.11719   0.11998   0.12091   0.12458   0.12729
 Alpha virt. eigenvalues --    0.13222   0.13657   0.13977   0.14019   0.14208
 Alpha virt. eigenvalues --    0.14294   0.14595   0.14846   0.14931   0.15102
 Alpha virt. eigenvalues --    0.15902   0.16273   0.16461   0.17250   0.17773
 Alpha virt. eigenvalues --    0.17932   0.18283   0.18715   0.19109   0.19664
 Alpha virt. eigenvalues --    0.19847   0.20178   0.20447   0.20709   0.20848
 Alpha virt. eigenvalues --    0.21924   0.22053   0.22264   0.22588   0.22798
 Alpha virt. eigenvalues --    0.23051   0.23990   0.24658   0.26205   0.27098
 Alpha virt. eigenvalues --    0.27683   0.28102   0.28150   0.29238   0.29949
 Alpha virt. eigenvalues --    0.30366   0.30999   0.31922   0.32276   0.32845
 Alpha virt. eigenvalues --    0.33839   0.34873   0.35594   0.36163   0.36604
 Alpha virt. eigenvalues --    0.37216   0.37509   0.39376   0.39803   0.40128
 Alpha virt. eigenvalues --    0.41729   0.43109   0.43346   0.43662   0.44039
 Alpha virt. eigenvalues --    0.45074   0.45454   0.45589   0.45774   0.46228
 Alpha virt. eigenvalues --    0.46281   0.46587   0.46789   0.46971   0.47658
 Alpha virt. eigenvalues --    0.47995   0.48194   0.48462   0.49318   0.49433
 Alpha virt. eigenvalues --    0.49709   0.49893   0.50801   0.50907   0.50994
 Alpha virt. eigenvalues --    0.51056   0.51397   0.51664   0.52387   0.53152
 Alpha virt. eigenvalues --    0.53579   0.54200   0.54354   0.54733   0.55063
 Alpha virt. eigenvalues --    0.55350   0.55371   0.55562   0.56013   0.56673
 Alpha virt. eigenvalues --    0.57186   0.57345   0.58081   0.58178   0.58403
 Alpha virt. eigenvalues --    0.58438   0.58657   0.59261   0.59717   0.59780
 Alpha virt. eigenvalues --    0.60085   0.60526   0.60938   0.61158   0.61570
 Alpha virt. eigenvalues --    0.61653   0.61869   0.61973   0.62828   0.62869
 Alpha virt. eigenvalues --    0.63337   0.64495   0.64853   0.65171   0.65255
 Alpha virt. eigenvalues --    0.65831   0.66348   0.66448   0.66648   0.66880
 Alpha virt. eigenvalues --    0.67239   0.67419   0.67497   0.67643   0.68281
 Alpha virt. eigenvalues --    0.68940   0.69276   0.69819   0.70008   0.70581
 Alpha virt. eigenvalues --    0.70925   0.71400   0.71688   0.72300   0.72378
 Alpha virt. eigenvalues --    0.72540   0.72865   0.73346   0.74046   0.74138
 Alpha virt. eigenvalues --    0.74612   0.75132   0.75332   0.75816   0.76064
 Alpha virt. eigenvalues --    0.76266   0.76708   0.76987   0.77269   0.77752
 Alpha virt. eigenvalues --    0.77842   0.78064   0.78368   0.78511   0.79039
 Alpha virt. eigenvalues --    0.79283   0.79452   0.79571   0.80050   0.80175
 Alpha virt. eigenvalues --    0.80397   0.80455   0.81083   0.81224   0.81540
 Alpha virt. eigenvalues --    0.81685   0.82144   0.82266   0.82739   0.82942
 Alpha virt. eigenvalues --    0.83076   0.83572   0.83697   0.83840   0.84297
 Alpha virt. eigenvalues --    0.84376   0.84447   0.84700   0.85293   0.85489
 Alpha virt. eigenvalues --    0.85734   0.85846   0.86257   0.86386   0.86985
 Alpha virt. eigenvalues --    0.87181   0.87446   0.87584   0.87768   0.88141
 Alpha virt. eigenvalues --    0.88269   0.88543   0.88895   0.89045   0.89458
 Alpha virt. eigenvalues --    0.89784   0.90034   0.90302   0.90611   0.90991
 Alpha virt. eigenvalues --    0.91513   0.91947   0.92307   0.92624   0.92955
 Alpha virt. eigenvalues --    0.93238   0.93677   0.93849   0.94418   0.94792
 Alpha virt. eigenvalues --    0.95156   0.95355   0.95994   0.96583   0.96757
 Alpha virt. eigenvalues --    0.97447   0.97551   0.98122   0.98329   0.98866
 Alpha virt. eigenvalues --    0.99788   1.00950   1.01080   1.01184   1.01432
 Alpha virt. eigenvalues --    1.02635   1.03049   1.03308   1.03909   1.05084
 Alpha virt. eigenvalues --    1.06019   1.08010   1.08455   1.08793   1.09121
 Alpha virt. eigenvalues --    1.10269   1.10355   1.11509   1.11987   1.12519
 Alpha virt. eigenvalues --    1.13224   1.13444   1.15167   1.15584   1.16394
 Alpha virt. eigenvalues --    1.16886   1.17022   1.17431   1.17552   1.19866
 Alpha virt. eigenvalues --    1.20592   1.21082   1.21424   1.21753   1.21947
 Alpha virt. eigenvalues --    1.22611   1.24813   1.25102   1.25480   1.26645
 Alpha virt. eigenvalues --    1.27252   1.27971   1.28886   1.29926   1.30860
 Alpha virt. eigenvalues --    1.31397   1.32626   1.33270   1.33580   1.34031
 Alpha virt. eigenvalues --    1.34448   1.35834   1.36225   1.37031   1.38220
 Alpha virt. eigenvalues --    1.38473   1.38943   1.39312   1.39737   1.40884
 Alpha virt. eigenvalues --    1.41358   1.41730   1.42445   1.42694   1.42942
 Alpha virt. eigenvalues --    1.43928   1.44811   1.45372   1.45932   1.46134
 Alpha virt. eigenvalues --    1.47217   1.47702   1.47741   1.48641   1.48715
 Alpha virt. eigenvalues --    1.50022   1.50446   1.50912   1.52311   1.52703
 Alpha virt. eigenvalues --    1.54205   1.55538   1.55790   1.56305   1.56871
 Alpha virt. eigenvalues --    1.58493   1.59258   1.60138   1.61138   1.61424
 Alpha virt. eigenvalues --    1.62335   1.62687   1.62954   1.64090   1.64293
 Alpha virt. eigenvalues --    1.64562   1.64718   1.65300   1.66018   1.67372
 Alpha virt. eigenvalues --    1.67992   1.68100   1.68285   1.68956   1.69770
 Alpha virt. eigenvalues --    1.70012   1.70124   1.70463   1.70752   1.71664
 Alpha virt. eigenvalues --    1.72149   1.72339   1.72795   1.74068   1.74371
 Alpha virt. eigenvalues --    1.74939   1.75137   1.75557   1.76059   1.76503
 Alpha virt. eigenvalues --    1.76803   1.77258   1.77474   1.78396   1.79083
 Alpha virt. eigenvalues --    1.79198   1.79606   1.80045   1.80424   1.80472
 Alpha virt. eigenvalues --    1.81137   1.81696   1.81765   1.82168   1.82402
 Alpha virt. eigenvalues --    1.82715   1.82958   1.83243   1.84013   1.84887
 Alpha virt. eigenvalues --    1.85287   1.85759   1.85863   1.86374   1.87116
 Alpha virt. eigenvalues --    1.87217   1.87780   1.88317   1.89311   1.89616
 Alpha virt. eigenvalues --    1.89943   1.90126   1.90451   1.91224   1.92018
 Alpha virt. eigenvalues --    1.92632   1.92876   1.93740   1.94039   1.94137
 Alpha virt. eigenvalues --    1.94457   1.94739   1.94982   1.95275   1.95431
 Alpha virt. eigenvalues --    1.95929   1.96299   1.96977   1.97373   1.97397
 Alpha virt. eigenvalues --    1.98034   1.98237   1.99391   1.99546   2.00142
 Alpha virt. eigenvalues --    2.00829   2.00980   2.01596   2.02506   2.03113
 Alpha virt. eigenvalues --    2.03202   2.03888   2.04449   2.04605   2.05469
 Alpha virt. eigenvalues --    2.06272   2.07057   2.08123   2.08221   2.09153
 Alpha virt. eigenvalues --    2.09548   2.09724   2.11113   2.11173   2.11679
 Alpha virt. eigenvalues --    2.12231   2.12368   2.12674   2.13313   2.14428
 Alpha virt. eigenvalues --    2.15041   2.16532   2.16894   2.17781   2.18505
 Alpha virt. eigenvalues --    2.19089   2.19343   2.19941   2.20666   2.20951
 Alpha virt. eigenvalues --    2.21173   2.22366   2.22857   2.23511   2.24260
 Alpha virt. eigenvalues --    2.24660   2.25870   2.26244   2.26741   2.26984
 Alpha virt. eigenvalues --    2.27794   2.29103   2.29918   2.30668   2.31718
 Alpha virt. eigenvalues --    2.31891   2.32883   2.33157   2.33917   2.34911
 Alpha virt. eigenvalues --    2.34927   2.36059   2.36201   2.36423   2.36846
 Alpha virt. eigenvalues --    2.37037   2.37875   2.38344   2.38787   2.39142
 Alpha virt. eigenvalues --    2.39832   2.40792   2.41508   2.42579   2.42993
 Alpha virt. eigenvalues --    2.43102   2.44188   2.45273   2.45765   2.46081
 Alpha virt. eigenvalues --    2.46761   2.47954   2.48622   2.50656   2.51065
 Alpha virt. eigenvalues --    2.53584   2.53719   2.54607   2.54802   2.55563
 Alpha virt. eigenvalues --    2.56663   2.57769   2.58187   2.58785   2.59907
 Alpha virt. eigenvalues --    2.60433   2.60847   2.61167   2.62134   2.62899
 Alpha virt. eigenvalues --    2.63880   2.64114   2.64650   2.65577   2.66588
 Alpha virt. eigenvalues --    2.67507   2.68674   2.68944   2.69818   2.70341
 Alpha virt. eigenvalues --    2.71718   2.73181   2.73611   2.75017   2.76654
 Alpha virt. eigenvalues --    2.77152   2.78146   2.78569   2.79700   2.80464
 Alpha virt. eigenvalues --    2.82959   2.85136   2.85831   2.86049   2.87037
 Alpha virt. eigenvalues --    2.88372   2.90148   2.91305   2.92385   2.94433
 Alpha virt. eigenvalues --    2.95427   2.96196   2.97366   2.99512   3.01795
 Alpha virt. eigenvalues --    3.07510   3.08047   3.08339   3.10228   3.14316
 Alpha virt. eigenvalues --    3.17217   3.38077   3.64569   3.68372   3.79931
 Alpha virt. eigenvalues --    3.89367   3.90525   3.93561   3.96215   3.97762
 Alpha virt. eigenvalues --    3.98760   4.01241   4.02302   4.02672   4.06493
 Alpha virt. eigenvalues --    4.07732   4.07890   4.08825   4.09197   4.11580
 Alpha virt. eigenvalues --    4.13349   4.15641   4.16634   4.18389   4.19173
 Alpha virt. eigenvalues --    4.19814   4.22481   4.23659   4.24475   4.26571
 Alpha virt. eigenvalues --    4.29452   4.31038   4.31186   4.33294   4.35173
 Alpha virt. eigenvalues --    4.35587   4.38793   4.40448   4.42263   4.44644
 Alpha virt. eigenvalues --    4.47032   4.47840   4.50504   4.53599   4.55155
 Alpha virt. eigenvalues --    4.55890   4.59744   4.63097   4.66477   4.71849
          Condensed to atoms (all electrons):
 Mulliken charges:
               1
     1  N   -0.756510
     2  H    0.418918
     3  H    0.409473
     4  H    0.433690
     5  C   -0.107541
     6  H    0.205493
     7  C    0.662375
     8  C   -0.107587
     9  H    0.173288
    10  O   -0.530240
    11  C   -0.479998
    12  H    0.167261
    13  H    0.191601
    14  H    0.186420
    15  C   -0.478047
    16  H    0.177882
    17  H    0.142449
    18  H    0.205021
    19  N   -0.584784
    20  H    0.372839
    21  C   -0.100084
    22  H    0.208945
    23  C    0.639873
    24  C   -0.018838
    25  H    0.151254
    26  H    0.152914
    27  O   -0.552925
    28  O   -0.614751
    29  H    0.415783
    30  N   -0.593351
    31  H    0.348645
    32  C   -0.071387
    33  H    0.189949
    34  C    0.622074
    35  C   -0.465170
    36  H    0.194039
    37  H    0.178640
    38  H    0.154722
    39  O   -0.509442
    40  N   -0.621324
    41  H    0.357198
    42  C   -0.060609
    43  H    0.178863
    44  C    0.634765
    45  C   -0.262033
    46  H    0.110093
    47  H    0.150785
    48  O   -0.547692
    49  C   -0.079864
    50  H    0.158164
    51  C   -0.451526
    52  H    0.131042
    53  H    0.152848
    54  H    0.152249
    55  C   -0.444589
    56  H    0.126281
    57  H    0.151419
    58  H    0.145663
    59  N   -0.620903
    60  H    0.368945
    61  C   -0.036365
    62  H    0.171164
    63  C    0.617210
    64  C   -0.354949
    65  H    0.149660
    66  H    0.171617
    67  O   -0.545396
    68  C    0.149112
    69  C   -0.191758
    70  H    0.131671
    71  C   -0.204546
    72  H    0.143535
    73  C   -0.152931
    74  H    0.146101
    75  C   -0.188642
    76  H    0.122739
    77  O   -0.638945
    78  H    0.409077
    79  C    0.357105
    80  N   -0.618049
    81  H    0.355008
    82  C   -0.000936
    83  H    0.184221
    84  C    0.572677
    85  C   -0.280700
    86  H    0.171584
    87  H    0.146272
    88  O   -0.603723
    89  C   -0.284131
    90  H    0.142286
    91  H    0.168079
    92  C   -0.288822
    93  H    0.146869
    94  H    0.162424
    95  C   -0.141885
    96  H    0.143206
    97  H    0.161332
    98  N   -0.772446
    99  H    0.329015
   100  H    0.337149
   101  H    0.454326
   102  O   -0.501882
 Sum of Mulliken charges =   1.00000
 Mulliken charges with hydrogens summed into heavy atoms:
               1
     1  N    0.505572
     5  C    0.097952
     7  C    0.662375
     8  C    0.065701
    10  O   -0.530240
    11  C    0.065285
    15  C    0.047305
    19  N   -0.211945
    21  C    0.108861
    23  C    0.639873
    24  C    0.285330
    27  O   -0.552925
    28  O   -0.198968
    30  N   -0.244706
    32  C    0.118562
    34  C    0.622074
    35  C    0.062231
    39  O   -0.509442
    40  N   -0.264126
    42  C    0.118254
    44  C    0.634765
    45  C   -0.001155
    48  O   -0.547692
    49  C    0.078299
    51  C   -0.015387
    55  C   -0.021226
    59  N   -0.251959
    61  C    0.134799
    63  C    0.617210
    64  C   -0.033672
    67  O   -0.545396
    68  C    0.149112
    69  C   -0.060086
    71  C   -0.061011
    73  C   -0.006830
    75  C   -0.065903
    77  O   -0.229869
    79  C    0.357105
    80  N   -0.263041
    82  C    0.183285
    84  C    0.572677
    85  C    0.037156
    88  O   -0.149398
    89  C    0.026234
    92  C    0.020471
    95  C    0.162652
    98  N   -0.106282
   102  O   -0.501882
 Electronic spatial extent (au):  <R**2>=          61060.1525
 Charge=              1.0000 electrons
 Dipole moment (field-independent basis, Debye):
    X=            -24.2351    Y=              3.9047    Z=             11.6406  Tot=             27.1678
 Quadrupole moment (field-independent basis, Debye-Ang):
   XX=             18.7163   YY=           -257.9240   ZZ=           -171.4567
   XY=            -65.2246   XZ=           -159.6099   YZ=             28.4015
 Traceless Quadrupole moment (field-independent basis, Debye-Ang):
   XX=            155.6044   YY=           -121.0359   ZZ=            -34.5686
   XY=            -65.2246   XZ=           -159.6099   YZ=             28.4015
 Octapole moment (field-independent basis, Debye-Ang**2):
  XXX=          -1894.9977  YYY=           -431.1396  ZZZ=            878.4629  XYY=           -413.7150
  XXY=             55.3900  XXZ=            598.5688  XZZ=           -279.4544  YZZ=           -185.4340
  YYZ=            471.4950  XYZ=              0.3079
 Hexadecapole moment (field-independent basis, Debye-Ang**3):
 XXXX=         -17307.9280 YYYY=          -7312.1402 ZZZZ=         -21656.8030 XXXY=          -3020.9085
 XXXZ=            101.6227 YYYX=           1345.6679 YYYZ=            600.5661 ZZZX=           9124.9819
 ZZZY=            504.9404 XXYY=          -7385.4422 XXZZ=          -4072.2843 YYZZ=          -5886.2158
 XXYZ=           2242.2674 YYXZ=           4399.3424 ZZXY=           -522.0742
 N-N= 6.225666401212D+03 E-N=-1.781165974328D+04  KE= 2.290577690696D+03
 Unable to Open any file for archive entry.
 1\1\GINC-LAC-303\SP\RB3LYP\6-31G(d)\C32H54N7O9(1+)\KENGMITH\02-Jul-202
 2\0\\# B3LYP/6-31G* guess=read geom=check nosymm integral(ultrafinegri
 d)\\Candidate Structure: Conf:252 Charge calc in gas phase\\1,1\N,0,-7
 .8353396675,1.5061516553,4.3696043857\H,0,-8.1014082113,0.5499309308,4
 .6234612331\H,0,-8.6857218854,2.0634899766,4.2545454704\H,0,-7.2099392
 657,1.8876496908,5.1352484322\C,0,-6.9193351099,1.5611615993,3.1585818
 381\H,0,-7.0953151436,0.6632215237,2.5600031743\C,0,-5.520182734,1.543
 6393929,3.8410673289\C,0,-7.2076333593,2.8374933798,2.3249324852\H,0,-
 7.0065321896,3.7002836323,2.9762081812\O,0,-5.4641280219,1.9395349213,
 5.0121283475\C,0,-6.2711890784,2.9207871647,1.106408704\H,0,-6.4133688
 87,2.0626527171,0.4374147675\H,0,-6.5065703509,3.8211211388,0.53184410
 61\H,0,-5.2145754444,2.9751551928,1.3782932411\C,0,-8.6740686502,2.890
 5726691,1.8565992526\H,0,-8.9281397786,2.0200516488,1.2404022416\H,0,-
 9.4081920273,2.9564382468,2.6718210204\H,0,-8.8293551204,3.7846987752,
 1.2461957534\N,0,-4.4963014652,1.0947086715,3.117743733\H,0,-4.5850494
 751,0.9302426341,2.1170408429\C,0,-3.1148557037,1.0692598514,3.5849615
 52\H,0,-3.0303915344,1.7500877172,4.4361606915\C,0,-2.2544196487,1.517
 8521898,2.386161459\C,0,-2.7126935054,-0.3496534119,4.0292971715\H,0,-
 1.6791509908,-0.317642072,4.4050307336\H,0,-2.7300077155,-1.0176671487
 ,3.1535948777\O,0,-2.7333765384,1.4655382079,1.246707331\O,0,-3.629971
 1733,-0.756149372,5.0249291136\H,0,-3.3410878905,-1.6142019441,5.37233
 06105\N,0,-1.0001376729,1.9132465013,2.6596304189\H,0,-0.670422267,1.9
 016006587,3.617204985\C,0,-0.0300323132,2.303517076,1.6176547149\H,0,-
 0.6183941822,2.7694362901,0.8208310172\C,0,0.6737150918,1.043008445,1.
 0464613728\C,0,0.9797504534,3.292131336,2.1876953633\H,0,1.6648293977,
 3.6158021351,1.4007116154\H,0,1.5889500127,2.8221933289,2.9657022634\H
 ,0,0.4711272738,4.1716367849,2.5947050014\O,0,1.8464972633,0.793462810
 5,1.301505143\N,0,-0.1241163139,0.2515539502,0.2837948583\H,0,-1.06075
 91374,0.5699957287,0.0588666005\C,0,0.373017228,-0.9714325621,-0.35789
 21921\H,0,1.2098191837,-1.3091762942,0.2575675572\C,0,0.8828553313,-0.
 6072856771,-1.7729891448\C,0,-0.7355775853,-2.0277821609,-0.411323346\
 H,0,-1.1435483252,-2.1437995301,0.6037915103\H,0,-1.5385582493,-1.6402
 450536,-1.0505458227\O,0,0.1470926204,-0.6715192921,-2.7580657331\C,0,
 -0.3049641349,-3.4075481609,-0.9486715047\H,0,0.1026018731,-3.25416173
 06,-1.9559984149\C,0,0.7740318226,-4.073444274,-0.0808866911\H,0,0.421
 9738635,-4.2112958388,0.9505600713\H,0,1.0311343492,-5.0627675148,-0.4
 758309553\H,0,1.7005565381,-3.4899768339,-0.043192347\C,0,-1.533839610
 2,-4.3199161873,-1.0786509961\H,0,-1.9944392183,-4.5050528017,-0.09847
 89353\H,0,-1.258651058,-5.2923397813,-1.5020994652\H,0,-2.2946328246,-
 3.8743284312,-1.7301907332\N,0,2.1678794474,-0.1885180006,-1.819601539
 \H,0,2.7262490321,-0.0765649339,-0.9764387387\C,0,2.7935342187,0.26335
 39662,-3.0514726044\H,0,2.4990977353,-0.4200193507,-3.8545633327\C,0,4
 .3103258913,0.2055453205,-2.8120382903\C,0,2.3245003396,1.7006114343,-
 3.4330025876\H,0,2.7014107287,2.3949373223,-2.6728329888\H,0,1.2316319
 554,1.6889944746,-3.3606058873\O,0,4.7686023106,0.3297607804,-1.674873
 3508\C,0,2.7450793717,2.1435808213,-4.8160829214\C,0,3.7702971271,3.08
 09483797,-5.0099125027\H,0,4.2691074001,3.5128515137,-4.1451650283\C,0
 ,2.1220635157,1.6101410676,-5.9526709418\H,0,1.3135547237,0.8916447406
 ,-5.8330261026\C,0,4.1663244579,3.4746079734,-6.284566765\H,0,4.960208
 1325,4.2001906325,-6.4298663056\C,0,2.5105314718,1.9900097641,-7.23685
 41687\H,0,2.0116825724,1.5649666344,-8.1061707206\O,0,3.9616991727,3.3
 44660911,-8.6353026708\H,0,3.4677534614,2.8690331044,-9.3210915823\C,0
 ,3.5374568894,2.9248964272,-7.4065922797\N,0,5.0759214729,0.0339554876
 ,-3.9111613432\H,0,4.6623323849,-0.0176710708,-4.8358568624\C,0,6.5297
 602011,0.0829768949,-3.8715353538\H,0,6.8421618977,0.8418825392,-3.150
 1287139\C,0,7.0421781684,0.4531132668,-5.2542118056\C,0,7.1385087943,-
 1.2952588979,-3.4495464161\H,0,6.9805555606,-1.3803730924,-2.369915583
 6\H,0,6.5324153666,-2.0792057105,-3.9203312328\O,0,8.2247628547,1.0570
 119969,-5.1918875489\C,0,8.6287508306,-1.5136006153,-3.8007218213\H,0,
 9.0598532562,-2.1994583291,-3.0620843304\H,0,9.1700568081,-0.568863203
 7,-3.6912043147\C,0,8.8620206888,-2.1090159893,-5.219683557\H,0,8.9786
 358389,-3.195217494,-5.1244600566\H,0,7.9701962708,-1.9677103501,-5.84
 25108187\C,0,10.0778206976,-1.5664214507,-5.9984765767\H,0,10.49658453
 44,-2.3639531155,-6.6287130541\H,0,10.8695497554,-1.2595324713,-5.3057
 949163\N,0,9.7276515215,-0.3816449836,-6.8259659623\H,0,10.5638500125,
 -0.0030960875,-7.2692267667\H,0,9.1017885488,-0.665680331,-7.580214291
 6\H,0,8.8016659708,0.730312743,-5.9742182837\O,0,6.4713240152,0.117068
 461,-6.2795590715\\Version=ES64L-G16RevC.01\HF=-2312.0836603\RMSD=6.26
 9e-09\Dipole=-11.4770092,0.504606,7.0187113\Quadrupole=115.6880747,-89
 .9871908,-25.7008839,-48.4928824,-118.6660168,21.1157939\PG=C01 [X(C32
 H54N7O9)]\\@
 The archive entry for this job was punched.


 ALL PAPERS THAT YOU SAVE WILL NEVER BE NEEDED UNTIL
 SUCH TIME AS THEY ARE DISPOSED OF, WHEN THEY BECOME
 ESSENTIAL.

           -- JOHN CORCORAN IN
              PAUL DICKSON'S "THE OFFICIAL RULES"
 Job cpu time:       0 days  0 hours  2 minutes 35.8 seconds.
 Elapsed time:       0 days  0 hours  0 minutes 39.6 seconds.
 File lengths (MBytes):  RWF=    472 Int=      0 D2E=      0 Chk=     72 Scr=     16
 Normal termination of Gaussian 16 at Sat Jul  2 15:27:42 2022.
