 Entering Gaussian System, Link 0=/opt/software/Gaussian/g16-AVX-C.01/g16/g16
 Input=charge-conf-19.com
 Output=charge-conf-19.log
 Initial command:
 /opt/software/Gaussian/g16-AVX-C.01/g16/l1.exe "/mnt/gs18/scratch/users/kengmith/Gau-22369.inp" -scrdir="/mnt/gs18/scratch/users/kengmith/"
 Entering Link 1 = /opt/software/Gaussian/g16-AVX-C.01/g16/l1.exe PID=     22392.
  
 Copyright (c) 1988-2019, Gaussian, Inc.  All Rights Reserved.
  
 This is part of the Gaussian(R) 16 program.  It is based on
 the Gaussian(R) 09 system (copyright 2009, Gaussian, Inc.),
 the Gaussian(R) 03 system (copyright 2003, Gaussian, Inc.),
 the Gaussian(R) 98 system (copyright 1998, Gaussian, Inc.),
 the Gaussian(R) 94 system (copyright 1995, Gaussian, Inc.),
 the Gaussian 92(TM) system (copyright 1992, Gaussian, Inc.),
 the Gaussian 90(TM) system (copyright 1990, Gaussian, Inc.),
 the Gaussian 88(TM) system (copyright 1988, Gaussian, Inc.),
 the Gaussian 86(TM) system (copyright 1986, Carnegie Mellon
 University), and the Gaussian 82(TM) system (copyright 1983,
 Carnegie Mellon University). Gaussian is a federally registered
 trademark of Gaussian, Inc.
  
 This software contains proprietary and confidential information,
 including trade secrets, belonging to Gaussian, Inc.
  
 This software is provided under written license and may be
 used, copied, transmitted, or stored only in accord with that
 written license.
  
 The following legend is applicable only to US Government
 contracts under FAR:
  
                    RESTRICTED RIGHTS LEGEND
  
 Use, reproduction and disclosure by the US Government is
 subject to restrictions as set forth in subparagraphs (a)
 and (c) of the Commercial Computer Software - Restricted
 Rights clause in FAR 52.227-19.
  
 Gaussian, Inc.
 340 Quinnipiac St., Bldg. 40, Wallingford CT 06492
  
  
 ---------------------------------------------------------------
 Warning -- This program may not be used in any manner that
 competes with the business of Gaussian, Inc. or will provide
 assistance to any competitor of Gaussian, Inc.  The licensee
 of this program is prohibited from giving any competitor of
 Gaussian, Inc. access to this program.  By using this program,
 the user acknowledges that Gaussian, Inc. is engaged in the
 business of creating and licensing software in the field of
 computational chemistry and represents and warrants to the
 licensee that it is not a competitor of Gaussian, Inc. and that
 it will not use this program in any manner prohibited above.
 ---------------------------------------------------------------
  

 Cite this work as:
 Gaussian 16, Revision C.01,
 M. J. Frisch, G. W. Trucks, H. B. Schlegel, G. E. Scuseria, 
 M. A. Robb, J. R. Cheeseman, G. Scalmani, V. Barone, 
 G. A. Petersson, H. Nakatsuji, X. Li, M. Caricato, A. V. Marenich, 
 J. Bloino, B. G. Janesko, R. Gomperts, B. Mennucci, H. P. Hratchian, 
 J. V. Ortiz, A. F. Izmaylov, J. L. Sonnenberg, D. Williams-Young, 
 F. Ding, F. Lipparini, F. Egidi, J. Goings, B. Peng, A. Petrone, 
 T. Henderson, D. Ranasinghe, V. G. Zakrzewski, J. Gao, N. Rega, 
 G. Zheng, W. Liang, M. Hada, M. Ehara, K. Toyota, R. Fukuda, 
 J. Hasegawa, M. Ishida, T. Nakajima, Y. Honda, O. Kitao, H. Nakai, 
 T. Vreven, K. Throssell, J. A. Montgomery, Jr., J. E. Peralta, 
 F. Ogliaro, M. J. Bearpark, J. J. Heyd, E. N. Brothers, K. N. Kudin, 
 V. N. Staroverov, T. A. Keith, R. Kobayashi, J. Normand, 
 K. Raghavachari, A. P. Rendell, J. C. Burant, S. S. Iyengar, 
 J. Tomasi, M. Cossi, J. M. Millam, M. Klene, C. Adamo, R. Cammi, 
 J. W. Ochterski, R. L. Martin, K. Morokuma, O. Farkas, 
 J. B. Foresman, and D. J. Fox, Gaussian, Inc., Wallingford CT, 2019.
 
 ******************************************
 Gaussian 16:  ES64L-G16RevC.01  3-Jul-2019
                 6-Jun-2022 
 ******************************************
 %mem=8gb
 %nproc=4
 Will use up to    4 processors via shared memory.
 %chk=conf-19.chk
 ----------------------------------------------------------------------
 # B3LYP/6-31G* empiricaldispersion=gd3 guess=read geom=check nosymm in
 tegral(ultrafinegrid)
 ----------------------------------------------------------------------
 1/29=2,38=1,172=1/1;
 2/12=2,15=1,40=1/2;
 3/5=1,6=6,7=1,11=2,14=-4,25=1,30=1,74=-5,75=-5,116=-2,124=31/1,2,3;
 4/5=1/1;
 5/5=2,38=6/2;
 6/7=2,8=2,9=2,10=2,28=1/1;
 99/5=1,9=1/99;
 -----------------------------------------------------
 Candidate Structure: Conf:19 Charge calc in gas phase
 -----------------------------------------------------
 Structure from the checkpoint file:  "conf-19.chk"
 Charge =  1 Multiplicity = 1
 Redundant internal coordinates found in file.  (old form).
 N,0,-1.1312322701,2.7380033108,-1.9467457181
 H,0,-0.2396933,2.7919845279,-1.448461183
 H,0,-1.5073424162,3.6865059216,-1.9393519555
 C,0,-2.0191177806,1.8327295405,-1.1980280364
 H,0,-3.0560824995,2.0602980383,-1.4642208361
 C,0,-1.8070895682,1.9779425943,0.3100937285
 C,0,-1.7484663968,0.3762280585,-1.61890696
 H,0,-0.6727818178,0.1826682318,-1.6402708834
 H,0,-2.1929431638,-0.3104095087,-0.8887004213
 O,0,-0.6674210867,2.1867923461,0.7736566917
 C,0,-2.4549995944,0.1057027593,-2.9528937398
 N,0,-1.6757324346,-0.4159286893,-3.9356047606
 H,0,-2.1104002041,-0.5321075428,-4.8423821873
 H,0,-0.6668238174,-0.3065771711,-3.9025603623
 O,0,-3.6530935036,0.3285151491,-3.0672747019
 N,0,-2.8869287987,1.828278749,1.0952581497
 H,0,-3.7773775503,1.6088959046,0.6639606332
 C,0,-2.8337571618,1.8562647685,2.568791026
 H,0,-2.0591771733,2.5827644726,2.8366402261
 C,0,-2.3909222446,0.4429016557,3.0098356136
 C,0,-4.1793810547,2.2797936583,3.1826933647
 H,0,-4.9170997696,1.5097028301,2.9149480548
 O,0,-3.1686614974,-0.4345116418,3.3562554321
 C,0,-4.6393520551,3.6415552192,2.6205619447
 H,0,-4.6206796357,3.617107343,1.5233405785
 H,0,-3.9113121804,4.4105936356,2.9167025925
 C,0,-4.0538709476,2.3069437656,4.7146541235
 H,0,-3.3222241125,3.0613999368,5.031516885
 H,0,-5.0119814176,2.5588306057,5.1755807243
 H,0,-3.7497826249,1.3339191752,5.107892014
 C,0,-6.044982283,4.055934514,3.0705374226
 H,0,-6.3509787891,4.9806376363,2.5706053006
 H,0,-6.7819464061,3.2823306628,2.8231560461
 H,0,-6.0960985904,4.2346406949,4.1488399498
 N,0,-1.0406870578,0.2341895855,2.9040258423
 H,0,-0.4874621589,0.9420283048,2.4279059083
 C,0,-0.5277261202,-1.1187569963,2.9576589888
 H,0,-0.9838659228,-1.6117500881,3.8307917574
 C,0,0.9570088608,-1.0226128236,3.2236276754
 C,0,-0.8953118737,-1.9401927537,1.6985648256
 H,0,-0.6592782475,-3.0045110787,1.8002981913
 H,0,-1.9792000785,-1.8653093876,1.5884105981
 H,0,-0.3887154744,-1.5452764218,0.8166734854
 O,0,1.6093584098,-0.058895106,3.4736119019
 N,0,1.715343185,-2.371796533,3.1495393282
 H,0,1.2113917625,-3.0312882755,2.5306742229
 C,0,3.0909365927,-2.2509351225,2.5416251281
 H,0,3.5446805574,-1.3483945972,2.9561171763
 C,0,2.7917600611,-2.1592599408,1.0354934716
 C,0,3.8751848617,-3.5168240653,2.9538732315
 H,0,3.4314032031,-4.3719127096,2.4313629889
 O,0,1.8881178598,-2.8812337858,0.6062617107
 C,0,5.3521806087,-3.3978386199,2.6059686545
 H,0,5.4885677859,-3.2468833511,1.5301016339
 H,0,5.8769126915,-4.3126759013,2.8934796837
 H,0,5.8117834781,-2.5490707437,3.1290373761
 O,0,3.6311808706,-3.7489162937,4.3443198309
 H,0,4.3287932353,-3.320545088,4.8678386794
 N,0,3.4955138068,-1.2725705753,0.3260268535
 H,0,4.2524258992,-0.7395044249,0.7414636122
 C,0,3.0291865801,-0.772986531,-0.9589264516
 H,0,2.4134810208,-1.5490281663,-1.4190738223
 C,0,4.2457507284,-0.3922556535,-1.8078779378
 C,0,2.1863900145,0.4984611845,-0.7302955147
 H,0,1.8062154381,0.8460747471,-1.6986782941
 H,0,2.8407539742,1.2810687147,-0.3180247893
 O,0,5.2978315275,-0.0753105153,-1.2676893749
 O,0,1.1342960536,0.1761297513,0.1704087674
 H,0,0.6090235965,0.9884932457,0.3295582503
 N,0,4.0112093407,-0.385490324,-3.148815637
 H,0,3.0431224172,-0.5086391597,-3.4353530219
 C,0,4.8003771095,0.4655030282,-4.0431687089
 H,0,5.6739558489,0.8177745176,-3.4944103588
 H,0,5.1256792996,-0.0987133373,-4.9239287425
 C,0,3.871787263,1.6370797223,-4.3774907536
 O,0,3.6494244373,2.5284710953,-3.569523896
 N,0,3.1774228201,1.5146962692,-5.5503843306
 H,0,3.2876729324,0.6642839341,-6.0873033226
 C,0,1.9165810781,2.2220746489,-5.6851409878
 H,0,2.1004017903,3.2911146671,-5.5486324414
 C,0,0.9553147019,1.7922473582,-4.5665749734
 C,0,1.2775041483,1.9800417453,-7.0636403665
 H,0,1.0936399359,0.9021063886,-7.1895422655
 H,0,0.2954193014,2.465829965,-7.0657031473
 O,0,1.0692476212,0.737808998,-3.9380442279
 C,0,2.1245980352,2.5123028928,-8.2258479516
 H,0,2.3048216542,3.5854875945,-8.0731063016
 H,0,3.1140634788,2.0354772003,-8.2166287983
 C,0,1.4631563301,2.2906378842,-9.5911211043
 H,0,0.4788304671,2.7815929988,-9.6086258264
 H,0,1.2756244704,1.2166704881,-9.742560234
 C,0,2.3125233374,2.8218561404,-10.7598091602
 H,0,2.5045744345,3.8926686714,-10.6101826949
 H,0,3.2952083404,2.3311451432,-10.7453949111
 N,0,1.7471069741,2.6517788048,-12.0971388431
 H,0,0.8450103259,3.1220561681,-12.158057978
 H,0,1.5663785587,1.6652752434,-12.2785592583
 O,0,-0.0138293267,2.6656681299,-4.3967973868
 H,0,-0.5594396427,2.4808664893,-3.5581980897
 H,0,1.8493992833,-2.7914819029,4.0877100039
 Recover connectivity data from disk.
                           ----------------------------
                           !    Current Parameters    !
                           ! (Angstroms and Degrees)  !
 --------------------------                            --------------------------
 ! Name  Definition              Value                                          !
 --------------------------------------------------------------------------------
 ! R1    R(1,2)                  1.0228                                         !
 ! R2    R(1,3)                  1.0204                                         !
 ! R3    R(1,4)                  1.4726                                         !
 ! R4    R(4,5)                  1.0945                                         !
 ! R5    R(4,6)                  1.5299                                         !
 ! R6    R(4,7)                  1.5401                                         !
 ! R7    R(6,10)                 1.2479                                         !
 ! R8    R(6,16)                 1.3435                                         !
 ! R9    R(7,8)                  1.0932                                         !
 ! R10   R(7,9)                  1.0965                                         !
 ! R11   R(7,11)                 1.5336                                         !
 ! R12   R(11,12)                1.3583                                         !
 ! R13   R(11,15)                1.224                                          !
 ! R14   R(12,13)                1.0123                                         !
 ! R15   R(12,14)                1.0154                                         !
 ! R16   R(16,17)                1.0134                                         !
 ! R17   R(16,18)                1.4748                                         !
 ! R18   R(18,19)                1.0952                                         !
 ! R19   R(18,20)                1.5454                                         !
 ! R20   R(18,21)                1.5385                                         !
 ! R21   R(20,23)                1.2226                                         !
 ! R22   R(20,35)                1.3704                                         !
 ! R23   R(21,22)                1.0995                                         !
 ! R24   R(21,24)                1.5434                                         !
 ! R25   R(21,27)                1.5373                                         !
 ! R26   R(24,25)                1.0977                                         !
 ! R27   R(24,26)                1.0996                                         !
 ! R28   R(24,31)                1.533                                          !
 ! R29   R(27,28)                1.0977                                         !
 ! R30   R(27,29)                1.0926                                         !
 ! R31   R(27,30)                1.0926                                         !
 ! R32   R(31,32)                1.0948                                         !
 ! R33   R(31,33)                1.0967                                         !
 ! R34   R(31,34)                1.0942                                         !
 ! R35   R(35,36)                1.0168                                         !
 ! R36   R(35,37)                1.4479                                         !
 ! R37   R(37,38)                1.1016                                         !
 ! R38   R(37,39)                1.5114                                         !
 ! R39   R(37,40)                1.5476                                         !
 ! R40   R(39,44)                1.1903                                         !
 ! R41   R(39,45)                1.5495                                         !
 ! R42   R(40,41)                1.0949                                         !
 ! R43   R(40,42)                1.092                                          !
 ! R44   R(40,43)                1.091                                          !
 ! R45   R(45,46)                1.0353                                         !
 ! R46   R(45,47)                1.5088                                         !
 ! R47   R(47,48)                1.0919                                         !
 ! R48   R(47,49)                1.5383                                         !
 ! R49   R(47,50)                1.5451                                         !
 ! R50   R(49,52)                1.2337                                         !
 ! R51   R(49,59)                1.336                                          !
 ! R52   R(50,51)                1.096                                          !
 ! R53   R(50,53)                1.5221                                         !
 ! R54   R(50,57)                1.4306                                         !
 ! R55   R(53,54)                1.0949                                         !
 ! R56   R(53,55)                1.0931                                         !
 ! R57   R(53,56)                1.0978                                         !
 ! R58   R(57,58)                0.9717                                         !
 ! R59   R(57,100)               2.0389                                         !
 ! R60   R(59,60)                1.0147                                         !
 ! R61   R(59,61)                1.4554                                         !
 ! R62   R(61,62)                1.0923                                         !
 ! R63   R(61,63)                1.5316                                         !
 ! R64   R(61,64)                1.5425                                         !
 ! R65   R(63,67)                1.2244                                         !
 ! R66   R(63,70)                1.3613                                         !
 ! R67   R(64,65)                1.0969                                         !
 ! R68   R(64,66)                1.1003                                         !
 ! R69   R(64,68)                1.422                                          !
 ! R70   R(68,69)                0.9804                                         !
 ! R71   R(70,71)                1.0171                                         !
 ! R72   R(70,72)                1.4652                                         !
 ! R73   R(72,73)                1.0901                                         !
 ! R74   R(72,74)                1.0954                                         !
 ! R75   R(72,75)                1.5319                                         !
 ! R76   R(75,76)                1.2235                                         !
 ! R77   R(75,77)                1.3685                                         !
 ! R78   R(77,78)                1.0118                                         !
 ! R79   R(77,79)                1.452                                          !
 ! R80   R(79,80)                1.0933                                         !
 ! R81   R(79,81)                1.5362                                         !
 ! R82   R(79,82)                1.5386                                         !
 ! R83   R(81,85)                1.2328                                         !
 ! R84   R(81,98)                1.3156                                         !
 ! R85   R(82,83)                1.1007                                         !
 ! R86   R(82,84)                1.0957                                         !
 ! R87   R(82,86)                1.5335                                         !
 ! R88   R(86,87)                1.0989                                         !
 ! R89   R(86,88)                1.0984                                         !
 ! R90   R(86,89)                1.5332                                         !
 ! R91   R(89,90)                1.1001                                         !
 ! R92   R(89,91)                1.1007                                         !
 ! R93   R(89,92)                1.5393                                         !
 ! R94   R(92,93)                1.0981                                         !
 ! R95   R(92,94)                1.0985                                         !
 ! R96   R(92,95)                1.4619                                         !
 ! R97   R(95,96)                1.0191                                         !
 ! R98   R(95,97)                1.0192                                         !
 ! R99   R(98,99)                1.0174                                         !
 ! A1    A(2,1,3)              105.5878                                         !
 ! A2    A(2,1,4)              108.0789                                         !
 ! A3    A(3,1,4)              110.2139                                         !
 ! A4    A(1,4,5)              108.6494                                         !
 ! A5    A(1,4,6)              111.0574                                         !
 ! A6    A(1,4,7)              109.6632                                         !
 ! A7    A(5,4,6)              110.5683                                         !
 ! A8    A(5,4,7)              107.2579                                         !
 ! A9    A(6,4,7)              109.5614                                         !
 ! A10   A(4,6,10)             120.5732                                         !
 ! A11   A(4,6,16)             117.0104                                         !
 ! A12   A(10,6,16)            122.3833                                         !
 ! A13   A(4,7,8)              110.2262                                         !
 ! A14   A(4,7,9)              109.8167                                         !
 ! A15   A(4,7,11)             108.8797                                         !
 ! A16   A(8,7,9)              107.519                                          !
 ! A17   A(8,7,11)             113.8976                                         !
 ! A18   A(9,7,11)             106.3834                                         !
 ! A19   A(7,11,12)            115.6418                                         !
 ! A20   A(7,11,15)            120.0088                                         !
 ! A21   A(12,11,15)           124.3227                                         !
 ! A22   A(11,12,13)           116.4749                                         !
 ! A23   A(11,12,14)           120.3411                                         !
 ! A24   A(13,12,14)           117.9168                                         !
 ! A25   A(6,16,17)            118.7912                                         !
 ! A26   A(6,16,18)            123.5626                                         !
 ! A27   A(17,16,18)           117.4526                                         !
 ! A28   A(16,18,19)           106.4062                                         !
 ! A29   A(16,18,20)           106.1488                                         !
 ! A30   A(16,18,21)           111.8629                                         !
 ! A31   A(19,18,20)           109.5244                                         !
 ! A32   A(19,18,21)           109.7781                                         !
 ! A33   A(20,18,21)           112.8624                                         !
 ! A34   A(18,20,23)           123.7061                                         !
 ! A35   A(18,20,35)           113.5532                                         !
 ! A36   A(23,20,35)           122.6407                                         !
 ! A37   A(18,21,22)           107.2689                                         !
 ! A38   A(18,21,24)           110.9916                                         !
 ! A39   A(18,21,27)           109.3349                                         !
 ! A40   A(22,21,24)           109.2275                                         !
 ! A41   A(22,21,27)           108.0475                                         !
 ! A42   A(24,21,27)           111.8206                                         !
 ! A43   A(21,24,25)           109.8379                                         !
 ! A44   A(21,24,26)           108.7636                                         !
 ! A45   A(21,24,31)           113.883                                          !
 ! A46   A(25,24,26)           105.8739                                         !
 ! A47   A(25,24,31)           108.363                                          !
 ! A48   A(26,24,31)           109.8153                                         !
 ! A49   A(21,27,28)           110.7451                                         !
 ! A50   A(21,27,29)           110.6619                                         !
 ! A51   A(21,27,30)           111.4464                                         !
 ! A52   A(28,27,29)           107.713                                          !
 ! A53   A(28,27,30)           108.825                                          !
 ! A54   A(29,27,30)           107.308                                          !
 ! A55   A(24,31,32)           110.521                                          !
 ! A56   A(24,31,33)           111.0556                                         !
 ! A57   A(24,31,34)           112.1015                                         !
 ! A58   A(32,31,33)           107.7559                                         !
 ! A59   A(32,31,34)           107.3973                                         !
 ! A60   A(33,31,34)           107.8244                                         !
 ! A61   A(20,35,36)           117.7908                                         !
 ! A62   A(20,35,37)           119.2437                                         !
 ! A63   A(36,35,37)           118.3655                                         !
 ! A64   A(35,37,38)           107.5082                                         !
 ! A65   A(35,37,39)           107.1633                                         !
 ! A66   A(35,37,40)           112.4373                                         !
 ! A67   A(38,37,39)           107.2029                                         !
 ! A68   A(38,37,40)           107.9964                                         !
 ! A69   A(39,37,40)           114.2202                                         !
 ! A70   A(37,39,44)           128.8171                                         !
 ! A71   A(37,39,45)           114.6433                                         !
 ! A72   A(44,39,45)           116.5389                                         !
 ! A73   A(37,40,41)           112.9011                                         !
 ! A74   A(37,40,42)           106.3443                                         !
 ! A75   A(37,40,43)           110.806                                          !
 ! A76   A(41,40,42)           106.8574                                         !
 ! A77   A(41,40,43)           109.0784                                         !
 ! A78   A(42,40,43)           110.7634                                         !
 ! A79   A(39,45,46)           110.1823                                         !
 ! A80   A(39,45,47)           113.3113                                         !
 ! A81   A(46,45,47)           104.7127                                         !
 ! A82   A(45,47,48)           106.9856                                         !
 ! A83   A(45,47,49)           102.8236                                         !
 ! A84   A(45,47,50)           106.8355                                         !
 ! A85   A(48,47,49)           113.78                                           !
 ! A86   A(48,47,50)           111.4069                                         !
 ! A87   A(49,47,50)           114.1271                                         !
 ! A88   A(47,49,52)           116.6296                                         !
 ! A89   A(47,49,59)           117.1968                                         !
 ! A90   A(52,49,59)           126.1198                                         !
 ! A91   A(47,50,51)           107.8475                                         !
 ! A92   A(47,50,53)           111.5613                                         !
 ! A93   A(47,50,57)           107.7972                                         !
 ! A94   A(51,50,53)           110.1787                                         !
 ! A95   A(51,50,57)           105.5291                                         !
 ! A96   A(53,50,57)           113.5992                                         !
 ! A97   A(50,53,54)           110.8696                                         !
 ! A98   A(50,53,55)           109.8933                                         !
 ! A99   A(50,53,56)           110.9639                                         !
 ! A100  A(54,53,55)           108.3019                                         !
 ! A101  A(54,53,56)           108.0244                                         !
 ! A102  A(55,53,56)           108.7085                                         !
 ! A103  A(50,57,58)           109.2479                                         !
 ! A104  A(50,57,100)           87.1654                                         !
 ! A105  A(58,57,100)          119.2203                                         !
 ! A106  A(49,59,60)           121.6132                                         !
 ! A107  A(49,59,61)           121.8637                                         !
 ! A108  A(60,59,61)           114.8437                                         !
 ! A109  A(59,61,62)           107.9792                                         !
 ! A110  A(59,61,63)           108.6755                                         !
 ! A111  A(59,61,64)           109.0966                                         !
 ! A112  A(62,61,63)           113.0079                                         !
 ! A113  A(62,61,64)           109.8826                                         !
 ! A114  A(63,61,64)           108.1357                                         !
 ! A115  A(61,63,67)           120.1547                                         !
 ! A116  A(61,63,70)           114.2291                                         !
 ! A117  A(67,63,70)           125.5452                                         !
 ! A118  A(61,64,65)           108.6479                                         !
 ! A119  A(61,64,66)           108.4749                                         !
 ! A120  A(61,64,68)           108.1379                                         !
 ! A121  A(65,64,66)           108.1507                                         !
 ! A122  A(65,64,68)           112.0001                                         !
 ! A123  A(66,64,68)           111.3406                                         !
 ! A124  A(64,68,69)           108.1438                                         !
 ! A125  A(63,70,71)           116.1611                                         !
 ! A126  A(63,70,72)           120.7536                                         !
 ! A127  A(71,70,72)           114.2688                                         !
 ! A128  A(70,72,73)           108.1817                                         !
 ! A129  A(70,72,74)           110.584                                          !
 ! A130  A(70,72,75)           104.5319                                         !
 ! A131  A(73,72,74)           109.4643                                         !
 ! A132  A(73,72,75)           110.3946                                         !
 ! A133  A(74,72,75)           113.4825                                         !
 ! A134  A(72,75,76)           121.5517                                         !
 ! A135  A(72,75,77)           115.2281                                         !
 ! A136  A(76,75,77)           122.6117                                         !
 ! A137  A(75,77,78)           118.3403                                         !
 ! A138  A(75,77,79)           118.4616                                         !
 ! A139  A(78,77,79)           117.0562                                         !
 ! A140  A(77,79,80)           108.5895                                         !
 ! A141  A(77,79,81)           109.8448                                         !
 ! A142  A(77,79,82)           111.543                                          !
 ! A143  A(80,79,81)           106.7313                                         !
 ! A144  A(80,79,82)           109.6046                                         !
 ! A145  A(81,79,82)           110.3922                                         !
 ! A146  A(79,81,85)           123.5525                                         !
 ! A147  A(79,81,98)           111.663                                          !
 ! A148  A(85,81,98)           124.7568                                         !
 ! A149  A(79,82,83)           109.0209                                         !
 ! A150  A(79,82,84)           107.7129                                         !
 ! A151  A(79,82,86)           113.2647                                         !
 ! A152  A(83,82,84)           106.5142                                         !
 ! A153  A(83,82,86)           110.2116                                         !
 ! A154  A(84,82,86)           109.8656                                         !
 ! A155  A(82,86,87)           108.9188                                         !
 ! A156  A(82,86,88)           109.9118                                         !
 ! A157  A(82,86,89)           112.7301                                         !
 ! A158  A(87,86,88)           105.965                                          !
 ! A159  A(87,86,89)           109.617                                          !
 ! A160  A(88,86,89)           109.4719                                         !
 ! A161  A(86,89,90)           109.6128                                         !
 ! A162  A(86,89,91)           109.6999                                         !
 ! A163  A(86,89,92)           112.8389                                         !
 ! A164  A(90,89,91)           106.3086                                         !
 ! A165  A(90,89,92)           109.1244                                         !
 ! A166  A(91,89,92)           109.0431                                         !
 ! A167  A(89,92,93)           109.2425                                         !
 ! A168  A(89,92,94)           109.238                                          !
 ! A169  A(89,92,95)           116.1666                                         !
 ! A170  A(93,92,94)           106.1027                                         !
 ! A171  A(93,92,95)           107.8024                                         !
 ! A172  A(94,92,95)           107.8204                                         !
 ! A173  A(92,95,96)           110.0813                                         !
 ! A174  A(92,95,97)           110.1228                                         !
 ! A175  A(96,95,97)           106.2031                                         !
 ! A176  A(81,98,99)           112.3845                                         !
 ! D1    D(2,1,4,5)            157.8345                                         !
 ! D2    D(2,1,4,6)             36.0135                                         !
 ! D3    D(2,1,4,7)            -85.2227                                         !
 ! D4    D(3,1,4,5)             42.9103                                         !
 ! D5    D(3,1,4,6)            -78.9107                                         !
 ! D6    D(3,1,4,7)            159.853                                          !
 ! D7    D(1,4,6,10)           -36.3169                                         !
 ! D8    D(1,4,6,16)           145.7299                                         !
 ! D9    D(5,4,6,10)          -157.0115                                         !
 ! D10   D(5,4,6,16)            25.0353                                         !
 ! D11   D(7,4,6,10)            84.9791                                         !
 ! D12   D(7,4,6,16)           -92.9741                                         !
 ! D13   D(1,4,7,8)             46.2774                                         !
 ! D14   D(1,4,7,9)            164.5566                                         !
 ! D15   D(1,4,7,11)           -79.3333                                         !
 ! D16   D(5,4,7,8)            164.0908                                         !
 ! D17   D(5,4,7,9)            -77.63                                           !
 ! D18   D(5,4,7,11)            38.4801                                         !
 ! D19   D(6,4,7,8)            -75.8559                                         !
 ! D20   D(6,4,7,9)             42.4233                                         !
 ! D21   D(6,4,7,11)           158.5334                                         !
 ! D22   D(4,6,16,17)            1.3156                                         !
 ! D23   D(4,6,16,18)          176.1236                                         !
 ! D24   D(10,6,16,17)        -176.5976                                         !
 ! D25   D(10,6,16,18)          -1.7896                                         !
 ! D26   D(4,7,11,12)          127.7044                                         !
 ! D27   D(4,7,11,15)          -54.0976                                         !
 ! D28   D(8,7,11,12)            4.2568                                         !
 ! D29   D(8,7,11,15)         -177.5452                                         !
 ! D30   D(9,7,11,12)         -114.0018                                         !
 ! D31   D(9,7,11,15)           64.1962                                         !
 ! D32   D(7,11,12,13)        -175.3819                                         !
 ! D33   D(7,11,12,14)         -21.5433                                         !
 ! D34   D(15,11,12,13)          6.5076                                         !
 ! D35   D(15,11,12,14)        160.3462                                         !
 ! D36   D(6,16,18,19)          34.9034                                         !
 ! D37   D(6,16,18,20)         -81.7096                                         !
 ! D38   D(6,16,18,21)         154.7855                                         !
 ! D39   D(17,16,18,19)       -150.224                                          !
 ! D40   D(17,16,18,20)         93.163                                          !
 ! D41   D(17,16,18,21)        -30.3419                                         !
 ! D42   D(16,18,20,23)        -96.6267                                         !
 ! D43   D(16,18,20,35)         79.8178                                         !
 ! D44   D(19,18,20,23)        148.8752                                         !
 ! D45   D(19,18,20,35)        -34.6803                                         !
 ! D46   D(21,18,20,23)         26.2496                                         !
 ! D47   D(21,18,20,35)       -157.3058                                         !
 ! D48   D(16,18,21,22)         63.7961                                         !
 ! D49   D(16,18,21,24)        -55.4564                                         !
 ! D50   D(16,18,21,27)       -179.274                                          !
 ! D51   D(19,18,21,22)       -178.3191                                         !
 ! D52   D(19,18,21,24)         62.4284                                         !
 ! D53   D(19,18,21,27)        -61.3893                                         !
 ! D54   D(20,18,21,22)        -55.8355                                         !
 ! D55   D(20,18,21,24)       -175.088                                          !
 ! D56   D(20,18,21,27)         61.0944                                         !
 ! D57   D(18,20,35,36)         -9.1029                                         !
 ! D58   D(18,20,35,37)       -164.6857                                         !
 ! D59   D(23,20,35,36)        167.3847                                         !
 ! D60   D(23,20,35,37)         11.8018                                         !
 ! D61   D(18,21,24,25)         51.937                                          !
 ! D62   D(18,21,24,26)        -63.5088                                         !
 ! D63   D(18,21,24,31)        173.6737                                         !
 ! D64   D(22,21,24,25)        -66.134                                          !
 ! D65   D(22,21,24,26)        178.4201                                         !
 ! D66   D(22,21,24,31)         55.6027                                         !
 ! D67   D(27,21,24,25)        174.3231                                         !
 ! D68   D(27,21,24,26)         58.8772                                         !
 ! D69   D(27,21,24,31)        -63.9402                                         !
 ! D70   D(18,21,27,28)         63.3458                                         !
 ! D71   D(18,21,27,29)       -177.2778                                         !
 ! D72   D(18,21,27,30)        -57.9536                                         !
 ! D73   D(22,21,27,28)        179.7825                                         !
 ! D74   D(22,21,27,29)        -60.8411                                         !
 ! D75   D(22,21,27,30)         58.4831                                         !
 ! D76   D(24,21,27,28)        -59.9821                                         !
 ! D77   D(24,21,27,29)         59.3942                                         !
 ! D78   D(24,21,27,30)        178.7184                                         !
 ! D79   D(21,24,31,32)       -174.8689                                         !
 ! D80   D(21,24,31,33)        -55.3296                                         !
 ! D81   D(21,24,31,34)         65.3575                                         !
 ! D82   D(25,24,31,32)        -52.3193                                         !
 ! D83   D(25,24,31,33)         67.22                                           !
 ! D84   D(25,24,31,34)       -172.0929                                         !
 ! D85   D(26,24,31,32)         62.8908                                         !
 ! D86   D(26,24,31,33)       -177.5699                                         !
 ! D87   D(26,24,31,34)        -56.8829                                         !
 ! D88   D(20,35,37,38)        -48.8098                                         !
 ! D89   D(20,35,37,39)       -163.7711                                         !
 ! D90   D(20,35,37,40)         69.9253                                         !
 ! D91   D(36,35,37,38)        155.7469                                         !
 ! D92   D(36,35,37,39)         40.7857                                         !
 ! D93   D(36,35,37,40)        -85.518                                          !
 ! D94   D(35,37,39,44)          6.563                                          !
 ! D95   D(35,37,39,45)       -173.1224                                         !
 ! D96   D(38,37,39,44)       -108.6023                                         !
 ! D97   D(38,37,39,45)         71.7123                                         !
 ! D98   D(40,37,39,44)        131.7993                                         !
 ! D99   D(40,37,39,45)        -47.8861                                         !
 ! D100  D(35,37,40,41)       -170.4273                                         !
 ! D101  D(35,37,40,42)        -53.5586                                         !
 ! D102  D(35,37,40,43)         66.882                                          !
 ! D103  D(38,37,40,41)        -51.979                                          !
 ! D104  D(38,37,40,42)         64.8897                                         !
 ! D105  D(38,37,40,43)       -174.6697                                         !
 ! D106  D(39,37,40,41)         67.1721                                         !
 ! D107  D(39,37,40,42)       -175.9592                                         !
 ! D108  D(39,37,40,43)        -55.5186                                         !
 ! D109  D(37,39,45,46)         25.8536                                         !
 ! D110  D(37,39,45,47)        142.7917                                         !
 ! D111  D(44,39,45,46)       -153.8725                                         !
 ! D112  D(44,39,45,47)        -36.9344                                         !
 ! D113  D(39,45,47,48)         42.2532                                         !
 ! D114  D(39,45,47,49)        -77.8747                                         !
 ! D115  D(39,45,47,50)        161.6698                                         !
 ! D116  D(46,45,47,48)        162.3564                                         !
 ! D117  D(46,45,47,49)         42.2284                                         !
 ! D118  D(46,45,47,50)        -78.2271                                         !
 ! D119  D(45,47,49,52)        -39.3544                                         !
 ! D120  D(45,47,49,59)        138.1448                                         !
 ! D121  D(48,47,49,52)       -154.6761                                         !
 ! D122  D(48,47,49,59)         22.8231                                         !
 ! D123  D(50,47,49,52)         75.9494                                         !
 ! D124  D(50,47,49,59)       -106.5514                                         !
 ! D125  D(45,47,50,51)         68.8754                                         !
 ! D126  D(45,47,50,53)       -170.0011                                         !
 ! D127  D(45,47,50,57)        -44.6251                                         !
 ! D128  D(48,47,50,51)       -174.608                                          !
 ! D129  D(48,47,50,53)        -53.4845                                         !
 ! D130  D(48,47,50,57)         71.8915                                         !
 ! D131  D(49,47,50,51)        -44.055                                          !
 ! D132  D(49,47,50,53)         77.0685                                         !
 ! D133  D(49,47,50,57)       -157.5556                                         !
 ! D134  D(47,49,59,60)          5.319                                          !
 ! D135  D(47,49,59,61)       -159.1484                                         !
 ! D136  D(52,49,59,60)       -177.4487                                         !
 ! D137  D(52,49,59,61)         18.0839                                         !
 ! D138  D(47,50,53,54)        -59.3662                                         !
 ! D139  D(47,50,53,55)       -179.0598                                         !
 ! D140  D(47,50,53,56)         60.6798                                         !
 ! D141  D(51,50,53,54)         60.3902                                         !
 ! D142  D(51,50,53,55)        -59.3034                                         !
 ! D143  D(51,50,53,56)       -179.5638                                         !
 ! D144  D(57,50,53,54)        178.5426                                         !
 ! D145  D(57,50,53,55)         58.8491                                         !
 ! D146  D(57,50,53,56)        -61.4113                                         !
 ! D147  D(47,50,57,58)        -92.946                                          !
 ! D148  D(47,50,57,100)        27.0816                                         !
 ! D149  D(51,50,57,58)        152.0119                                         !
 ! D150  D(51,50,57,100)       -87.9606                                         !
 ! D151  D(53,50,57,58)         31.2089                                         !
 ! D152  D(53,50,57,100)       151.2365                                         !
 ! D153  D(49,59,61,62)        -28.8289                                         !
 ! D154  D(49,59,61,63)       -151.7478                                         !
 ! D155  D(49,59,61,64)         90.5597                                         !
 ! D156  D(60,59,61,62)        165.7259                                         !
 ! D157  D(60,59,61,63)         42.807                                          !
 ! D158  D(60,59,61,64)        -74.8856                                         !
 ! D159  D(59,61,63,67)        -25.9042                                         !
 ! D160  D(59,61,63,70)        156.9934                                         !
 ! D161  D(62,61,63,67)       -145.74                                           !
 ! D162  D(62,61,63,70)         37.1576                                         !
 ! D163  D(64,61,63,67)         92.3971                                         !
 ! D164  D(64,61,63,70)        -84.7053                                         !
 ! D165  D(59,61,64,65)       -177.801                                          !
 ! D166  D(59,61,64,66)         64.851                                          !
 ! D167  D(59,61,64,68)        -56.026                                          !
 ! D168  D(62,61,64,65)        -59.6003                                         !
 ! D169  D(62,61,64,66)       -176.9483                                         !
 ! D170  D(62,61,64,68)         62.1747                                         !
 ! D171  D(63,61,64,65)         64.1667                                         !
 ! D172  D(63,61,64,66)        -53.1814                                         !
 ! D173  D(63,61,64,68)       -174.0583                                         !
 ! D174  D(61,63,70,71)          7.7921                                         !
 ! D175  D(61,63,70,72)        153.3956                                         !
 ! D176  D(67,63,70,71)       -169.1285                                         !
 ! D177  D(67,63,70,72)        -23.5249                                         !
 ! D178  D(61,64,68,69)        178.9041                                         !
 ! D179  D(65,64,68,69)        -61.4098                                         !
 ! D180  D(66,64,68,69)         59.8265                                         !
 ! D181  D(63,70,72,73)         14.0985                                         !
 ! D182  D(63,70,72,74)        133.9659                                         !
 ! D183  D(63,70,72,75)       -103.5504                                         !
 ! D184  D(71,70,72,73)        160.3053                                         !
 ! D185  D(71,70,72,74)        -79.8273                                         !
 ! D186  D(71,70,72,75)         42.6564                                         !
 ! D187  D(70,72,75,76)         75.3142                                         !
 ! D188  D(70,72,75,77)        -95.9633                                         !
 ! D189  D(73,72,75,76)        -40.8072                                         !
 ! D190  D(73,72,75,77)        147.9153                                         !
 ! D191  D(74,72,75,76)       -164.1145                                         !
 ! D192  D(74,72,75,77)         24.608                                          !
 ! D193  D(72,75,77,78)          2.5451                                         !
 ! D194  D(72,75,77,79)        154.2157                                         !
 ! D195  D(76,75,77,78)       -168.6299                                         !
 ! D196  D(76,75,77,79)        -16.9592                                         !
 ! D197  D(75,77,79,80)         58.797                                          !
 ! D198  D(75,77,79,81)        -57.581                                          !
 ! D199  D(75,77,79,82)        179.6848                                         !
 ! D200  D(78,77,79,80)       -149.1717                                         !
 ! D201  D(78,77,79,81)         94.4503                                         !
 ! D202  D(78,77,79,82)        -28.2838                                         !
 ! D203  D(77,79,81,85)        -20.9893                                         !
 ! D204  D(77,79,81,98)        160.8465                                         !
 ! D205  D(80,79,81,85)       -138.5304                                         !
 ! D206  D(80,79,81,98)         43.3053                                         !
 ! D207  D(82,79,81,85)        102.4221                                         !
 ! D208  D(82,79,81,98)        -75.7421                                         !
 ! D209  D(77,79,82,83)         59.8928                                         !
 ! D210  D(77,79,82,84)        175.0902                                         !
 ! D211  D(77,79,82,86)        -63.2001                                         !
 ! D212  D(80,79,82,83)       -179.8138                                         !
 ! D213  D(80,79,82,84)        -64.6164                                         !
 ! D214  D(80,79,82,86)         57.0932                                         !
 ! D215  D(81,79,82,83)        -62.5275                                         !
 ! D216  D(81,79,82,84)         52.6699                                         !
 ! D217  D(81,79,82,86)        174.3795                                         !
 ! D218  D(79,81,98,99)       -169.8839                                         !
 ! D219  D(85,81,98,99)         11.9783                                         !
 ! D220  D(79,82,86,87)        -56.9193                                         !
 ! D221  D(79,82,86,88)         58.7639                                         !
 ! D222  D(79,82,86,89)       -178.8148                                         !
 ! D223  D(83,82,86,87)       -179.3528                                         !
 ! D224  D(83,82,86,88)        -63.6696                                         !
 ! D225  D(83,82,86,89)         58.7517                                         !
 ! D226  D(84,82,86,87)         63.5763                                         !
 ! D227  D(84,82,86,88)        179.2595                                         !
 ! D228  D(84,82,86,89)        -58.3192                                         !
 ! D229  D(82,86,89,90)         58.2649                                         !
 ! D230  D(82,86,89,91)        -58.1088                                         !
 ! D231  D(82,86,89,92)       -179.9011                                         !
 ! D232  D(87,86,89,90)        -63.2354                                         !
 ! D233  D(87,86,89,91)       -179.6091                                         !
 ! D234  D(87,86,89,92)         58.5986                                         !
 ! D235  D(88,86,89,90)       -179.0671                                         !
 ! D236  D(88,86,89,91)         64.5592                                         !
 ! D237  D(88,86,89,92)        -57.2331                                         !
 ! D238  D(86,89,92,93)        -57.6425                                         !
 ! D239  D(86,89,92,94)         58.0134                                         !
 ! D240  D(86,89,92,95)       -179.8045                                         !
 ! D241  D(90,89,92,93)         64.4666                                         !
 ! D242  D(90,89,92,94)       -179.8775                                         !
 ! D243  D(90,89,92,95)        -57.6954                                         !
 ! D244  D(91,89,92,93)       -179.8047                                         !
 ! D245  D(91,89,92,94)        -64.1488                                         !
 ! D246  D(91,89,92,95)         58.0333                                         !
 ! D247  D(89,92,95,96)         58.917                                          !
 ! D248  D(89,92,95,97)        -57.8503                                         !
 ! D249  D(93,92,95,96)        -64.0012                                         !
 ! D250  D(93,92,95,97)        179.2316                                         !
 ! D251  D(94,92,95,96)       -178.1566                                         !
 ! D252  D(94,92,95,97)         65.0762                                         !
 --------------------------------------------------------------------------------
 Symmetry turned off by external request.
 Stoichiometry    C28H52N9O11(1+)
 Framework group  C1[X(C28H52N9O11)]
 Deg. of freedom   294
 Full point group                 C1      NOp   1
                          Input orientation:                          
 ---------------------------------------------------------------------
 Center     Atomic      Atomic             Coordinates (Angstroms)
 Number     Number       Type             X           Y           Z
 ---------------------------------------------------------------------
      1          7           0       -1.131232    2.738003   -1.946746
      2          1           0       -0.239693    2.791985   -1.448461
      3          1           0       -1.507342    3.686506   -1.939352
      4          6           0       -2.019118    1.832730   -1.198028
      5          1           0       -3.056082    2.060298   -1.464221
      6          6           0       -1.807090    1.977943    0.310094
      7          6           0       -1.748466    0.376228   -1.618907
      8          1           0       -0.672782    0.182668   -1.640271
      9          1           0       -2.192943   -0.310410   -0.888700
     10          8           0       -0.667421    2.186792    0.773657
     11          6           0       -2.455000    0.105703   -2.952894
     12          7           0       -1.675732   -0.415929   -3.935605
     13          1           0       -2.110400   -0.532108   -4.842382
     14          1           0       -0.666824   -0.306577   -3.902560
     15          8           0       -3.653094    0.328515   -3.067275
     16          7           0       -2.886929    1.828279    1.095258
     17          1           0       -3.777378    1.608896    0.663961
     18          6           0       -2.833757    1.856265    2.568791
     19          1           0       -2.059177    2.582764    2.836640
     20          6           0       -2.390922    0.442902    3.009836
     21          6           0       -4.179381    2.279794    3.182693
     22          1           0       -4.917100    1.509703    2.914948
     23          8           0       -3.168661   -0.434512    3.356255
     24          6           0       -4.639352    3.641555    2.620562
     25          1           0       -4.620680    3.617107    1.523341
     26          1           0       -3.911312    4.410594    2.916703
     27          6           0       -4.053871    2.306944    4.714654
     28          1           0       -3.322224    3.061400    5.031517
     29          1           0       -5.011981    2.558831    5.175581
     30          1           0       -3.749783    1.333919    5.107892
     31          6           0       -6.044982    4.055935    3.070537
     32          1           0       -6.350979    4.980638    2.570605
     33          1           0       -6.781946    3.282331    2.823156
     34          1           0       -6.096099    4.234641    4.148840
     35          7           0       -1.040687    0.234190    2.904026
     36          1           0       -0.487462    0.942028    2.427906
     37          6           0       -0.527726   -1.118757    2.957659
     38          1           0       -0.983866   -1.611750    3.830792
     39          6           0        0.957009   -1.022613    3.223628
     40          6           0       -0.895312   -1.940193    1.698565
     41          1           0       -0.659278   -3.004511    1.800298
     42          1           0       -1.979200   -1.865309    1.588411
     43          1           0       -0.388715   -1.545276    0.816673
     44          8           0        1.609358   -0.058895    3.473612
     45          7           0        1.715343   -2.371797    3.149539
     46          1           0        1.211392   -3.031288    2.530674
     47          6           0        3.090937   -2.250935    2.541625
     48          1           0        3.544681   -1.348395    2.956117
     49          6           0        2.791760   -2.159260    1.035493
     50          6           0        3.875185   -3.516824    2.953873
     51          1           0        3.431403   -4.371913    2.431363
     52          8           0        1.888118   -2.881234    0.606262
     53          6           0        5.352181   -3.397839    2.605969
     54          1           0        5.488568   -3.246883    1.530102
     55          1           0        5.876913   -4.312676    2.893480
     56          1           0        5.811783   -2.549071    3.129037
     57          8           0        3.631181   -3.748916    4.344320
     58          1           0        4.328793   -3.320545    4.867839
     59          7           0        3.495514   -1.272571    0.326027
     60          1           0        4.252426   -0.739504    0.741464
     61          6           0        3.029187   -0.772987   -0.958926
     62          1           0        2.413481   -1.549028   -1.419074
     63          6           0        4.245751   -0.392256   -1.807878
     64          6           0        2.186390    0.498461   -0.730296
     65          1           0        1.806215    0.846075   -1.698678
     66          1           0        2.840754    1.281069   -0.318025
     67          8           0        5.297832   -0.075311   -1.267689
     68          8           0        1.134296    0.176130    0.170409
     69          1           0        0.609024    0.988493    0.329558
     70          7           0        4.011209   -0.385490   -3.148816
     71          1           0        3.043122   -0.508639   -3.435353
     72          6           0        4.800377    0.465503   -4.043169
     73          1           0        5.673956    0.817775   -3.494410
     74          1           0        5.125679   -0.098713   -4.923929
     75          6           0        3.871787    1.637080   -4.377491
     76          8           0        3.649424    2.528471   -3.569524
     77          7           0        3.177423    1.514696   -5.550384
     78          1           0        3.287673    0.664284   -6.087303
     79          6           0        1.916581    2.222075   -5.685141
     80          1           0        2.100402    3.291115   -5.548632
     81          6           0        0.955315    1.792247   -4.566575
     82          6           0        1.277504    1.980042   -7.063640
     83          1           0        1.093640    0.902106   -7.189542
     84          1           0        0.295419    2.465830   -7.065703
     85          8           0        1.069248    0.737809   -3.938044
     86          6           0        2.124598    2.512303   -8.225848
     87          1           0        2.304822    3.585488   -8.073106
     88          1           0        3.114063    2.035477   -8.216629
     89          6           0        1.463156    2.290638   -9.591121
     90          1           0        0.478830    2.781593   -9.608626
     91          1           0        1.275624    1.216670   -9.742560
     92          6           0        2.312523    2.821856  -10.759809
     93          1           0        2.504574    3.892669  -10.610183
     94          1           0        3.295208    2.331145  -10.745395
     95          7           0        1.747107    2.651779  -12.097139
     96          1           0        0.845010    3.122056  -12.158058
     97          1           0        1.566379    1.665275  -12.278559
     98          8           0       -0.013829    2.665668   -4.396797
     99          1           0       -0.559440    2.480866   -3.558198
    100          1           0        1.849399   -2.791482    4.087710
 ---------------------------------------------------------------------
 Rotational constants (GHZ):           0.0685215           0.0361102           0.0258171
 Standard basis: 6-31G(d) (6D, 7F)
   824 basis functions,  1552 primitive gaussians,   824 cartesian basis functions
   185 alpha electrons      185 beta electrons
       nuclear repulsion energy      6886.2317801051 Hartrees.
 NAtoms=  100 NActive=  100 NUniq=  100 SFac= 1.00D+00 NAtFMM=   60 NAOKFM=T Big=T
 Integral buffers will be    131072 words long.
 Raffenetti 2 integral format.
 Two-electron integral symmetry is turned off.
 Nuclear repulsion after empirical dispersion term =     6886.0875611088 Hartrees.
 One-electron integrals computed using PRISM.
 NBasis=   824 RedAO= T EigKep=  1.71D-03  NBF=   824
 NBsUse=   824 1.00D-06 EigRej= -1.00D+00 NBFU=   824
 Initial guess from the checkpoint file:  "conf-19.chk"
 B after Tr=     0.000000    0.000000    0.000000
         Rot=    1.000000    0.000000    0.000000    0.000000 Ang=   0.00 deg.
 Requested convergence on RMS density matrix=1.00D-08 within 128 cycles.
 Requested convergence on MAX density matrix=1.00D-06.
 Requested convergence on             energy=1.00D-06.
 No special actions if energy rises.
 SCF Done:  E(RB3LYP) =  -2418.55886239     A.U. after    1 cycles
            NFock=  1  Conv=0.65D-08     -V/T= 2.0092

 **********************************************************************

            Population analysis using the SCF Density.

 **********************************************************************

 Alpha  occ. eigenvalues --  -19.32489 -19.29701 -19.26755 -19.25049 -19.24606
 Alpha  occ. eigenvalues --  -19.24555 -19.23517 -19.22310 -19.21594 -19.20176
 Alpha  occ. eigenvalues --  -19.18926 -14.58803 -14.48919 -14.48685 -14.46822
 Alpha  occ. eigenvalues --  -14.45839 -14.45002 -14.44959 -14.42916 -14.36067
 Alpha  occ. eigenvalues --  -10.47845 -10.42505 -10.41138 -10.40938 -10.39269
 Alpha  occ. eigenvalues --  -10.39034 -10.38797 -10.38723 -10.37796 -10.37413
 Alpha  occ. eigenvalues --  -10.36825 -10.34115 -10.33914 -10.33643 -10.33471
 Alpha  occ. eigenvalues --  -10.32092 -10.31597 -10.30856 -10.29697 -10.29036
 Alpha  occ. eigenvalues --  -10.28236 -10.27662 -10.26398 -10.25970 -10.25773
 Alpha  occ. eigenvalues --  -10.25158 -10.24501 -10.24416  -1.24240  -1.18739
 Alpha  occ. eigenvalues --   -1.18075  -1.16747  -1.16143  -1.14325  -1.13714
 Alpha  occ. eigenvalues --   -1.12303  -1.12101  -1.11656  -1.10844  -1.09895
 Alpha  occ. eigenvalues --   -1.05308  -1.04711  -1.04073  -1.02272  -1.01416
 Alpha  occ. eigenvalues --   -1.01279  -0.97926  -0.93228  -0.92976  -0.90999
 Alpha  occ. eigenvalues --   -0.89566  -0.88566  -0.87771  -0.86617  -0.84348
 Alpha  occ. eigenvalues --   -0.83328  -0.82839  -0.80648  -0.79761  -0.79104
 Alpha  occ. eigenvalues --   -0.77607  -0.76093  -0.75579  -0.74658  -0.74077
 Alpha  occ. eigenvalues --   -0.73872  -0.71746  -0.71506  -0.70438  -0.70068
 Alpha  occ. eigenvalues --   -0.69536  -0.68638  -0.68182  -0.67284  -0.66711
 Alpha  occ. eigenvalues --   -0.66229  -0.65765  -0.65238  -0.65129  -0.64198
 Alpha  occ. eigenvalues --   -0.63522  -0.63306  -0.62011  -0.61649  -0.61516
 Alpha  occ. eigenvalues --   -0.61018  -0.60336  -0.59795  -0.59539  -0.58873
 Alpha  occ. eigenvalues --   -0.58557  -0.58295  -0.58024  -0.57767  -0.57505
 Alpha  occ. eigenvalues --   -0.57107  -0.56475  -0.56178  -0.55999  -0.55624
 Alpha  occ. eigenvalues --   -0.55302  -0.54954  -0.54841  -0.54164  -0.53916
 Alpha  occ. eigenvalues --   -0.53455  -0.53099  -0.53005  -0.52509  -0.51963
 Alpha  occ. eigenvalues --   -0.51881  -0.51326  -0.51080  -0.50941  -0.50702
 Alpha  occ. eigenvalues --   -0.50392  -0.50316  -0.50140  -0.49708  -0.49528
 Alpha  occ. eigenvalues --   -0.49280  -0.49052  -0.48994  -0.48616  -0.47934
 Alpha  occ. eigenvalues --   -0.47762  -0.47295  -0.47074  -0.47049  -0.46757
 Alpha  occ. eigenvalues --   -0.46384  -0.46190  -0.45899  -0.45210  -0.44919
 Alpha  occ. eigenvalues --   -0.44800  -0.44390  -0.44098  -0.43835  -0.43729
 Alpha  occ. eigenvalues --   -0.42747  -0.42406  -0.41698  -0.41600  -0.40791
 Alpha  occ. eigenvalues --   -0.40623  -0.40530  -0.40335  -0.39834  -0.39587
 Alpha  occ. eigenvalues --   -0.39157  -0.38964  -0.38123  -0.37652  -0.37489
 Alpha  occ. eigenvalues --   -0.37197  -0.36755  -0.36325  -0.35412  -0.34857
 Alpha  occ. eigenvalues --   -0.34730  -0.34368  -0.32851  -0.32794  -0.28082
 Alpha virt. eigenvalues --   -0.18209  -0.12411  -0.10984  -0.09391  -0.08370
 Alpha virt. eigenvalues --   -0.08194  -0.07226  -0.05583  -0.05373  -0.04902
 Alpha virt. eigenvalues --   -0.03502  -0.03181  -0.02361  -0.01937  -0.01649
 Alpha virt. eigenvalues --   -0.01103  -0.00541   0.00035   0.00452   0.01111
 Alpha virt. eigenvalues --    0.01320   0.01835   0.02031   0.02293   0.02361
 Alpha virt. eigenvalues --    0.02922   0.03103   0.03552   0.03947   0.04355
 Alpha virt. eigenvalues --    0.04510   0.04580   0.05098   0.05436   0.05791
 Alpha virt. eigenvalues --    0.05825   0.06295   0.06400   0.06687   0.06782
 Alpha virt. eigenvalues --    0.07068   0.07364   0.07497   0.07663   0.07917
 Alpha virt. eigenvalues --    0.07945   0.08432   0.08704   0.08995   0.09258
 Alpha virt. eigenvalues --    0.09372   0.09722   0.10046   0.10104   0.10234
 Alpha virt. eigenvalues --    0.10600   0.10627   0.10913   0.11206   0.11465
 Alpha virt. eigenvalues --    0.11585   0.11756   0.11988   0.12062   0.12290
 Alpha virt. eigenvalues --    0.12706   0.13119   0.13242   0.13488   0.13582
 Alpha virt. eigenvalues --    0.13894   0.14133   0.14224   0.14766   0.15102
 Alpha virt. eigenvalues --    0.15200   0.15557   0.15726   0.16259   0.16399
 Alpha virt. eigenvalues --    0.16673   0.17031   0.17608   0.17740   0.18197
 Alpha virt. eigenvalues --    0.18563   0.18801   0.19769   0.19811   0.21353
 Alpha virt. eigenvalues --    0.21612   0.22343   0.23591   0.24102   0.25087
 Alpha virt. eigenvalues --    0.25599   0.26492   0.26878   0.27710   0.28709
 Alpha virt. eigenvalues --    0.29172   0.30012   0.31120   0.31827   0.32063
 Alpha virt. eigenvalues --    0.33430   0.34125   0.34669   0.37034   0.37716
 Alpha virt. eigenvalues --    0.38566   0.39549   0.40357   0.40525   0.41114
 Alpha virt. eigenvalues --    0.41992   0.42386   0.43266   0.43529   0.43723
 Alpha virt. eigenvalues --    0.44183   0.44228   0.44395   0.44640   0.45174
 Alpha virt. eigenvalues --    0.45645   0.46045   0.46074   0.46644   0.47094
 Alpha virt. eigenvalues --    0.47423   0.47715   0.48493   0.48970   0.49166
 Alpha virt. eigenvalues --    0.49462   0.49571   0.50187   0.50295   0.50376
 Alpha virt. eigenvalues --    0.50602   0.50964   0.51210   0.51309   0.51761
 Alpha virt. eigenvalues --    0.52546   0.52607   0.53127   0.53687   0.53869
 Alpha virt. eigenvalues --    0.54246   0.54524   0.55203   0.55293   0.56271
 Alpha virt. eigenvalues --    0.56373   0.56618   0.57194   0.57485   0.57859
 Alpha virt. eigenvalues --    0.58078   0.58395   0.58714   0.58888   0.59648
 Alpha virt. eigenvalues --    0.59927   0.60138   0.60494   0.60756   0.61107
 Alpha virt. eigenvalues --    0.61506   0.61688   0.62198   0.63121   0.63555
 Alpha virt. eigenvalues --    0.64172   0.64503   0.64978   0.65299   0.65464
 Alpha virt. eigenvalues --    0.65789   0.65990   0.66230   0.66612   0.67140
 Alpha virt. eigenvalues --    0.68117   0.68566   0.68855   0.69098   0.69657
 Alpha virt. eigenvalues --    0.69915   0.70420   0.71273   0.71443   0.71838
 Alpha virt. eigenvalues --    0.72161   0.72640   0.73319   0.73778   0.73864
 Alpha virt. eigenvalues --    0.74256   0.74536   0.74605   0.75147   0.75252
 Alpha virt. eigenvalues --    0.75536   0.75663   0.75853   0.76080   0.76435
 Alpha virt. eigenvalues --    0.76673   0.77093   0.77199   0.77445   0.77466
 Alpha virt. eigenvalues --    0.78019   0.78226   0.78596   0.78687   0.79402
 Alpha virt. eigenvalues --    0.79597   0.79803   0.80206   0.80295   0.80643
 Alpha virt. eigenvalues --    0.80691   0.80961   0.81325   0.81440   0.81879
 Alpha virt. eigenvalues --    0.82407   0.82810   0.83073   0.83205   0.83489
 Alpha virt. eigenvalues --    0.83702   0.83772   0.83870   0.84356   0.84695
 Alpha virt. eigenvalues --    0.84973   0.85255   0.85594   0.85790   0.86132
 Alpha virt. eigenvalues --    0.86569   0.86786   0.87482   0.87497   0.87863
 Alpha virt. eigenvalues --    0.87897   0.88214   0.88569   0.88631   0.89131
 Alpha virt. eigenvalues --    0.89374   0.90001   0.90179   0.90479   0.90576
 Alpha virt. eigenvalues --    0.90989   0.91223   0.92400   0.92726   0.93530
 Alpha virt. eigenvalues --    0.93813   0.94297   0.94440   0.94607   0.94975
 Alpha virt. eigenvalues --    0.95586   0.95774   0.96657   0.97339   0.97947
 Alpha virt. eigenvalues --    0.98079   0.98569   0.98900   1.00132   1.00868
 Alpha virt. eigenvalues --    1.01575   1.02089   1.02399   1.03241   1.03840
 Alpha virt. eigenvalues --    1.05036   1.05837   1.05932   1.06128   1.06975
 Alpha virt. eigenvalues --    1.07305   1.07730   1.08009   1.09004   1.09197
 Alpha virt. eigenvalues --    1.10621   1.11182   1.11466   1.12604   1.13116
 Alpha virt. eigenvalues --    1.13831   1.14463   1.15100   1.16541   1.17530
 Alpha virt. eigenvalues --    1.17769   1.17926   1.18836   1.19338   1.19623
 Alpha virt. eigenvalues --    1.20397   1.20857   1.22014   1.22220   1.22778
 Alpha virt. eigenvalues --    1.23193   1.23806   1.24144   1.25198   1.25648
 Alpha virt. eigenvalues --    1.26488   1.26749   1.27412   1.28445   1.28807
 Alpha virt. eigenvalues --    1.30124   1.31175   1.31702   1.32189   1.32746
 Alpha virt. eigenvalues --    1.32929   1.33571   1.34046   1.34987   1.35625
 Alpha virt. eigenvalues --    1.36206   1.37015   1.37189   1.38914   1.39114
 Alpha virt. eigenvalues --    1.39406   1.40349   1.40874   1.41856   1.42279
 Alpha virt. eigenvalues --    1.43207   1.44611   1.45286   1.45945   1.46967
 Alpha virt. eigenvalues --    1.47441   1.47944   1.48763   1.49991   1.50965
 Alpha virt. eigenvalues --    1.51288   1.51849   1.52638   1.53380   1.53603
 Alpha virt. eigenvalues --    1.53971   1.55481   1.56179   1.56399   1.57024
 Alpha virt. eigenvalues --    1.57464   1.58904   1.59868   1.60281   1.60419
 Alpha virt. eigenvalues --    1.61169   1.61427   1.61846   1.62557   1.62619
 Alpha virt. eigenvalues --    1.63227   1.63897   1.64110   1.64432   1.64818
 Alpha virt. eigenvalues --    1.65444   1.66008   1.66209   1.67253   1.67593
 Alpha virt. eigenvalues --    1.68008   1.68201   1.68559   1.68911   1.70075
 Alpha virt. eigenvalues --    1.70199   1.71050   1.71167   1.71931   1.72014
 Alpha virt. eigenvalues --    1.72224   1.73022   1.73093   1.73415   1.73670
 Alpha virt. eigenvalues --    1.74061   1.74810   1.75178   1.75667   1.76032
 Alpha virt. eigenvalues --    1.76481   1.76785   1.77476   1.77598   1.78210
 Alpha virt. eigenvalues --    1.78585   1.79302   1.80201   1.80425   1.81053
 Alpha virt. eigenvalues --    1.81381   1.81827   1.82079   1.82590   1.83047
 Alpha virt. eigenvalues --    1.83432   1.83480   1.83867   1.84562   1.84670
 Alpha virt. eigenvalues --    1.84899   1.85785   1.86269   1.86495   1.87023
 Alpha virt. eigenvalues --    1.87350   1.87715   1.88191   1.88716   1.89348
 Alpha virt. eigenvalues --    1.89855   1.90506   1.90693   1.91172   1.91538
 Alpha virt. eigenvalues --    1.91883   1.92224   1.92839   1.93377   1.93600
 Alpha virt. eigenvalues --    1.94090   1.94803   1.95181   1.96174   1.96208
 Alpha virt. eigenvalues --    1.97313   1.98008   1.98274   1.98596   1.99069
 Alpha virt. eigenvalues --    1.99256   2.00021   2.00158   2.00764   2.01037
 Alpha virt. eigenvalues --    2.01264   2.01799   2.02141   2.02744   2.03070
 Alpha virt. eigenvalues --    2.03622   2.04074   2.05670   2.06037   2.06566
 Alpha virt. eigenvalues --    2.06980   2.07316   2.07698   2.08684   2.09863
 Alpha virt. eigenvalues --    2.10292   2.10883   2.11290   2.11305   2.12773
 Alpha virt. eigenvalues --    2.13002   2.13076   2.14302   2.16253   2.17694
 Alpha virt. eigenvalues --    2.17888   2.18105   2.19473   2.20382   2.21214
 Alpha virt. eigenvalues --    2.21481   2.22282   2.22477   2.23432   2.23672
 Alpha virt. eigenvalues --    2.23897   2.24429   2.26054   2.26480   2.27549
 Alpha virt. eigenvalues --    2.27595   2.28345   2.28591   2.28968   2.29295
 Alpha virt. eigenvalues --    2.29609   2.31565   2.32019   2.32209   2.32887
 Alpha virt. eigenvalues --    2.33136   2.33530   2.34498   2.34822   2.35208
 Alpha virt. eigenvalues --    2.35580   2.36165   2.37327   2.38138   2.38177
 Alpha virt. eigenvalues --    2.39080   2.40310   2.41962   2.42396   2.42526
 Alpha virt. eigenvalues --    2.43237   2.43423   2.43556   2.45063   2.45812
 Alpha virt. eigenvalues --    2.45822   2.46567   2.46848   2.49338   2.49845
 Alpha virt. eigenvalues --    2.50506   2.51159   2.52397   2.52858   2.53712
 Alpha virt. eigenvalues --    2.54794   2.55616   2.56290   2.56483   2.57369
 Alpha virt. eigenvalues --    2.58258   2.58839   2.59406   2.60252   2.60818
 Alpha virt. eigenvalues --    2.61250   2.61919   2.63247   2.63944   2.64201
 Alpha virt. eigenvalues --    2.65329   2.66691   2.68974   2.69670   2.70912
 Alpha virt. eigenvalues --    2.71753   2.72775   2.73450   2.74446   2.75206
 Alpha virt. eigenvalues --    2.76240   2.77026   2.77978   2.78928   2.80164
 Alpha virt. eigenvalues --    2.82452   2.83462   2.85686   2.85934   2.86382
 Alpha virt. eigenvalues --    2.87410   2.89171   2.89421   2.90696   2.91306
 Alpha virt. eigenvalues --    2.92809   2.94253   2.95054   2.96180   2.98568
 Alpha virt. eigenvalues --    3.02305   3.03690   3.05289   3.06121   3.07600
 Alpha virt. eigenvalues --    3.07635   3.68619   3.73638   3.75151   3.77772
 Alpha virt. eigenvalues --    3.81457   3.86884   3.88927   3.90392   3.92686
 Alpha virt. eigenvalues --    3.95276   3.95700   3.98393   4.00948   4.04563
 Alpha virt. eigenvalues --    4.06540   4.07871   4.08171   4.09046   4.10349
 Alpha virt. eigenvalues --    4.13304   4.15320   4.16650   4.18953   4.19243
 Alpha virt. eigenvalues --    4.20172   4.21978   4.23522   4.23992   4.24309
 Alpha virt. eigenvalues --    4.26769   4.27487   4.29565   4.31119   4.33607
 Alpha virt. eigenvalues --    4.33930   4.35690   4.38690   4.39359   4.45191
 Alpha virt. eigenvalues --    4.45500   4.47005   4.48119   4.49515   4.52391
 Alpha virt. eigenvalues --    4.55625   4.57397   4.59305   4.62620
          Condensed to atoms (all electrons):
 Mulliken charges:
               1
     1  N   -0.771850
     2  H    0.344593
     3  H    0.346290
     4  C   -0.078778
     5  H    0.197137
     6  C    0.625859
     7  C   -0.370666
     8  H    0.179760
     9  H    0.178296
    10  O   -0.583348
    11  C    0.587075
    12  N   -0.764000
    13  H    0.344432
    14  H    0.375535
    15  O   -0.505243
    16  N   -0.594426
    17  H    0.362832
    18  C   -0.055979
    19  H    0.185614
    20  C    0.628598
    21  C   -0.102119
    22  H    0.153351
    23  O   -0.509452
    24  C   -0.258916
    25  H    0.124310
    26  H    0.141539
    27  C   -0.474334
    28  H    0.146524
    29  H    0.172762
    30  H    0.173687
    31  C   -0.451517
    32  H    0.160230
    33  H    0.152410
    34  H    0.161427
    35  N   -0.619372
    36  H    0.375598
    37  C   -0.048012
    38  H    0.224750
    39  C    0.598722
    40  C   -0.504640
    41  H    0.160969
    42  H    0.211227
    43  H    0.227017
    44  O   -0.359192
    45  N   -0.713160
    46  H    0.417800
    47  C   -0.118542
    48  H    0.210148
    49  C    0.670058
    50  C    0.120291
    51  H    0.191017
    52  O   -0.535491
    53  C   -0.498524
    54  H    0.194596
    55  H    0.206615
    56  H    0.163691
    57  O   -0.628047
    58  H    0.421643
    59  N   -0.584054
    60  H    0.359540
    61  C   -0.114682
    62  H    0.201660
    63  C    0.627225
    64  C   -0.050606
    65  H    0.182134
    66  H    0.158158
    67  O   -0.514147
    68  O   -0.685893
    69  H    0.448386
    70  N   -0.591977
    71  H    0.356592
    72  C   -0.236722
    73  H    0.227113
    74  H    0.168744
    75  C    0.590026
    76  O   -0.503847
    77  N   -0.581400
    78  H    0.332786
    79  C   -0.019707
    80  H    0.203647
    81  C    0.610657
    82  C   -0.307480
    83  H    0.136429
    84  H    0.177657
    85  O   -0.544314
    86  C   -0.259652
    87  H    0.150623
    88  H    0.139811
    89  C   -0.265646
    90  H    0.132163
    91  H    0.124509
    92  C   -0.140895
    93  H    0.147605
    94  H    0.142838
    95  N   -0.698792
    96  H    0.296562
    97  H    0.294615
    98  O   -0.586289
    99  H    0.466327
   100  H    0.419503
 Sum of Mulliken charges =   1.00000
 Mulliken charges with hydrogens summed into heavy atoms:
               1
     1  N   -0.080967
     4  C    0.118359
     6  C    0.625859
     7  C   -0.012610
    10  O   -0.583348
    11  C    0.587075
    12  N   -0.044033
    15  O   -0.505243
    16  N   -0.231594
    18  C    0.129635
    20  C    0.628598
    21  C    0.051232
    23  O   -0.509452
    24  C    0.006932
    27  C    0.018639
    31  C    0.022549
    35  N   -0.243774
    37  C    0.176738
    39  C    0.598722
    40  C    0.094573
    44  O   -0.359192
    45  N    0.124143
    47  C    0.091606
    49  C    0.670058
    50  C    0.311308
    52  O   -0.535491
    53  C    0.066379
    57  O   -0.206405
    59  N   -0.224514
    61  C    0.086978
    63  C    0.627225
    64  C    0.289686
    67  O   -0.514147
    68  O   -0.237507
    70  N   -0.235385
    72  C    0.159134
    75  C    0.590026
    76  O   -0.503847
    77  N   -0.248614
    79  C    0.183940
    81  C    0.610657
    82  C    0.006606
    85  O   -0.544314
    86  C    0.030782
    89  C   -0.008974
    92  C    0.149548
    95  N   -0.107615
    98  O   -0.119962
 Electronic spatial extent (au):  <R**2>=          43259.8982
 Charge=              1.0000 electrons
 Dipole moment (field-independent basis, Debye):
    X=              6.0242    Y=             -3.4376    Z=              3.9245  Tot=              7.9693
 Quadrupole moment (field-independent basis, Debye-Ang):
   XX=           -247.4233   YY=           -254.9183   ZZ=           -196.7980
   XY=            -52.0250   XZ=             15.7308   YZ=            -16.9180
 Traceless Quadrupole moment (field-independent basis, Debye-Ang):
   XX=            -14.3768   YY=            -21.8718   ZZ=             36.2486
   XY=            -52.0250   XZ=             15.7308   YZ=            -16.9180
 Octapole moment (field-independent basis, Debye-Ang**2):
  XXX=           -349.6627  YYY=           -460.0682  ZZZ=            924.1969  XYY=           -178.8836
  XXY=           -232.6499  XXZ=            493.0512  XZZ=            -82.0890  YZZ=           -305.4348
  YYZ=            401.0871  XYZ=            -65.9246
 Hexadecapole moment (field-independent basis, Debye-Ang**3):
 XXXX=         -14929.6048 YYYY=          -7373.2823 ZZZZ=         -34074.5969 XXXY=           1075.0799
 XXXZ=           4025.0154 YYYX=           1641.2227 YYYZ=           3507.8748 ZZZX=           5910.2580
 ZZZY=           4890.7633 XXYY=          -3445.7203 XXZZ=          -7665.2031 YYZZ=          -6763.4361
 XXYZ=           1204.1801 YYXZ=           1609.0330 ZZXY=           -414.3075
 N-N= 6.886087561109D+03 E-N=-1.937817033490D+04  KE= 2.396394748970D+03
 Unable to Open any file for archive entry.
 1\1\GINC-QML-000\SP\RB3LYP\6-31G(d)\C28H52N9O11(1+)\KENGMITH\06-Jun-20
 22\0\\# B3LYP/6-31G* empiricaldispersion=gd3 guess=read geom=check nos
 ymm integral(ultrafinegrid)\\Candidate Structure: Conf:19 Charge calc 
 in gas phase\\1,1\N,0,-1.1312322701,2.7380033108,-1.9467457181\H,0,-0.
 2396933,2.7919845279,-1.448461183\H,0,-1.5073424162,3.6865059216,-1.93
 93519555\C,0,-2.0191177806,1.8327295405,-1.1980280364\H,0,-3.056082499
 5,2.0602980383,-1.4642208361\C,0,-1.8070895682,1.9779425943,0.31009372
 85\C,0,-1.7484663968,0.3762280585,-1.61890696\H,0,-0.6727818178,0.1826
 682318,-1.6402708834\H,0,-2.1929431638,-0.3104095087,-0.8887004213\O,0
 ,-0.6674210867,2.1867923461,0.7736566917\C,0,-2.4549995944,0.105702759
 3,-2.9528937398\N,0,-1.6757324346,-0.4159286893,-3.9356047606\H,0,-2.1
 104002041,-0.5321075428,-4.8423821873\H,0,-0.6668238174,-0.3065771711,
 -3.9025603623\O,0,-3.6530935036,0.3285151491,-3.0672747019\N,0,-2.8869
 287987,1.828278749,1.0952581497\H,0,-3.7773775503,1.6088959046,0.66396
 06332\C,0,-2.8337571618,1.8562647685,2.568791026\H,0,-2.0591771733,2.5
 827644726,2.8366402261\C,0,-2.3909222446,0.4429016557,3.0098356136\C,0
 ,-4.1793810547,2.2797936583,3.1826933647\H,0,-4.9170997696,1.509702830
 1,2.9149480548\O,0,-3.1686614974,-0.4345116418,3.3562554321\C,0,-4.639
 3520551,3.6415552192,2.6205619447\H,0,-4.6206796357,3.617107343,1.5233
 405785\H,0,-3.9113121804,4.4105936356,2.9167025925\C,0,-4.0538709476,2
 .3069437656,4.7146541235\H,0,-3.3222241125,3.0613999368,5.031516885\H,
 0,-5.0119814176,2.5588306057,5.1755807243\H,0,-3.7497826249,1.33391917
 52,5.107892014\C,0,-6.044982283,4.055934514,3.0705374226\H,0,-6.350978
 7891,4.9806376363,2.5706053006\H,0,-6.7819464061,3.2823306628,2.823156
 0461\H,0,-6.0960985904,4.2346406949,4.1488399498\N,0,-1.0406870578,0.2
 341895855,2.9040258423\H,0,-0.4874621589,0.9420283048,2.4279059083\C,0
 ,-0.5277261202,-1.1187569963,2.9576589888\H,0,-0.9838659228,-1.6117500
 881,3.8307917574\C,0,0.9570088608,-1.0226128236,3.2236276754\C,0,-0.89
 53118737,-1.9401927537,1.6985648256\H,0,-0.6592782475,-3.0045110787,1.
 8002981913\H,0,-1.9792000785,-1.8653093876,1.5884105981\H,0,-0.3887154
 744,-1.5452764218,0.8166734854\O,0,1.6093584098,-0.058895106,3.4736119
 019\N,0,1.715343185,-2.371796533,3.1495393282\H,0,1.2113917625,-3.0312
 882755,2.5306742229\C,0,3.0909365927,-2.2509351225,2.5416251281\H,0,3.
 5446805574,-1.3483945972,2.9561171763\C,0,2.7917600611,-2.1592599408,1
 .0354934716\C,0,3.8751848617,-3.5168240653,2.9538732315\H,0,3.43140320
 31,-4.3719127096,2.4313629889\O,0,1.8881178598,-2.8812337858,0.6062617
 107\C,0,5.3521806087,-3.3978386199,2.6059686545\H,0,5.4885677859,-3.24
 68833511,1.5301016339\H,0,5.8769126915,-4.3126759013,2.8934796837\H,0,
 5.8117834781,-2.5490707437,3.1290373761\O,0,3.6311808706,-3.7489162937
 ,4.3443198309\H,0,4.3287932353,-3.320545088,4.8678386794\N,0,3.4955138
 068,-1.2725705753,0.3260268535\H,0,4.2524258992,-0.7395044249,0.741463
 6122\C,0,3.0291865801,-0.772986531,-0.9589264516\H,0,2.4134810208,-1.5
 490281663,-1.4190738223\C,0,4.2457507284,-0.3922556535,-1.8078779378\C
 ,0,2.1863900145,0.4984611845,-0.7302955147\H,0,1.8062154381,0.84607474
 71,-1.6986782941\H,0,2.8407539742,1.2810687147,-0.3180247893\O,0,5.297
 8315275,-0.0753105153,-1.2676893749\O,0,1.1342960536,0.1761297513,0.17
 04087674\H,0,0.6090235965,0.9884932457,0.3295582503\N,0,4.0112093407,-
 0.385490324,-3.148815637\H,0,3.0431224172,-0.5086391597,-3.4353530219\
 C,0,4.8003771095,0.4655030282,-4.0431687089\H,0,5.6739558489,0.8177745
 176,-3.4944103588\H,0,5.1256792996,-0.0987133373,-4.9239287425\C,0,3.8
 71787263,1.6370797223,-4.3774907536\O,0,3.6494244373,2.5284710953,-3.5
 69523896\N,0,3.1774228201,1.5146962692,-5.5503843306\H,0,3.2876729324,
 0.6642839341,-6.0873033226\C,0,1.9165810781,2.2220746489,-5.6851409878
 \H,0,2.1004017903,3.2911146671,-5.5486324414\C,0,0.9553147019,1.792247
 3582,-4.5665749734\C,0,1.2775041483,1.9800417453,-7.0636403665\H,0,1.0
 936399359,0.9021063886,-7.1895422655\H,0,0.2954193014,2.465829965,-7.0
 657031473\O,0,1.0692476212,0.737808998,-3.9380442279\C,0,2.1245980352,
 2.5123028928,-8.2258479516\H,0,2.3048216542,3.5854875945,-8.0731063016
 \H,0,3.1140634788,2.0354772003,-8.2166287983\C,0,1.4631563301,2.290637
 8842,-9.5911211043\H,0,0.4788304671,2.7815929988,-9.6086258264\H,0,1.2
 756244704,1.2166704881,-9.742560234\C,0,2.3125233374,2.8218561404,-10.
 7598091602\H,0,2.5045744345,3.8926686714,-10.6101826949\H,0,3.29520834
 04,2.3311451432,-10.7453949111\N,0,1.7471069741,2.6517788048,-12.09713
 88431\H,0,0.8450103259,3.1220561681,-12.158057978\H,0,1.5663785587,1.6
 652752434,-12.2785592583\O,0,-0.0138293267,2.6656681299,-4.3967973868\
 H,0,-0.5594396427,2.4808664893,-3.5581980897\H,0,1.8493992833,-2.79148
 19029,4.0877100039\\Version=ES64L-G16RevC.01\HF=-2418.5588624\RMSD=6.5
 49e-09\Dipole=1.2729621,-2.3424628,3.5594618\Quadrupole=-10.6887741,-1
 6.2611425,26.9499166,-38.6793312,11.6954908,-12.5781184\PG=C01 [X(C28H
 52N9O11)]\\@
 The archive entry for this job was punched.


 CHRISTMAS IS ON TOP OF A STEEP HILL.
 THE CLOSER YOU GET, THE STEEPER THE HILL IS.
          -- LINUS, OF PEANUTS
 Job cpu time:       0 days  0 hours  4 minutes 14.9 seconds.
 Elapsed time:       0 days  0 hours  1 minutes  5.0 seconds.
 File lengths (MBytes):  RWF=    464 Int=      0 D2E=      0 Chk=     72 Scr=     16
 Normal termination of Gaussian 16 at Mon Jun  6 07:11:21 2022.
