 Entering Gaussian System, Link 0=/opt/software/Gaussian/g16-AVX2-C.01/g16/g16
 Input=charge-conf-472.com
 Output=charge-conf-472.log
 Initial command:
 /opt/software/Gaussian/g16-AVX2-C.01/g16/l1.exe "/mnt/gs18/scratch/users/kengmith/Gau-83002.inp" -scrdir="/mnt/gs18/scratch/users/kengmith/"
 Entering Link 1 = /opt/software/Gaussian/g16-AVX2-C.01/g16/l1.exe PID=     83012.
  
 Copyright (c) 1988-2019, Gaussian, Inc.  All Rights Reserved.
  
 This is part of the Gaussian(R) 16 program.  It is based on
 the Gaussian(R) 09 system (copyright 2009, Gaussian, Inc.),
 the Gaussian(R) 03 system (copyright 2003, Gaussian, Inc.),
 the Gaussian(R) 98 system (copyright 1998, Gaussian, Inc.),
 the Gaussian(R) 94 system (copyright 1995, Gaussian, Inc.),
 the Gaussian 92(TM) system (copyright 1992, Gaussian, Inc.),
 the Gaussian 90(TM) system (copyright 1990, Gaussian, Inc.),
 the Gaussian 88(TM) system (copyright 1988, Gaussian, Inc.),
 the Gaussian 86(TM) system (copyright 1986, Carnegie Mellon
 University), and the Gaussian 82(TM) system (copyright 1983,
 Carnegie Mellon University). Gaussian is a federally registered
 trademark of Gaussian, Inc.
  
 This software contains proprietary and confidential information,
 including trade secrets, belonging to Gaussian, Inc.
  
 This software is provided under written license and may be
 used, copied, transmitted, or stored only in accord with that
 written license.
  
 The following legend is applicable only to US Government
 contracts under FAR:
  
                    RESTRICTED RIGHTS LEGEND
  
 Use, reproduction and disclosure by the US Government is
 subject to restrictions as set forth in subparagraphs (a)
 and (c) of the Commercial Computer Software - Restricted
 Rights clause in FAR 52.227-19.
  
 Gaussian, Inc.
 340 Quinnipiac St., Bldg. 40, Wallingford CT 06492
  
  
 ---------------------------------------------------------------
 Warning -- This program may not be used in any manner that
 competes with the business of Gaussian, Inc. or will provide
 assistance to any competitor of Gaussian, Inc.  The licensee
 of this program is prohibited from giving any competitor of
 Gaussian, Inc. access to this program.  By using this program,
 the user acknowledges that Gaussian, Inc. is engaged in the
 business of creating and licensing software in the field of
 computational chemistry and represents and warrants to the
 licensee that it is not a competitor of Gaussian, Inc. and that
 it will not use this program in any manner prohibited above.
 ---------------------------------------------------------------
  

 Cite this work as:
 Gaussian 16, Revision C.01,
 M. J. Frisch, G. W. Trucks, H. B. Schlegel, G. E. Scuseria, 
 M. A. Robb, J. R. Cheeseman, G. Scalmani, V. Barone, 
 G. A. Petersson, H. Nakatsuji, X. Li, M. Caricato, A. V. Marenich, 
 J. Bloino, B. G. Janesko, R. Gomperts, B. Mennucci, H. P. Hratchian, 
 J. V. Ortiz, A. F. Izmaylov, J. L. Sonnenberg, D. Williams-Young, 
 F. Ding, F. Lipparini, F. Egidi, J. Goings, B. Peng, A. Petrone, 
 T. Henderson, D. Ranasinghe, V. G. Zakrzewski, J. Gao, N. Rega, 
 G. Zheng, W. Liang, M. Hada, M. Ehara, K. Toyota, R. Fukuda, 
 J. Hasegawa, M. Ishida, T. Nakajima, Y. Honda, O. Kitao, H. Nakai, 
 T. Vreven, K. Throssell, J. A. Montgomery, Jr., J. E. Peralta, 
 F. Ogliaro, M. J. Bearpark, J. J. Heyd, E. N. Brothers, K. N. Kudin, 
 V. N. Staroverov, T. A. Keith, R. Kobayashi, J. Normand, 
 K. Raghavachari, A. P. Rendell, J. C. Burant, S. S. Iyengar, 
 J. Tomasi, M. Cossi, J. M. Millam, M. Klene, C. Adamo, R. Cammi, 
 J. W. Ochterski, R. L. Martin, K. Morokuma, O. Farkas, 
 J. B. Foresman, and D. J. Fox, Gaussian, Inc., Wallingford CT, 2019.
 
 ******************************************
 Gaussian 16:  ES64L-G16RevC.01  3-Jul-2019
                 6-Jun-2022 
 ******************************************
 %mem=8gb
 %nproc=4
 Will use up to    4 processors via shared memory.
 %chk=conf-472.chk
 ----------------------------------------------------------------------
 # B3LYP/6-31G* empiricaldispersion=gd3 guess=read geom=check nosymm in
 tegral(ultrafinegrid)
 ----------------------------------------------------------------------
 1/29=2,38=1,172=1/1;
 2/12=2,15=1,40=1/2;
 3/5=1,6=6,7=1,11=2,14=-4,25=1,30=1,74=-5,75=-5,116=-2,124=31/1,2,3;
 4/5=1/1;
 5/5=2,38=6/2;
 6/7=2,8=2,9=2,10=2,28=1/1;
 99/5=1,9=1/99;
 ------------------------------------------------------
 Candidate Structure: Conf:472 Charge calc in gas phase
 ------------------------------------------------------
 Structure from the checkpoint file:  "conf-472.chk"
 Charge =  1 Multiplicity = 1
 Redundant internal coordinates found in file.  (old form).
 N,0,-5.4372261805,-0.1796822409,3.6802708214
 H,0,-6.1087417934,0.1308994302,2.9747551428
 H,0,-5.6190581232,0.3972698516,4.5006922981
 C,0,-4.0949471624,0.0992319319,3.1651852198
 H,0,-3.392060195,0.0429132422,4.0067550034
 C,0,-3.9843186573,1.4807912157,2.4924865431
 C,0,-3.703713318,-0.9706496517,2.1126577173
 H,0,-4.5326654899,-1.0651155134,1.3994805896
 H,0,-2.8400708265,-0.6490950834,1.5318160852
 O,0,-4.9467544618,2.0098468793,1.9599360777
 C,0,-3.4013687713,-2.3383815637,2.7105077171
 N,0,-4.2697312939,-2.7786157421,3.6293493629
 H,0,-4.1148749079,-3.6784676556,4.0643851372
 H,0,-5.033383362,-2.1606588883,3.9170835004
 O,0,-2.4064458024,-3.0077557073,2.3635527295
 N,0,-2.7283115127,2.0346486896,2.5341120237
 H,0,-1.9921822383,1.4324818929,2.8794037021
 C,0,-2.3141003019,3.0456503422,1.5702372278
 H,0,-3.2316456236,3.5793868518,1.3013365523
 C,0,-1.869340006,2.3048039712,0.2839801803
 C,0,-1.3231191915,4.0369286146,2.240628747
 H,0,-1.8441349865,4.3176793339,3.1646186701
 O,0,-2.3396850824,1.1891758543,0.0268715281
 C,0,-1.0677857972,5.3608929248,1.478434779
 H,0,-0.2729331449,5.2402420577,0.7247478964
 H,0,-0.6334204215,6.0591331717,2.2042480213
 C,0,0.0060352381,3.3706200057,2.635345802
 H,0,0.5458087387,2.9935861737,1.7580987294
 H,0,0.6585754097,4.0904101946,3.1399318263
 H,0,-0.138769542,2.5330579589,3.3276640485
 C,0,-2.3022238145,6.0003669996,0.8352174755
 H,0,-2.063658871,6.9956695571,0.4477867154
 H,0,-2.6843804663,5.4054813711,-0.0028097134
 H,0,-3.1141132064,6.1120308502,1.5629382901
 N,0,-0.9765753773,2.9000476185,-0.5394940824
 H,0,-0.5864833921,3.7966968969,-0.2876392447
 C,0,-0.5410808187,2.3121938259,-1.8155815669
 H,0,-1.4266290707,1.8582544902,-2.2753373893
 C,0,0.488942226,1.1849316489,-1.5584316363
 C,0,0.0415610431,3.3936445388,-2.717381209
 H,0,0.335066487,2.9647110746,-3.6781524134
 H,0,-0.7002306359,4.1780922848,-2.8935050679
 H,0,0.9398119656,3.8305579186,-2.2701891589
 O,0,1.6726341103,1.2654411147,-1.8851167804
 N,0,-0.0219860624,0.0913592301,-0.9323162804
 H,0,-1.0086437386,0.0880033169,-0.6631058548
 C,0,0.847861027,-0.9752057673,-0.4761755791
 H,0,1.8275097518,-0.554350308,-0.234977338
 C,0,1.0241491782,-1.9719802451,-1.6180284181
 C,0,0.2673919471,-1.6747839117,0.7654993968
 H,0,0.953911759,-2.4914168343,1.0376769968
 O,0,0.2619642245,-3.0187297017,-1.7083776206
 C,0,0.1146196608,-0.729275479,1.9514474544
 H,0,1.0906092128,-0.3416056284,2.2626716402
 H,0,-0.3326260554,-1.27084248,2.7897566697
 H,0,-0.5313186558,0.1108341037,1.6850426879
 O,0,-0.987034931,-2.211338411,0.3300040087
 H,0,-1.5271285128,-2.570610016,1.110117538
 N,0,1.9139041038,-1.7459656757,-2.5446095672
 H,0,2.5316258151,-0.9408271217,-2.4237917485
 C,0,2.3447561948,-2.7269644703,-3.5346678243
 H,0,1.4713067295,-3.2066849982,-3.9878731805
 C,0,3.2152559437,-3.7704172651,-2.7846123473
 C,0,3.1780424394,-1.9560640694,-4.5897820507
 H,0,2.5246249957,-1.2274658129,-5.0813794805
 H,0,3.5415519708,-2.6489361812,-5.3594127993
 O,0,3.4336546288,-3.6731424045,-1.5846194788
 O,0,4.2201125003,-1.2500337266,-3.9635588523
 H,0,4.9813700623,-1.8620351364,-3.8647838312
 N,0,3.7566232109,-4.758457131,-3.5557270766
 H,0,3.6967732962,-4.6464050299,-4.5594210696
 C,0,4.9923048977,-5.3649983527,-3.0772936459
 H,0,4.8195763905,-5.7964574547,-2.0891121223
 H,0,5.2801367084,-6.1668249026,-3.7631198256
 C,0,6.0943445795,-4.2845298429,-3.0403639441
 O,0,6.0618718725,-3.3473133633,-3.8461072662
 N,0,7.0413637833,-4.4243580382,-2.0968913116
 H,0,6.9886995315,-5.1943143162,-1.4425783453
 C,0,8.0786464999,-3.4178107117,-1.8670489071
 H,0,8.2524523336,-2.9097277904,-2.8183316645
 C,0,9.3972793532,-4.047778447,-1.4421408048
 C,0,7.6547349272,-2.369468648,-0.804471624
 H,0,7.512573466,-2.8800102088,0.158350439
 H,0,8.4922369543,-1.6736007805,-0.6795720024
 O,0,10.4549255319,-3.470036786,-1.4831160863
 C,0,6.3761974684,-1.6262679289,-1.1983194137
 H,0,6.5324227918,-1.127369939,-2.1633006754
 H,0,5.5743845883,-2.3562528679,-1.3501619737
 C,0,5.888976594,-0.5997647417,-0.1701773491
 H,0,6.591796514,0.2360922793,-0.0736456617
 H,0,5.8177201628,-1.0703300372,0.8222395709
 C,0,4.5126452426,-0.0656135053,-0.5775976874
 H,0,4.582905298,0.4052716352,-1.5649079358
 H,0,3.8514714577,-0.9452015228,-0.7018717192
 N,0,4.0014572057,0.9388954014,0.3551127906
 H,0,3.7456104604,0.5180669902,1.2466063136
 H,0,3.1781110213,1.3894825839,-0.0376552261
 O,0,9.2403918531,-5.3001599611,-0.9426437481
 H,0,10.1223747807,-5.6043348454,-0.6547360151
 H,0,-0.4191156766,-2.9726929449,-0.9456312814
 Recover connectivity data from disk.
                           ----------------------------
                           !    Current Parameters    !
                           ! (Angstroms and Degrees)  !
 --------------------------                            --------------------------
 ! Name  Definition              Value                                          !
 --------------------------------------------------------------------------------
 ! R1    R(1,2)                  1.0223                                         !
 ! R2    R(1,3)                  1.0193                                         !
 ! R3    R(1,4)                  1.4645                                         !
 ! R4    R(4,5)                  1.0979                                         !
 ! R5    R(4,6)                  1.5406                                         !
 ! R6    R(4,7)                  1.551                                          !
 ! R7    R(6,10)                 1.2206                                         !
 ! R8    R(6,16)                 1.3733                                         !
 ! R9    R(7,8)                  1.0976                                         !
 ! R10   R(7,9)                  1.0893                                         !
 ! R11   R(7,11)                 1.523                                          !
 ! R12   R(11,12)                1.3387                                         !
 ! R13   R(11,15)                1.2483                                         !
 ! R14   R(12,13)                1.0114                                         !
 ! R15   R(12,14)                1.0236                                         !
 ! R16   R(16,17)                1.0118                                         !
 ! R17   R(16,18)                1.457                                          !
 ! R18   R(18,19)                1.095                                          !
 ! R19   R(18,20)                1.5496                                         !
 ! R20   R(18,21)                1.5537                                         !
 ! R21   R(20,23)                1.2377                                         !
 ! R22   R(20,35)                1.3526                                         !
 ! R23   R(21,22)                1.0973                                         !
 ! R24   R(21,24)                1.5489                                         !
 ! R25   R(21,27)                1.5383                                         !
 ! R26   R(24,25)                1.102                                          !
 ! R27   R(24,26)                1.0968                                         !
 ! R28   R(24,31)                1.5318                                         !
 ! R29   R(27,28)                1.0968                                         !
 ! R30   R(27,29)                1.0948                                         !
 ! R31   R(27,30)                1.0963                                         !
 ! R32   R(31,32)                1.0944                                         !
 ! R33   R(31,33)                1.0965                                         !
 ! R34   R(31,34)                1.096                                          !
 ! R35   R(35,36)                1.0097                                         !
 ! R36   R(35,37)                1.4709                                         !
 ! R37   R(37,38)                1.0962                                         !
 ! R38   R(37,39)                1.5485                                         !
 ! R39   R(37,40)                1.5239                                         !
 ! R40   R(39,44)                1.2306                                         !
 ! R41   R(39,45)                1.3598                                         !
 ! R42   R(40,41)                1.0923                                         !
 ! R43   R(40,42)                1.0939                                         !
 ! R44   R(40,43)                1.0944                                         !
 ! R45   R(45,46)                1.0227                                         !
 ! R46   R(45,47)                1.4499                                         !
 ! R47   R(47,48)                1.0932                                         !
 ! R48   R(47,49)                1.5259                                         !
 ! R49   R(47,50)                1.5389                                         !
 ! R50   R(49,52)                1.298                                          !
 ! R51   R(49,59)                1.3043                                         !
 ! R52   R(50,51)                1.101                                          !
 ! R53   R(50,53)                1.5244                                         !
 ! R54   R(50,57)                1.4322                                         !
 ! R55   R(53,54)                1.0953                                         !
 ! R56   R(53,55)                1.0937                                         !
 ! R57   R(53,56)                1.0927                                         !
 ! R58   R(57,58)                1.0146                                         !
 ! R59   R(57,100)               1.5904                                         !
 ! R60   R(59,60)                1.022                                          !
 ! R61   R(59,61)                1.4588                                         !
 ! R62   R(61,62)                1.0947                                         !
 ! R63   R(61,63)                1.5521                                         !
 ! R64   R(61,64)                1.5498                                         !
 ! R65   R(63,67)                1.2236                                         !
 ! R66   R(63,70)                1.3653                                         !
 ! R67   R(64,65)                1.0952                                         !
 ! R68   R(64,66)                1.0975                                         !
 ! R69   R(64,68)                1.4059                                         !
 ! R70   R(68,69)                0.9817                                         !
 ! R71   R(70,71)                1.0117                                         !
 ! R72   R(70,72)                1.4573                                         !
 ! R73   R(72,73)                1.092                                          !
 ! R74   R(72,74)                1.0937                                         !
 ! R75   R(72,75)                1.5438                                         !
 ! R76   R(75,76)                1.2364                                         !
 ! R77   R(75,77)                1.3441                                         !
 ! R78   R(77,78)                1.0118                                         !
 ! R79   R(77,79)                1.4635                                         !
 ! R80   R(79,80)                1.0924                                         !
 ! R81   R(79,81)                1.5219                                         !
 ! R82   R(79,82)                1.5517                                         !
 ! R83   R(81,85)                1.2059                                         !
 ! R84   R(81,98)                1.3574                                         !
 ! R85   R(82,83)                1.099                                          !
 ! R86   R(82,84)                1.096                                          !
 ! R87   R(82,86)                1.5304                                         !
 ! R88   R(86,87)                1.0975                                         !
 ! R89   R(86,88)                1.0949                                         !
 ! R90   R(86,89)                1.5324                                         !
 ! R91   R(89,90)                1.0963                                         !
 ! R92   R(89,91)                1.1006                                         !
 ! R93   R(89,92)                1.5315                                         !
 ! R94   R(92,93)                1.0961                                         !
 ! R95   R(92,94)                1.1074                                         !
 ! R96   R(92,95)                1.463                                          !
 ! R97   R(95,96)                1.0185                                         !
 ! R98   R(95,97)                1.0174                                         !
 ! R99   R(98,99)                0.9764                                         !
 ! A1    A(2,1,3)              105.4453                                         !
 ! A2    A(2,1,4)              107.5447                                         !
 ! A3    A(3,1,4)              109.8024                                         !
 ! A4    A(1,4,5)              107.9026                                         !
 ! A5    A(1,4,6)              112.9653                                         !
 ! A6    A(1,4,7)              109.7855                                         !
 ! A7    A(5,4,6)              109.5554                                         !
 ! A8    A(5,4,7)              108.8623                                         !
 ! A9    A(6,4,7)              107.708                                          !
 ! A10   A(4,6,10)             121.5064                                         !
 ! A11   A(4,6,16)             114.4626                                         !
 ! A12   A(10,6,16)            124.0258                                         !
 ! A13   A(4,7,8)              108.0474                                         !
 ! A14   A(4,7,9)              110.9905                                         !
 ! A15   A(4,7,11)             113.7766                                         !
 ! A16   A(8,7,9)              106.124                                          !
 ! A17   A(8,7,11)             109.1294                                         !
 ! A18   A(9,7,11)             108.4822                                         !
 ! A19   A(7,11,12)            115.848                                          !
 ! A20   A(7,11,15)            122.0507                                         !
 ! A21   A(12,11,15)           122.1012                                         !
 ! A22   A(11,12,13)           119.241                                          !
 ! A23   A(11,12,14)           118.5758                                         !
 ! A24   A(13,12,14)           122.0335                                         !
 ! A25   A(6,16,17)            115.8311                                         !
 ! A26   A(6,16,18)            121.3193                                         !
 ! A27   A(17,16,18)           115.5888                                         !
 ! A28   A(16,18,19)           105.2163                                         !
 ! A29   A(16,18,20)           107.3971                                         !
 ! A30   A(16,18,21)           109.7911                                         !
 ! A31   A(19,18,20)           105.6465                                         !
 ! A32   A(19,18,21)           109.2332                                         !
 ! A33   A(20,18,21)           118.6931                                         !
 ! A34   A(18,20,23)           119.6236                                         !
 ! A35   A(18,20,35)           118.9742                                         !
 ! A36   A(23,20,35)           121.4011                                         !
 ! A37   A(18,21,22)           102.9277                                         !
 ! A38   A(18,21,24)           115.9872                                         !
 ! A39   A(18,21,27)           112.6718                                         !
 ! A40   A(22,21,24)           105.8992                                         !
 ! A41   A(22,21,27)           107.7593                                         !
 ! A42   A(24,21,27)           110.7368                                         !
 ! A43   A(21,24,25)           111.2155                                         !
 ! A44   A(21,24,26)           106.4875                                         !
 ! A45   A(21,24,31)           115.5072                                         !
 ! A46   A(25,24,26)           103.6882                                         !
 ! A47   A(25,24,31)           109.8633                                         !
 ! A48   A(26,24,31)           109.3447                                         !
 ! A49   A(21,27,28)           111.6461                                         !
 ! A50   A(21,27,29)           110.395                                          !
 ! A51   A(21,27,30)           112.262                                          !
 ! A52   A(28,27,29)           107.5362                                         !
 ! A53   A(28,27,30)           107.9066                                         !
 ! A54   A(29,27,30)           106.8571                                         !
 ! A55   A(24,31,32)           110.6496                                         !
 ! A56   A(24,31,33)           112.0436                                         !
 ! A57   A(24,31,34)           111.1424                                         !
 ! A58   A(32,31,33)           107.3877                                         !
 ! A59   A(32,31,34)           107.6912                                         !
 ! A60   A(33,31,34)           107.7324                                         !
 ! A61   A(20,35,36)           119.5994                                         !
 ! A62   A(20,35,37)           123.2105                                         !
 ! A63   A(36,35,37)           117.1868                                         !
 ! A64   A(35,37,38)           106.8686                                         !
 ! A65   A(35,37,39)           110.109                                          !
 ! A66   A(35,37,40)           110.0579                                         !
 ! A67   A(38,37,39)           107.7914                                         !
 ! A68   A(38,37,40)           110.7657                                         !
 ! A69   A(39,37,40)           111.1351                                         !
 ! A70   A(37,39,44)           123.2384                                         !
 ! A71   A(37,39,45)           114.33                                           !
 ! A72   A(44,39,45)           122.431                                          !
 ! A73   A(37,40,41)           110.155                                          !
 ! A74   A(37,40,42)           110.1766                                         !
 ! A75   A(37,40,43)           110.8128                                         !
 ! A76   A(41,40,42)           108.7949                                         !
 ! A77   A(41,40,43)           107.1952                                         !
 ! A78   A(42,40,43)           109.6378                                         !
 ! A79   A(39,45,46)           119.1001                                         !
 ! A80   A(39,45,47)           120.7329                                         !
 ! A81   A(46,45,47)           119.5738                                         !
 ! A82   A(45,47,48)           108.8957                                         !
 ! A83   A(45,47,49)           108.3252                                         !
 ! A84   A(45,47,50)           111.2203                                         !
 ! A85   A(48,47,49)           108.2436                                         !
 ! A86   A(48,47,50)           109.5739                                         !
 ! A87   A(49,47,50)           110.512                                          !
 ! A88   A(47,49,52)           120.7327                                         !
 ! A89   A(47,49,59)           119.8148                                         !
 ! A90   A(52,49,59)           119.3967                                         !
 ! A91   A(47,50,51)           107.5444                                         !
 ! A92   A(47,50,53)           112.5546                                         !
 ! A93   A(47,50,57)           104.7943                                         !
 ! A94   A(51,50,53)           109.2813                                         !
 ! A95   A(51,50,57)           110.0862                                         !
 ! A96   A(53,50,57)           112.4055                                         !
 ! A97   A(50,53,54)           110.5659                                         !
 ! A98   A(50,53,55)           109.2795                                         !
 ! A99   A(50,53,56)           110.2697                                         !
 ! A100  A(54,53,55)           108.7755                                         !
 ! A101  A(54,53,56)           108.8988                                         !
 ! A102  A(55,53,56)           109.0175                                         !
 ! A103  A(50,57,58)           111.4152                                         !
 ! A104  A(50,57,100)           96.3425                                         !
 ! A105  A(58,57,100)          129.5905                                         !
 ! A106  A(49,59,60)           117.7007                                         !
 ! A107  A(49,59,61)           124.5451                                         !
 ! A108  A(60,59,61)           115.5624                                         !
 ! A109  A(59,61,62)           109.8763                                         !
 ! A110  A(59,61,63)           106.8429                                         !
 ! A111  A(59,61,64)           106.639                                          !
 ! A112  A(62,61,63)           110.6669                                         !
 ! A113  A(62,61,64)           111.4147                                         !
 ! A114  A(63,61,64)           111.2132                                         !
 ! A115  A(61,63,67)           121.3714                                         !
 ! A116  A(61,63,70)           115.8471                                         !
 ! A117  A(67,63,70)           122.7302                                         !
 ! A118  A(61,64,65)           108.404                                          !
 ! A119  A(61,64,66)           109.9664                                         !
 ! A120  A(61,64,68)           110.1866                                         !
 ! A121  A(65,64,66)           107.6275                                         !
 ! A122  A(65,64,68)           107.9427                                         !
 ! A123  A(66,64,68)           112.5751                                         !
 ! A124  A(64,68,69)           107.8488                                         !
 ! A125  A(63,70,71)           117.1764                                         !
 ! A126  A(63,70,72)           116.873                                          !
 ! A127  A(71,70,72)           114.9587                                         !
 ! A128  A(70,72,73)           109.1118                                         !
 ! A129  A(70,72,74)           108.8098                                         !
 ! A130  A(70,72,75)           108.7751                                         !
 ! A131  A(73,72,74)           108.6276                                         !
 ! A132  A(73,72,75)           111.5796                                         !
 ! A133  A(74,72,75)           109.8919                                         !
 ! A134  A(72,75,76)           119.7485                                         !
 ! A135  A(72,75,77)           116.5485                                         !
 ! A136  A(76,75,77)           123.6983                                         !
 ! A137  A(75,77,78)           119.7643                                         !
 ! A138  A(75,77,79)           122.5523                                         !
 ! A139  A(78,77,79)           117.3031                                         !
 ! A140  A(77,79,80)           107.211                                          !
 ! A141  A(77,79,81)           111.9163                                         !
 ! A142  A(77,79,82)           112.245                                          !
 ! A143  A(80,79,81)           107.3257                                         !
 ! A144  A(80,79,82)           108.9996                                         !
 ! A145  A(81,79,82)           108.9759                                         !
 ! A146  A(79,81,85)           123.5137                                         !
 ! A147  A(79,81,98)           112.6128                                         !
 ! A148  A(85,81,98)           123.7741                                         !
 ! A149  A(79,82,83)           108.7477                                         !
 ! A150  A(79,82,84)           107.3513                                         !
 ! A151  A(79,82,86)           112.3395                                         !
 ! A152  A(83,82,84)           107.0942                                         !
 ! A153  A(83,82,86)           110.0585                                         !
 ! A154  A(84,82,86)           111.0621                                         !
 ! A155  A(82,86,87)           109.1542                                         !
 ! A156  A(82,86,88)           108.8874                                         !
 ! A157  A(82,86,89)           114.7252                                         !
 ! A158  A(87,86,88)           106.5814                                         !
 ! A159  A(87,86,89)           109.3102                                         !
 ! A160  A(88,86,89)           107.8677                                         !
 ! A161  A(86,89,90)           111.4675                                         !
 ! A162  A(86,89,91)           109.8258                                         !
 ! A163  A(86,89,92)           109.9303                                         !
 ! A164  A(90,89,91)           106.7427                                         !
 ! A165  A(90,89,92)           109.4886                                         !
 ! A166  A(91,89,92)           109.3171                                         !
 ! A167  A(89,92,93)           109.3807                                         !
 ! A168  A(89,92,94)           106.8212                                         !
 ! A169  A(89,92,95)           112.5742                                         !
 ! A170  A(93,92,94)           106.1658                                         !
 ! A171  A(93,92,95)           107.5591                                         !
 ! A172  A(94,92,95)           114.0986                                         !
 ! A173  A(92,95,96)           111.2304                                         !
 ! A174  A(92,95,97)           109.9209                                         !
 ! A175  A(96,95,97)           108.5182                                         !
 ! A176  A(81,98,99)           106.9497                                         !
 ! D1    D(2,1,4,5)            164.0531                                         !
 ! D2    D(2,1,4,6)             42.7932                                         !
 ! D3    D(2,1,4,7)            -77.4398                                         !
 ! D4    D(3,1,4,5)             49.8039                                         !
 ! D5    D(3,1,4,6)            -71.4559                                         !
 ! D6    D(3,1,4,7)            168.3111                                         !
 ! D7    D(1,4,6,10)           -28.3902                                         !
 ! D8    D(1,4,6,16)           152.4132                                         !
 ! D9    D(5,4,6,10)          -148.7096                                         !
 ! D10   D(5,4,6,16)            32.0939                                         !
 ! D11   D(7,4,6,10)            93.0245                                         !
 ! D12   D(7,4,6,16)           -86.172                                          !
 ! D13   D(1,4,7,8)             49.171                                          !
 ! D14   D(1,4,7,9)            165.1386                                         !
 ! D15   D(1,4,7,11)           -72.1731                                         !
 ! D16   D(5,4,7,8)            167.0837                                         !
 ! D17   D(5,4,7,9)            -76.9487                                         !
 ! D18   D(5,4,7,11)            45.7395                                         !
 ! D19   D(6,4,7,8)            -74.2054                                         !
 ! D20   D(6,4,7,9)             41.7622                                         !
 ! D21   D(6,4,7,11)           164.4504                                         !
 ! D22   D(4,6,16,17)            8.1998                                         !
 ! D23   D(4,6,16,18)          157.0988                                         !
 ! D24   D(10,6,16,17)        -170.9737                                         !
 ! D25   D(10,6,16,18)         -22.0747                                         !
 ! D26   D(4,7,11,12)           45.3934                                         !
 ! D27   D(4,7,11,15)         -134.7018                                         !
 ! D28   D(8,7,11,12)          -75.3462                                         !
 ! D29   D(8,7,11,15)          104.5586                                         !
 ! D30   D(9,7,11,12)          169.448                                          !
 ! D31   D(9,7,11,15)          -10.6472                                         !
 ! D32   D(7,11,12,13)        -179.6001                                         !
 ! D33   D(7,11,12,14)          -3.9564                                         !
 ! D34   D(15,11,12,13)          0.4952                                         !
 ! D35   D(15,11,12,14)        176.1389                                         !
 ! D36   D(6,16,18,19)          30.0355                                         !
 ! D37   D(6,16,18,20)         -82.182                                          !
 ! D38   D(6,16,18,21)         147.4672                                         !
 ! D39   D(17,16,18,19)        179.0048                                         !
 ! D40   D(17,16,18,20)         66.7873                                         !
 ! D41   D(17,16,18,21)        -63.5635                                         !
 ! D42   D(16,18,20,23)         26.2685                                         !
 ! D43   D(16,18,20,35)       -154.0994                                         !
 ! D44   D(19,18,20,23)        -85.6561                                         !
 ! D45   D(19,18,20,35)         93.976                                          !
 ! D46   D(21,18,20,23)        151.4371                                         !
 ! D47   D(21,18,20,35)        -28.9308                                         !
 ! D48   D(16,18,21,22)        -49.9356                                         !
 ! D49   D(16,18,21,24)       -165.0594                                         !
 ! D50   D(16,18,21,27)         65.8524                                         !
 ! D51   D(19,18,21,22)         64.9606                                         !
 ! D52   D(19,18,21,24)        -50.1633                                         !
 ! D53   D(19,18,21,27)       -179.2514                                         !
 ! D54   D(20,18,21,22)       -173.9359                                         !
 ! D55   D(20,18,21,24)         70.9403                                         !
 ! D56   D(20,18,21,27)        -58.1478                                         !
 ! D57   D(18,20,35,36)          2.4443                                         !
 ! D58   D(18,20,35,37)       -176.8758                                         !
 ! D59   D(23,20,35,36)       -177.9304                                         !
 ! D60   D(23,20,35,37)          2.7495                                         !
 ! D61   D(18,21,24,25)        -85.6561                                         !
 ! D62   D(18,21,24,26)        162.0337                                         !
 ! D63   D(18,21,24,31)         40.434                                          !
 ! D64   D(22,21,24,25)        160.9136                                         !
 ! D65   D(22,21,24,26)         48.6033                                         !
 ! D66   D(22,21,24,31)        -72.9964                                         !
 ! D67   D(27,21,24,25)         44.3646                                         !
 ! D68   D(27,21,24,26)        -67.9456                                         !
 ! D69   D(27,21,24,31)        170.4547                                         !
 ! D70   D(18,21,27,28)         62.7497                                         !
 ! D71   D(18,21,27,29)       -177.686                                          !
 ! D72   D(18,21,27,30)        -58.5754                                         !
 ! D73   D(22,21,27,28)        175.6034                                         !
 ! D74   D(22,21,27,29)        -64.8323                                         !
 ! D75   D(22,21,27,30)         54.2782                                         !
 ! D76   D(24,21,27,28)        -69.0027                                         !
 ! D77   D(24,21,27,29)         50.5616                                         !
 ! D78   D(24,21,27,30)        169.6721                                         !
 ! D79   D(21,24,31,32)        171.6993                                         !
 ! D80   D(21,24,31,33)        -68.4901                                         !
 ! D81   D(21,24,31,34)         52.1001                                         !
 ! D82   D(25,24,31,32)        -61.5243                                         !
 ! D83   D(25,24,31,33)         58.2864                                         !
 ! D84   D(25,24,31,34)        178.8765                                         !
 ! D85   D(26,24,31,32)         51.6478                                         !
 ! D86   D(26,24,31,33)        171.4584                                         !
 ! D87   D(26,24,31,34)        -67.9514                                         !
 ! D88   D(20,35,37,38)         39.3611                                         !
 ! D89   D(20,35,37,39)        -77.449                                          !
 ! D90   D(20,35,37,40)        159.7006                                         !
 ! D91   D(36,35,37,38)       -139.9743                                         !
 ! D92   D(36,35,37,39)        103.2155                                         !
 ! D93   D(36,35,37,40)        -19.6348                                         !
 ! D94   D(35,37,39,44)       -112.4949                                         !
 ! D95   D(35,37,39,45)         67.2456                                         !
 ! D96   D(38,37,39,44)        131.2719                                         !
 ! D97   D(38,37,39,45)        -48.9875                                         !
 ! D98   D(40,37,39,44)          9.7208                                         !
 ! D99   D(40,37,39,45)       -170.5387                                         !
 ! D100  D(35,37,40,41)       -178.1298                                         !
 ! D101  D(35,37,40,42)        -58.0962                                         !
 ! D102  D(35,37,40,43)         63.4187                                         !
 ! D103  D(38,37,40,41)        -60.1721                                         !
 ! D104  D(38,37,40,42)         59.8615                                         !
 ! D105  D(38,37,40,43)       -178.6236                                         !
 ! D106  D(39,37,40,41)         59.6249                                         !
 ! D107  D(39,37,40,42)        179.6585                                         !
 ! D108  D(39,37,40,43)        -58.8266                                         !
 ! D109  D(37,39,45,46)         -1.2288                                         !
 ! D110  D(37,39,45,47)       -172.3607                                         !
 ! D111  D(44,39,45,46)        178.5141                                         !
 ! D112  D(44,39,45,47)          7.3822                                         !
 ! D113  D(39,45,47,48)         29.1483                                         !
 ! D114  D(39,45,47,49)        -88.3638                                         !
 ! D115  D(39,45,47,50)        149.9968                                         !
 ! D116  D(46,45,47,48)       -141.9419                                         !
 ! D117  D(46,45,47,49)        100.546                                          !
 ! D118  D(46,45,47,50)        -21.0935                                         !
 ! D119  D(45,47,49,52)        -94.1019                                         !
 ! D120  D(45,47,49,59)         83.1643                                         !
 ! D121  D(48,47,49,52)        147.9691                                         !
 ! D122  D(48,47,49,59)        -34.7647                                         !
 ! D123  D(50,47,49,52)         27.9721                                         !
 ! D124  D(50,47,49,59)       -154.7618                                         !
 ! D125  D(45,47,50,51)        178.0578                                         !
 ! D126  D(45,47,50,53)        -61.5242                                         !
 ! D127  D(45,47,50,57)         60.9262                                         !
 ! D128  D(48,47,50,51)        -61.4932                                         !
 ! D129  D(48,47,50,53)         58.9249                                         !
 ! D130  D(48,47,50,57)       -178.6248                                         !
 ! D131  D(49,47,50,51)         57.7015                                         !
 ! D132  D(49,47,50,53)        178.1196                                         !
 ! D133  D(49,47,50,57)        -59.4301                                         !
 ! D134  D(47,49,59,60)          5.7086                                         !
 ! D135  D(47,49,59,61)        168.0958                                         !
 ! D136  D(52,49,59,60)       -176.9885                                         !
 ! D137  D(52,49,59,61)        -14.6013                                         !
 ! D138  D(47,50,53,54)        -62.2582                                         !
 ! D139  D(47,50,53,55)        178.0434                                         !
 ! D140  D(47,50,53,56)         58.2291                                         !
 ! D141  D(51,50,53,54)         57.1548                                         !
 ! D142  D(51,50,53,55)        -62.5436                                         !
 ! D143  D(51,50,53,56)        177.6422                                         !
 ! D144  D(57,50,53,54)        179.6874                                         !
 ! D145  D(57,50,53,55)         59.989                                          !
 ! D146  D(57,50,53,56)        -59.8252                                         !
 ! D147  D(47,50,57,58)       -170.9787                                         !
 ! D148  D(47,50,57,100)        51.936                                          !
 ! D149  D(51,50,57,58)         73.6458                                         !
 ! D150  D(51,50,57,100)       -63.4394                                         !
 ! D151  D(53,50,57,58)        -48.4314                                         !
 ! D152  D(53,50,57,100)       174.4833                                         !
 ! D153  D(49,59,61,62)         47.942                                          !
 ! D154  D(49,59,61,63)        -72.1612                                         !
 ! D155  D(49,59,61,64)        168.8229                                         !
 ! D156  D(60,59,61,62)       -149.3338                                         !
 ! D157  D(60,59,61,63)         90.563                                          !
 ! D158  D(60,59,61,64)        -28.4529                                         !
 ! D159  D(59,61,63,67)         -0.4133                                         !
 ! D160  D(59,61,63,70)       -177.8778                                         !
 ! D161  D(62,61,63,67)       -120.0076                                         !
 ! D162  D(62,61,63,70)         62.528                                          !
 ! D163  D(64,61,63,67)        115.59                                           !
 ! D164  D(64,61,63,70)        -61.8744                                         !
 ! D165  D(59,61,64,65)        -63.24                                           !
 ! D166  D(59,61,64,66)        179.3442                                         !
 ! D167  D(59,61,64,68)         54.681                                          !
 ! D168  D(62,61,64,65)         56.6523                                         !
 ! D169  D(62,61,64,66)        -60.7635                                         !
 ! D170  D(62,61,64,68)        174.5733                                         !
 ! D171  D(63,61,64,65)       -179.3687                                         !
 ! D172  D(63,61,64,66)         63.2155                                         !
 ! D173  D(63,61,64,68)        -61.4477                                         !
 ! D174  D(61,63,70,71)         10.8976                                         !
 ! D175  D(61,63,70,72)        153.2624                                         !
 ! D176  D(67,63,70,71)       -166.5289                                         !
 ! D177  D(67,63,70,72)        -24.164                                          !
 ! D178  D(61,64,68,69)         85.6715                                         !
 ! D179  D(65,64,68,69)       -156.1234                                         !
 ! D180  D(66,64,68,69)        -37.4806                                         !
 ! D181  D(63,70,72,73)         58.8578                                         !
 ! D182  D(63,70,72,74)        177.2269                                         !
 ! D183  D(63,70,72,75)        -63.0746                                         !
 ! D184  D(71,70,72,73)       -157.9531                                         !
 ! D185  D(71,70,72,74)        -39.584                                          !
 ! D186  D(71,70,72,75)         80.1145                                         !
 ! D187  D(70,72,75,76)        -30.0641                                         !
 ! D188  D(70,72,75,77)        149.1785                                         !
 ! D189  D(73,72,75,76)       -150.4839                                         !
 ! D190  D(73,72,75,77)         28.7586                                         !
 ! D191  D(74,72,75,76)         88.9589                                         !
 ! D192  D(74,72,75,77)        -91.7986                                         !
 ! D193  D(72,75,77,78)         -1.7808                                         !
 ! D194  D(72,75,77,79)       -174.5069                                         !
 ! D195  D(76,75,77,78)        177.4287                                         !
 ! D196  D(76,75,77,79)          4.7027                                         !
 ! D197  D(75,77,79,80)        -28.6209                                         !
 ! D198  D(75,77,79,81)       -146.0516                                         !
 ! D199  D(75,77,79,82)         91.0439                                         !
 ! D200  D(78,77,79,80)        158.4842                                         !
 ! D201  D(78,77,79,81)         41.0536                                         !
 ! D202  D(78,77,79,82)        -81.851                                          !
 ! D203  D(77,79,81,85)        163.0086                                         !
 ! D204  D(77,79,81,98)        -20.4992                                         !
 ! D205  D(80,79,81,85)         45.6467                                         !
 ! D206  D(80,79,81,98)       -137.8611                                         !
 ! D207  D(82,79,81,85)        -72.2515                                         !
 ! D208  D(82,79,81,98)        104.2406                                         !
 ! D209  D(77,79,82,83)         63.1946                                         !
 ! D210  D(77,79,82,84)        178.7422                                         !
 ! D211  D(77,79,82,86)        -58.8827                                         !
 ! D212  D(80,79,82,83)       -178.1897                                         !
 ! D213  D(80,79,82,84)        -62.6421                                         !
 ! D214  D(80,79,82,86)         59.7331                                         !
 ! D215  D(81,79,82,83)        -61.3524                                         !
 ! D216  D(81,79,82,84)         54.1953                                         !
 ! D217  D(81,79,82,86)        176.5704                                         !
 ! D218  D(79,81,98,99)       -177.056                                          !
 ! D219  D(85,81,98,99)         -0.5744                                         !
 ! D220  D(79,82,86,87)        -58.3419                                         !
 ! D221  D(79,82,86,88)         57.6427                                         !
 ! D222  D(79,82,86,89)        178.6103                                         !
 ! D223  D(83,82,86,87)       -179.6716                                         !
 ! D224  D(83,82,86,88)        -63.6871                                         !
 ! D225  D(83,82,86,89)         57.2806                                         !
 ! D226  D(84,82,86,87)         61.9077                                         !
 ! D227  D(84,82,86,88)        177.8922                                         !
 ! D228  D(84,82,86,89)        -61.1401                                         !
 ! D229  D(82,86,89,90)         66.2051                                         !
 ! D230  D(82,86,89,91)        -51.8833                                         !
 ! D231  D(82,86,89,92)       -172.1993                                         !
 ! D232  D(87,86,89,90)        -56.7589                                         !
 ! D233  D(87,86,89,91)       -174.8473                                         !
 ! D234  D(87,86,89,92)         64.8367                                         !
 ! D235  D(88,86,89,90)       -172.2689                                         !
 ! D236  D(88,86,89,91)         69.6427                                         !
 ! D237  D(88,86,89,92)        -50.6733                                         !
 ! D238  D(86,89,92,93)        -59.5024                                         !
 ! D239  D(86,89,92,94)         54.997                                          !
 ! D240  D(86,89,92,95)       -179.0135                                         !
 ! D241  D(90,89,92,93)         63.2676                                         !
 ! D242  D(90,89,92,94)        177.7671                                         !
 ! D243  D(90,89,92,95)        -56.2434                                         !
 ! D244  D(91,89,92,93)        179.8742                                         !
 ! D245  D(91,89,92,94)        -65.6263                                         !
 ! D246  D(91,89,92,95)         60.3632                                         !
 ! D247  D(89,92,95,96)        -70.2944                                         !
 ! D248  D(89,92,95,97)        169.4934                                         !
 ! D249  D(93,92,95,96)        169.1423                                         !
 ! D250  D(93,92,95,97)         48.93                                           !
 ! D251  D(94,92,95,96)         51.662                                          !
 ! D252  D(94,92,95,97)        -68.5503                                         !
 --------------------------------------------------------------------------------
 Symmetry turned off by external request.
 Stoichiometry    C28H52N9O11(1+)
 Framework group  C1[X(C28H52N9O11)]
 Deg. of freedom   294
 Full point group                 C1      NOp   1
                          Input orientation:                          
 ---------------------------------------------------------------------
 Center     Atomic      Atomic             Coordinates (Angstroms)
 Number     Number       Type             X           Y           Z
 ---------------------------------------------------------------------
      1          7           0       -5.437226   -0.179682    3.680271
      2          1           0       -6.108742    0.130899    2.974755
      3          1           0       -5.619058    0.397270    4.500692
      4          6           0       -4.094947    0.099232    3.165185
      5          1           0       -3.392060    0.042913    4.006755
      6          6           0       -3.984319    1.480791    2.492487
      7          6           0       -3.703713   -0.970650    2.112658
      8          1           0       -4.532665   -1.065116    1.399481
      9          1           0       -2.840071   -0.649095    1.531816
     10          8           0       -4.946754    2.009847    1.959936
     11          6           0       -3.401369   -2.338382    2.710508
     12          7           0       -4.269731   -2.778616    3.629349
     13          1           0       -4.114875   -3.678468    4.064385
     14          1           0       -5.033383   -2.160659    3.917084
     15          8           0       -2.406446   -3.007756    2.363553
     16          7           0       -2.728312    2.034649    2.534112
     17          1           0       -1.992182    1.432482    2.879404
     18          6           0       -2.314100    3.045650    1.570237
     19          1           0       -3.231646    3.579387    1.301337
     20          6           0       -1.869340    2.304804    0.283980
     21          6           0       -1.323119    4.036929    2.240629
     22          1           0       -1.844135    4.317679    3.164619
     23          8           0       -2.339685    1.189176    0.026872
     24          6           0       -1.067786    5.360893    1.478435
     25          1           0       -0.272933    5.240242    0.724748
     26          1           0       -0.633420    6.059133    2.204248
     27          6           0        0.006035    3.370620    2.635346
     28          1           0        0.545809    2.993586    1.758099
     29          1           0        0.658575    4.090410    3.139932
     30          1           0       -0.138770    2.533058    3.327664
     31          6           0       -2.302224    6.000367    0.835217
     32          1           0       -2.063659    6.995670    0.447787
     33          1           0       -2.684380    5.405481   -0.002810
     34          1           0       -3.114113    6.112031    1.562938
     35          7           0       -0.976575    2.900048   -0.539494
     36          1           0       -0.586483    3.796697   -0.287639
     37          6           0       -0.541081    2.312194   -1.815582
     38          1           0       -1.426629    1.858254   -2.275337
     39          6           0        0.488942    1.184932   -1.558432
     40          6           0        0.041561    3.393645   -2.717381
     41          1           0        0.335066    2.964711   -3.678152
     42          1           0       -0.700231    4.178092   -2.893505
     43          1           0        0.939812    3.830558   -2.270189
     44          8           0        1.672634    1.265441   -1.885117
     45          7           0       -0.021986    0.091359   -0.932316
     46          1           0       -1.008644    0.088003   -0.663106
     47          6           0        0.847861   -0.975206   -0.476176
     48          1           0        1.827510   -0.554350   -0.234977
     49          6           0        1.024149   -1.971980   -1.618028
     50          6           0        0.267392   -1.674784    0.765499
     51          1           0        0.953912   -2.491417    1.037677
     52          8           0        0.261964   -3.018730   -1.708378
     53          6           0        0.114620   -0.729275    1.951447
     54          1           0        1.090609   -0.341606    2.262672
     55          1           0       -0.332626   -1.270842    2.789757
     56          1           0       -0.531319    0.110834    1.685043
     57          8           0       -0.987035   -2.211338    0.330004
     58          1           0       -1.527129   -2.570610    1.110118
     59          7           0        1.913904   -1.745966   -2.544610
     60          1           0        2.531626   -0.940827   -2.423792
     61          6           0        2.344756   -2.726964   -3.534668
     62          1           0        1.471307   -3.206685   -3.987873
     63          6           0        3.215256   -3.770417   -2.784612
     64          6           0        3.178042   -1.956064   -4.589782
     65          1           0        2.524625   -1.227466   -5.081379
     66          1           0        3.541552   -2.648936   -5.359413
     67          8           0        3.433655   -3.673142   -1.584619
     68          8           0        4.220113   -1.250034   -3.963559
     69          1           0        4.981370   -1.862035   -3.864784
     70          7           0        3.756623   -4.758457   -3.555727
     71          1           0        3.696773   -4.646405   -4.559421
     72          6           0        4.992305   -5.364998   -3.077294
     73          1           0        4.819576   -5.796457   -2.089112
     74          1           0        5.280137   -6.166825   -3.763120
     75          6           0        6.094345   -4.284530   -3.040364
     76          8           0        6.061872   -3.347313   -3.846107
     77          7           0        7.041364   -4.424358   -2.096891
     78          1           0        6.988700   -5.194314   -1.442578
     79          6           0        8.078646   -3.417811   -1.867049
     80          1           0        8.252452   -2.909728   -2.818332
     81          6           0        9.397279   -4.047778   -1.442141
     82          6           0        7.654735   -2.369469   -0.804472
     83          1           0        7.512573   -2.880010    0.158350
     84          1           0        8.492237   -1.673601   -0.679572
     85          8           0       10.454926   -3.470037   -1.483116
     86          6           0        6.376197   -1.626268   -1.198319
     87          1           0        6.532423   -1.127370   -2.163301
     88          1           0        5.574385   -2.356253   -1.350162
     89          6           0        5.888977   -0.599765   -0.170177
     90          1           0        6.591797    0.236092   -0.073646
     91          1           0        5.817720   -1.070330    0.822240
     92          6           0        4.512645   -0.065614   -0.577598
     93          1           0        4.582905    0.405272   -1.564908
     94          1           0        3.851471   -0.945202   -0.701872
     95          7           0        4.001457    0.938895    0.355113
     96          1           0        3.745610    0.518067    1.246606
     97          1           0        3.178111    1.389483   -0.037655
     98          8           0        9.240392   -5.300160   -0.942644
     99          1           0       10.122375   -5.604335   -0.654736
    100          1           0       -0.419116   -2.972693   -0.945631
 ---------------------------------------------------------------------
 Rotational constants (GHZ):           0.1041893           0.0282742           0.0260246
 Standard basis: 6-31G(d) (6D, 7F)
   824 basis functions,  1552 primitive gaussians,   824 cartesian basis functions
   185 alpha electrons      185 beta electrons
       nuclear repulsion energy      6938.3995751428 Hartrees.
 NAtoms=  100 NActive=  100 NUniq=  100 SFac= 1.00D+00 NAtFMM=   60 NAOKFM=T Big=T
 Integral buffers will be    131072 words long.
 Raffenetti 2 integral format.
 Two-electron integral symmetry is turned off.
 Nuclear repulsion after empirical dispersion term =     6938.2484180053 Hartrees.
 One-electron integrals computed using PRISM.
 NBasis=   824 RedAO= T EigKep=  1.66D-03  NBF=   824
 NBsUse=   824 1.00D-06 EigRej= -1.00D+00 NBFU=   824
 Initial guess from the checkpoint file:  "conf-472.chk"
 B after Tr=     0.000000    0.000000    0.000000
         Rot=    1.000000    0.000000    0.000000    0.000000 Ang=   0.00 deg.
 Requested convergence on RMS density matrix=1.00D-08 within 128 cycles.
 Requested convergence on MAX density matrix=1.00D-06.
 Requested convergence on             energy=1.00D-06.
 No special actions if energy rises.
 SCF Done:  E(RB3LYP) =  -2418.59997966     A.U. after    1 cycles
            NFock=  1  Conv=0.63D-08     -V/T= 2.0093

 **********************************************************************

            Population analysis using the SCF Density.

 **********************************************************************

 Alpha  occ. eigenvalues --  -19.32607 -19.28128 -19.26365 -19.23677 -19.23406
 Alpha  occ. eigenvalues --  -19.23158 -19.22838 -19.22079 -19.21921 -19.21811
 Alpha  occ. eigenvalues --  -19.20654 -14.51338 -14.47460 -14.47140 -14.46860
 Alpha  occ. eigenvalues --  -14.46360 -14.45142 -14.44215 -14.41806 -14.38269
 Alpha  occ. eigenvalues --  -10.45300 -10.40265 -10.40202 -10.39846 -10.39709
 Alpha  occ. eigenvalues --  -10.39248 -10.38940 -10.37410 -10.36578 -10.36412
 Alpha  occ. eigenvalues --  -10.35726 -10.34595 -10.34246 -10.33473 -10.33001
 Alpha  occ. eigenvalues --  -10.32558 -10.32418 -10.29347 -10.29037 -10.28719
 Alpha  occ. eigenvalues --  -10.28048 -10.27683 -10.27533 -10.27407 -10.26839
 Alpha  occ. eigenvalues --  -10.26072 -10.25075 -10.24649  -1.23482  -1.18701
 Alpha  occ. eigenvalues --   -1.15719  -1.15360  -1.14489  -1.13900  -1.13609
 Alpha  occ. eigenvalues --   -1.12530  -1.12395  -1.11746  -1.09758  -1.08529
 Alpha  occ. eigenvalues --   -1.03983  -1.03447  -1.03383  -1.02649  -1.01935
 Alpha  occ. eigenvalues --   -1.00278  -0.98129  -0.94873  -0.91492  -0.90672
 Alpha  occ. eigenvalues --   -0.88853  -0.88215  -0.87079  -0.85730  -0.84519
 Alpha  occ. eigenvalues --   -0.83276  -0.82777  -0.81651  -0.80645  -0.77566
 Alpha  occ. eigenvalues --   -0.76876  -0.76053  -0.75703  -0.74797  -0.72722
 Alpha  occ. eigenvalues --   -0.72425  -0.70795  -0.70442  -0.70161  -0.69319
 Alpha  occ. eigenvalues --   -0.68381  -0.68022  -0.67956  -0.67628  -0.67298
 Alpha  occ. eigenvalues --   -0.66904  -0.66486  -0.65518  -0.64711  -0.63888
 Alpha  occ. eigenvalues --   -0.63618  -0.62303  -0.62152  -0.61492  -0.61163
 Alpha  occ. eigenvalues --   -0.60661  -0.59668  -0.59474  -0.58854  -0.58689
 Alpha  occ. eigenvalues --   -0.57106  -0.56985  -0.56756  -0.56246  -0.56000
 Alpha  occ. eigenvalues --   -0.55782  -0.55699  -0.55501  -0.55447  -0.55107
 Alpha  occ. eigenvalues --   -0.54886  -0.54529  -0.54276  -0.54176  -0.53306
 Alpha  occ. eigenvalues --   -0.53083  -0.52701  -0.52444  -0.52090  -0.51931
 Alpha  occ. eigenvalues --   -0.51695  -0.51417  -0.51257  -0.51129  -0.50946
 Alpha  occ. eigenvalues --   -0.50607  -0.50280  -0.50100  -0.49357  -0.49187
 Alpha  occ. eigenvalues --   -0.49025  -0.48810  -0.48686  -0.48510  -0.48363
 Alpha  occ. eigenvalues --   -0.47939  -0.47877  -0.47588  -0.47386  -0.47144
 Alpha  occ. eigenvalues --   -0.46508  -0.46163  -0.45858  -0.45646  -0.45125
 Alpha  occ. eigenvalues --   -0.44961  -0.44550  -0.43929  -0.43095  -0.42614
 Alpha  occ. eigenvalues --   -0.42412  -0.42368  -0.42029  -0.41861  -0.41307
 Alpha  occ. eigenvalues --   -0.40524  -0.39781  -0.39611  -0.39605  -0.38992
 Alpha  occ. eigenvalues --   -0.37928  -0.37369  -0.37263  -0.36856  -0.36759
 Alpha  occ. eigenvalues --   -0.36657  -0.36528  -0.36228  -0.35848  -0.35797
 Alpha  occ. eigenvalues --   -0.35325  -0.34826  -0.33993  -0.33274  -0.30198
 Alpha virt. eigenvalues --   -0.14580  -0.10060  -0.09894  -0.08494  -0.08132
 Alpha virt. eigenvalues --   -0.07693  -0.06970  -0.06054  -0.04271  -0.03414
 Alpha virt. eigenvalues --   -0.02982  -0.02311  -0.01292  -0.00309  -0.00023
 Alpha virt. eigenvalues --    0.00613   0.00652   0.01372   0.01638   0.01687
 Alpha virt. eigenvalues --    0.02509   0.02695   0.02795   0.03053   0.03413
 Alpha virt. eigenvalues --    0.03655   0.04129   0.04503   0.04714   0.04967
 Alpha virt. eigenvalues --    0.05166   0.05206   0.05699   0.05879   0.05956
 Alpha virt. eigenvalues --    0.06200   0.06545   0.06607   0.06921   0.07175
 Alpha virt. eigenvalues --    0.07541   0.07710   0.07961   0.08041   0.08327
 Alpha virt. eigenvalues --    0.08585   0.09010   0.09185   0.09305   0.09641
 Alpha virt. eigenvalues --    0.09930   0.10105   0.10347   0.10451   0.10899
 Alpha virt. eigenvalues --    0.10961   0.11234   0.11347   0.11599   0.11836
 Alpha virt. eigenvalues --    0.12207   0.12524   0.12591   0.12791   0.13159
 Alpha virt. eigenvalues --    0.13269   0.13433   0.13810   0.14041   0.14277
 Alpha virt. eigenvalues --    0.14563   0.14919   0.15499   0.15794   0.16038
 Alpha virt. eigenvalues --    0.16332   0.16602   0.16833   0.17005   0.17275
 Alpha virt. eigenvalues --    0.17713   0.18146   0.18453   0.18865   0.19180
 Alpha virt. eigenvalues --    0.19298   0.20154   0.20642   0.21121   0.22141
 Alpha virt. eigenvalues --    0.23341   0.24842   0.25081   0.25909   0.26494
 Alpha virt. eigenvalues --    0.26804   0.27277   0.28009   0.28591   0.28864
 Alpha virt. eigenvalues --    0.29893   0.30810   0.31098   0.31231   0.31508
 Alpha virt. eigenvalues --    0.32903   0.32947   0.37303   0.37775   0.39322
 Alpha virt. eigenvalues --    0.40026   0.40770   0.41599   0.41841   0.42068
 Alpha virt. eigenvalues --    0.42463   0.42648   0.42832   0.43377   0.43541
 Alpha virt. eigenvalues --    0.44072   0.44228   0.44662   0.45240   0.45543
 Alpha virt. eigenvalues --    0.45805   0.46025   0.46580   0.46671   0.46898
 Alpha virt. eigenvalues --    0.47527   0.47888   0.48081   0.48273   0.48668
 Alpha virt. eigenvalues --    0.48848   0.49383   0.49706   0.49858   0.50268
 Alpha virt. eigenvalues --    0.50605   0.51253   0.51831   0.51911   0.52305
 Alpha virt. eigenvalues --    0.52504   0.52755   0.53301   0.53644   0.54036
 Alpha virt. eigenvalues --    0.54454   0.54701   0.55145   0.55553   0.55722
 Alpha virt. eigenvalues --    0.56284   0.56355   0.56941   0.57577   0.57794
 Alpha virt. eigenvalues --    0.57928   0.58362   0.58621   0.58742   0.58939
 Alpha virt. eigenvalues --    0.59047   0.59937   0.60036   0.60368   0.61365
 Alpha virt. eigenvalues --    0.61700   0.61909   0.62461   0.62701   0.63565
 Alpha virt. eigenvalues --    0.64248   0.64389   0.64650   0.65279   0.65921
 Alpha virt. eigenvalues --    0.66029   0.66157   0.66464   0.67528   0.67679
 Alpha virt. eigenvalues --    0.68024   0.68403   0.68811   0.69029   0.69451
 Alpha virt. eigenvalues --    0.70072   0.70456   0.70581   0.71480   0.71615
 Alpha virt. eigenvalues --    0.71940   0.72497   0.73028   0.73056   0.73484
 Alpha virt. eigenvalues --    0.73614   0.73829   0.74196   0.74251   0.74739
 Alpha virt. eigenvalues --    0.75486   0.75524   0.76195   0.76522   0.76748
 Alpha virt. eigenvalues --    0.77294   0.77560   0.77778   0.78129   0.78210
 Alpha virt. eigenvalues --    0.78445   0.78630   0.78980   0.79354   0.79435
 Alpha virt. eigenvalues --    0.80044   0.80206   0.80602   0.80870   0.81171
 Alpha virt. eigenvalues --    0.81459   0.81778   0.82183   0.82621   0.82839
 Alpha virt. eigenvalues --    0.83102   0.83235   0.83331   0.83699   0.84047
 Alpha virt. eigenvalues --    0.84067   0.84602   0.84824   0.85164   0.85578
 Alpha virt. eigenvalues --    0.85862   0.86309   0.86585   0.87053   0.87218
 Alpha virt. eigenvalues --    0.87659   0.88027   0.88276   0.89010   0.89056
 Alpha virt. eigenvalues --    0.89346   0.89660   0.90126   0.90254   0.90634
 Alpha virt. eigenvalues --    0.90700   0.91150   0.91465   0.92212   0.92639
 Alpha virt. eigenvalues --    0.93634   0.94344   0.95024   0.95650   0.96154
 Alpha virt. eigenvalues --    0.96546   0.96889   0.97100   0.97684   0.98032
 Alpha virt. eigenvalues --    0.98652   0.98898   0.99311   0.99562   0.99872
 Alpha virt. eigenvalues --    1.00617   1.01066   1.01616   1.02014   1.03167
 Alpha virt. eigenvalues --    1.03338   1.03582   1.04490   1.04563   1.04866
 Alpha virt. eigenvalues --    1.05839   1.06508   1.06929   1.08212   1.08585
 Alpha virt. eigenvalues --    1.09038   1.09337   1.10198   1.11026   1.11769
 Alpha virt. eigenvalues --    1.13093   1.13579   1.13679   1.14550   1.14918
 Alpha virt. eigenvalues --    1.15461   1.16062   1.16730   1.17787   1.18471
 Alpha virt. eigenvalues --    1.19209   1.20176   1.21252   1.21521   1.21964
 Alpha virt. eigenvalues --    1.22489   1.23305   1.23879   1.24774   1.25460
 Alpha virt. eigenvalues --    1.26185   1.26514   1.27946   1.28072   1.28482
 Alpha virt. eigenvalues --    1.28633   1.29184   1.29971   1.30725   1.31606
 Alpha virt. eigenvalues --    1.31896   1.32263   1.33037   1.33207   1.33465
 Alpha virt. eigenvalues --    1.34198   1.35136   1.35449   1.36606   1.37297
 Alpha virt. eigenvalues --    1.38093   1.39102   1.39583   1.40291   1.40669
 Alpha virt. eigenvalues --    1.41167   1.42453   1.42756   1.43401   1.44295
 Alpha virt. eigenvalues --    1.44333   1.45045   1.46421   1.47235   1.47363
 Alpha virt. eigenvalues --    1.48050   1.49679   1.50130   1.50434   1.51287
 Alpha virt. eigenvalues --    1.51565   1.52181   1.52830   1.53385   1.53987
 Alpha virt. eigenvalues --    1.54188   1.54578   1.55001   1.55820   1.56390
 Alpha virt. eigenvalues --    1.57250   1.57903   1.58733   1.59817   1.60674
 Alpha virt. eigenvalues --    1.60801   1.61146   1.61965   1.62476   1.63863
 Alpha virt. eigenvalues --    1.64179   1.64848   1.64933   1.66048   1.66185
 Alpha virt. eigenvalues --    1.67013   1.67238   1.67707   1.67950   1.68217
 Alpha virt. eigenvalues --    1.68856   1.69331   1.69952   1.70317   1.70512
 Alpha virt. eigenvalues --    1.70600   1.71403   1.71933   1.71999   1.72245
 Alpha virt. eigenvalues --    1.72421   1.73119   1.73440   1.73602   1.74107
 Alpha virt. eigenvalues --    1.74620   1.74994   1.75141   1.75781   1.76637
 Alpha virt. eigenvalues --    1.76948   1.77524   1.77742   1.78201   1.78690
 Alpha virt. eigenvalues --    1.79051   1.79537   1.80679   1.80956   1.81526
 Alpha virt. eigenvalues --    1.82049   1.82312   1.82433   1.82509   1.82847
 Alpha virt. eigenvalues --    1.83725   1.84469   1.84575   1.84980   1.85322
 Alpha virt. eigenvalues --    1.86228   1.86643   1.87286   1.87688   1.88163
 Alpha virt. eigenvalues --    1.88444   1.88571   1.88818   1.89431   1.89584
 Alpha virt. eigenvalues --    1.90195   1.90772   1.91258   1.91498   1.92035
 Alpha virt. eigenvalues --    1.92416   1.92992   1.93448   1.93759   1.94033
 Alpha virt. eigenvalues --    1.94262   1.94702   1.95584   1.95834   1.96286
 Alpha virt. eigenvalues --    1.96849   1.97124   1.97574   1.98198   1.98885
 Alpha virt. eigenvalues --    1.99583   1.99933   2.00474   2.01154   2.02082
 Alpha virt. eigenvalues --    2.02817   2.03555   2.03781   2.04611   2.05147
 Alpha virt. eigenvalues --    2.05191   2.05518   2.05752   2.05990   2.06309
 Alpha virt. eigenvalues --    2.07338   2.07981   2.09041   2.09503   2.10030
 Alpha virt. eigenvalues --    2.11626   2.12346   2.12915   2.13682   2.13799
 Alpha virt. eigenvalues --    2.15548   2.16015   2.17542   2.18486   2.18833
 Alpha virt. eigenvalues --    2.19668   2.20129   2.21713   2.22420   2.22808
 Alpha virt. eigenvalues --    2.23048   2.23649   2.23852   2.24741   2.25272
 Alpha virt. eigenvalues --    2.25379   2.25857   2.26371   2.26932   2.27335
 Alpha virt. eigenvalues --    2.27632   2.28506   2.29084   2.30232   2.30379
 Alpha virt. eigenvalues --    2.30681   2.32124   2.32654   2.32815   2.33167
 Alpha virt. eigenvalues --    2.33695   2.34547   2.35007   2.35396   2.36403
 Alpha virt. eigenvalues --    2.36880   2.37196   2.37821   2.38182   2.38445
 Alpha virt. eigenvalues --    2.39761   2.39871   2.40496   2.42546   2.42907
 Alpha virt. eigenvalues --    2.43385   2.44217   2.44683   2.46563   2.47210
 Alpha virt. eigenvalues --    2.49363   2.49612   2.50244   2.50512   2.51264
 Alpha virt. eigenvalues --    2.52012   2.52519   2.53357   2.53610   2.54398
 Alpha virt. eigenvalues --    2.54590   2.55677   2.55781   2.56587   2.57320
 Alpha virt. eigenvalues --    2.57581   2.58134   2.60037   2.60729   2.61577
 Alpha virt. eigenvalues --    2.61915   2.63005   2.63384   2.64087   2.65403
 Alpha virt. eigenvalues --    2.65860   2.67133   2.69416   2.70017   2.70251
 Alpha virt. eigenvalues --    2.72466   2.73146   2.74072   2.75133   2.75503
 Alpha virt. eigenvalues --    2.76296   2.77599   2.78295   2.78617   2.79834
 Alpha virt. eigenvalues --    2.81689   2.83988   2.84794   2.87125   2.88363
 Alpha virt. eigenvalues --    2.90295   2.90652   2.91510   2.93507   2.94553
 Alpha virt. eigenvalues --    2.94687   2.94957   2.97163   2.98963   3.01240
 Alpha virt. eigenvalues --    3.03513   3.05375   3.05449   3.05927   3.08494
 Alpha virt. eigenvalues --    3.08848   3.74263   3.76955   3.77919   3.78201
 Alpha virt. eigenvalues --    3.79247   3.86254   3.87630   3.90613   3.94232
 Alpha virt. eigenvalues --    3.94611   3.98330   4.01183   4.02794   4.02917
 Alpha virt. eigenvalues --    4.04496   4.06868   4.07818   4.09991   4.10323
 Alpha virt. eigenvalues --    4.11820   4.13328   4.15528   4.15694   4.17375
 Alpha virt. eigenvalues --    4.19879   4.22440   4.23598   4.24476   4.25715
 Alpha virt. eigenvalues --    4.27922   4.28108   4.30207   4.31438   4.35274
 Alpha virt. eigenvalues --    4.36114   4.38986   4.41185   4.41756   4.42944
 Alpha virt. eigenvalues --    4.45345   4.48863   4.50533   4.50866   4.54618
 Alpha virt. eigenvalues --    4.57213   4.60680   4.61294   4.62509
          Condensed to atoms (all electrons):
 Mulliken charges:
               1
     1  N   -0.730266
     2  H    0.337437
     3  H    0.327608
     4  C   -0.112489
     5  H    0.154014
     6  C    0.621800
     7  C   -0.373251
     8  H    0.198350
     9  H    0.196566
    10  O   -0.500968
    11  C    0.610283
    12  N   -0.722020
    13  H    0.353550
    14  H    0.394832
    15  O   -0.580598
    16  N   -0.598781
    17  H    0.333010
    18  C   -0.091692
    19  H    0.223400
    20  C    0.636562
    21  C   -0.095965
    22  H    0.168708
    23  O   -0.549687
    24  C   -0.293850
    25  H    0.134155
    26  H    0.167708
    27  C   -0.476773
    28  H    0.140388
    29  H    0.177345
    30  H    0.143820
    31  C   -0.460695
    32  H    0.170441
    33  H    0.146256
    34  H    0.169467
    35  N   -0.615363
    36  H    0.359984
    37  C   -0.055755
    38  H    0.195694
    39  C    0.619560
    40  C   -0.472886
    41  H    0.185716
    42  H    0.171345
    43  H    0.177980
    44  O   -0.526827
    45  N   -0.621517
    46  H    0.404893
    47  C   -0.076056
    48  H    0.205726
    49  C    0.683864
    50  C    0.097731
    51  H    0.171210
    52  O   -0.572374
    53  C   -0.501057
    54  H    0.164541
    55  H    0.187484
    56  H    0.160714
    57  O   -0.719228
    58  H    0.479442
    59  N   -0.558124
    60  H    0.421640
    61  C   -0.102965
    62  H    0.207115
    63  C    0.624843
    64  C   -0.073812
    65  H    0.181683
    66  H    0.158450
    67  O   -0.507383
    68  O   -0.649122
    69  H    0.469193
    70  N   -0.559095
    71  H    0.346238
    72  C   -0.252314
    73  H    0.201726
    74  H    0.205278
    75  C    0.641463
    76  O   -0.565196
    77  N   -0.586437
    78  H    0.356855
    79  C   -0.066323
    80  H    0.214900
    81  C    0.595073
    82  C   -0.266914
    83  H    0.142517
    84  H    0.180555
    85  O   -0.438960
    86  C   -0.292127
    87  H    0.152136
    88  H    0.156268
    89  C   -0.249239
    90  H    0.159625
    91  H    0.123355
    92  C   -0.156437
    93  H    0.171533
    94  H    0.093357
    95  N   -0.728700
    96  H    0.285399
    97  H    0.313449
    98  O   -0.583843
    99  H    0.428136
   100  H    0.482722
 Sum of Mulliken charges =   1.00000
 Mulliken charges with hydrogens summed into heavy atoms:
               1
     1  N   -0.065220
     4  C    0.041524
     6  C    0.621800
     7  C    0.021665
    10  O   -0.500968
    11  C    0.610283
    12  N    0.026362
    15  O   -0.580598
    16  N   -0.265771
    18  C    0.131708
    20  C    0.636562
    21  C    0.072743
    23  O   -0.549687
    24  C    0.008013
    27  C   -0.015220
    31  C    0.025468
    35  N   -0.255378
    37  C    0.139939
    39  C    0.619560
    40  C    0.062155
    44  O   -0.526827
    45  N   -0.216624
    47  C    0.129670
    49  C    0.683864
    50  C    0.268941
    52  O   -0.089652
    53  C    0.011682
    57  O   -0.239786
    59  N   -0.136483
    61  C    0.104149
    63  C    0.624843
    64  C    0.266321
    67  O   -0.507383
    68  O   -0.179929
    70  N   -0.212856
    72  C    0.154691
    75  C    0.641463
    76  O   -0.565196
    77  N   -0.229581
    79  C    0.148576
    81  C    0.595073
    82  C    0.056157
    85  O   -0.438960
    86  C    0.016277
    89  C    0.033740
    92  C    0.108452
    95  N   -0.129852
    98  O   -0.155707
 Electronic spatial extent (au):  <R**2>=          44635.3975
 Charge=              1.0000 electrons
 Dipole moment (field-independent basis, Debye):
    X=              2.8104    Y=             -7.2295    Z=              0.1725  Tot=              7.7585
 Quadrupole moment (field-independent basis, Debye-Ang):
   XX=           -231.9537   YY=           -194.0444   ZZ=           -221.8826
   XY=            -60.6882   XZ=            -33.7010   YZ=             26.4872
 Traceless Quadrupole moment (field-independent basis, Debye-Ang):
   XX=            -15.9935   YY=             21.9158   ZZ=             -5.9224
   XY=            -60.6882   XZ=            -33.7010   YZ=             26.4872
 Octapole moment (field-independent basis, Debye-Ang**2):
  XXX=          -1058.0843  YYY=            359.0723  ZZZ=            281.9272  XYY=            -62.6404
  XXY=           -342.2970  XXZ=            223.9546  XZZ=           -458.1709  YZZ=             48.0540
  YYZ=             -7.5452  XYZ=            139.8249
 Hexadecapole moment (field-independent basis, Debye-Ang**3):
 XXXX=         -30954.0163 YYYY=         -12522.8369 ZZZZ=          -7945.4141 XXXY=           3453.4404
 XXXZ=           5646.2675 YYYX=           4087.2291 YYYZ=          -1791.1649 ZZZX=           4856.2412
 ZZZY=          -2101.4089 XXYY=          -4855.0464 XXZZ=          -6303.1473 YYZZ=          -3224.3446
 XXYZ=           -685.5051 YYXZ=           1076.2538 ZZXY=           1859.1727
 N-N= 6.938248418005D+03 E-N=-1.948372566157D+04  KE= 2.396395511459D+03
 Unable to Open any file for archive entry.
 1\1\GINC-AMR-141\SP\RB3LYP\6-31G(d)\C28H52N9O11(1+)\KENGMITH\06-Jun-20
 22\0\\# B3LYP/6-31G* empiricaldispersion=gd3 guess=read geom=check nos
 ymm integral(ultrafinegrid)\\Candidate Structure: Conf:472 Charge calc
  in gas phase\\1,1\N,0,-5.4372261805,-0.1796822409,3.6802708214\H,0,-6
 .1087417934,0.1308994302,2.9747551428\H,0,-5.6190581232,0.3972698516,4
 .5006922981\C,0,-4.0949471624,0.0992319319,3.1651852198\H,0,-3.3920601
 95,0.0429132422,4.0067550034\C,0,-3.9843186573,1.4807912157,2.49248654
 31\C,0,-3.703713318,-0.9706496517,2.1126577173\H,0,-4.5326654899,-1.06
 51155134,1.3994805896\H,0,-2.8400708265,-0.6490950834,1.5318160852\O,0
 ,-4.9467544618,2.0098468793,1.9599360777\C,0,-3.4013687713,-2.33838156
 37,2.7105077171\N,0,-4.2697312939,-2.7786157421,3.6293493629\H,0,-4.11
 48749079,-3.6784676556,4.0643851372\H,0,-5.033383362,-2.1606588883,3.9
 170835004\O,0,-2.4064458024,-3.0077557073,2.3635527295\N,0,-2.72831151
 27,2.0346486896,2.5341120237\H,0,-1.9921822383,1.4324818929,2.87940370
 21\C,0,-2.3141003019,3.0456503422,1.5702372278\H,0,-3.2316456236,3.579
 3868518,1.3013365523\C,0,-1.869340006,2.3048039712,0.2839801803\C,0,-1
 .3231191915,4.0369286146,2.240628747\H,0,-1.8441349865,4.3176793339,3.
 1646186701\O,0,-2.3396850824,1.1891758543,0.0268715281\C,0,-1.06778579
 72,5.3608929248,1.478434779\H,0,-0.2729331449,5.2402420577,0.724747896
 4\H,0,-0.6334204215,6.0591331717,2.2042480213\C,0,0.0060352381,3.37062
 00057,2.635345802\H,0,0.5458087387,2.9935861737,1.7580987294\H,0,0.658
 5754097,4.0904101946,3.1399318263\H,0,-0.138769542,2.5330579589,3.3276
 640485\C,0,-2.3022238145,6.0003669996,0.8352174755\H,0,-2.063658871,6.
 9956695571,0.4477867154\H,0,-2.6843804663,5.4054813711,-0.0028097134\H
 ,0,-3.1141132064,6.1120308502,1.5629382901\N,0,-0.9765753773,2.9000476
 185,-0.5394940824\H,0,-0.5864833921,3.7966968969,-0.2876392447\C,0,-0.
 5410808187,2.3121938259,-1.8155815669\H,0,-1.4266290707,1.8582544902,-
 2.2753373893\C,0,0.488942226,1.1849316489,-1.5584316363\C,0,0.04156104
 31,3.3936445388,-2.717381209\H,0,0.335066487,2.9647110746,-3.678152413
 4\H,0,-0.7002306359,4.1780922848,-2.8935050679\H,0,0.9398119656,3.8305
 579186,-2.2701891589\O,0,1.6726341103,1.2654411147,-1.8851167804\N,0,-
 0.0219860624,0.0913592301,-0.9323162804\H,0,-1.0086437386,0.0880033169
 ,-0.6631058548\C,0,0.847861027,-0.9752057673,-0.4761755791\H,0,1.82750
 97518,-0.554350308,-0.234977338\C,0,1.0241491782,-1.9719802451,-1.6180
 284181\C,0,0.2673919471,-1.6747839117,0.7654993968\H,0,0.953911759,-2.
 4914168343,1.0376769968\O,0,0.2619642245,-3.0187297017,-1.7083776206\C
 ,0,0.1146196608,-0.729275479,1.9514474544\H,0,1.0906092128,-0.34160562
 84,2.2626716402\H,0,-0.3326260554,-1.27084248,2.7897566697\H,0,-0.5313
 186558,0.1108341037,1.6850426879\O,0,-0.987034931,-2.211338411,0.33000
 40087\H,0,-1.5271285128,-2.570610016,1.110117538\N,0,1.9139041038,-1.7
 459656757,-2.5446095672\H,0,2.5316258151,-0.9408271217,-2.4237917485\C
 ,0,2.3447561948,-2.7269644703,-3.5346678243\H,0,1.4713067295,-3.206684
 9982,-3.9878731805\C,0,3.2152559437,-3.7704172651,-2.7846123473\C,0,3.
 1780424394,-1.9560640694,-4.5897820507\H,0,2.5246249957,-1.2274658129,
 -5.0813794805\H,0,3.5415519708,-2.6489361812,-5.3594127993\O,0,3.43365
 46288,-3.6731424045,-1.5846194788\O,0,4.2201125003,-1.2500337266,-3.96
 35588523\H,0,4.9813700623,-1.8620351364,-3.8647838312\N,0,3.7566232109
 ,-4.758457131,-3.5557270766\H,0,3.6967732962,-4.6464050299,-4.55942106
 96\C,0,4.9923048977,-5.3649983527,-3.0772936459\H,0,4.8195763905,-5.79
 64574547,-2.0891121223\H,0,5.2801367084,-6.1668249026,-3.7631198256\C,
 0,6.0943445795,-4.2845298429,-3.0403639441\O,0,6.0618718725,-3.3473133
 633,-3.8461072662\N,0,7.0413637833,-4.4243580382,-2.0968913116\H,0,6.9
 886995315,-5.1943143162,-1.4425783453\C,0,8.0786464999,-3.4178107117,-
 1.8670489071\H,0,8.2524523336,-2.9097277904,-2.8183316645\C,0,9.397279
 3532,-4.047778447,-1.4421408048\C,0,7.6547349272,-2.369468648,-0.80447
 1624\H,0,7.512573466,-2.8800102088,0.158350439\H,0,8.4922369543,-1.673
 6007805,-0.6795720024\O,0,10.4549255319,-3.470036786,-1.4831160863\C,0
 ,6.3761974684,-1.6262679289,-1.1983194137\H,0,6.5324227918,-1.12736993
 9,-2.1633006754\H,0,5.5743845883,-2.3562528679,-1.3501619737\C,0,5.888
 976594,-0.5997647417,-0.1701773491\H,0,6.591796514,0.2360922793,-0.073
 6456617\H,0,5.8177201628,-1.0703300372,0.8222395709\C,0,4.5126452426,-
 0.0656135053,-0.5775976874\H,0,4.582905298,0.4052716352,-1.5649079358\
 H,0,3.8514714577,-0.9452015228,-0.7018717192\N,0,4.0014572057,0.938895
 4014,0.3551127906\H,0,3.7456104604,0.5180669902,1.2466063136\H,0,3.178
 1110213,1.3894825839,-0.0376552261\O,0,9.2403918531,-5.3001599611,-0.9
 426437481\H,0,10.1223747807,-5.6043348454,-0.6547360151\H,0,-0.4191156
 766,-2.9726929449,-0.9456312814\\Version=ES64L-G16RevC.01\HF=-2418.599
 9797\RMSD=6.350e-09\Dipole=-1.5537173,-1.524697,0.7717305\Quadrupole=-
 11.8907497,16.2938899,-4.4031402,-45.1201943,-25.0559011,19.6925819\PG
 =C01 [X(C28H52N9O11)]\\@
 The archive entry for this job was punched.


 We're simply so accustomed to the marvels of everyday thought
 that we never wonder about it.
 -- Marvin Minsky in "Why people think computers are smart"
 Job cpu time:       0 days  0 hours  2 minutes 39.4 seconds.
 Elapsed time:       0 days  0 hours  0 minutes 41.0 seconds.
 File lengths (MBytes):  RWF=    464 Int=      0 D2E=      0 Chk=     72 Scr=     16
 Normal termination of Gaussian 16 at Mon Jun  6 07:10:57 2022.
