 Entering Gaussian System, Link 0=/opt/software/Gaussian/g16-AVX-C.01/g16/g16
 Input=charge-conf-90.com
 Output=charge-conf-90.log
 Initial command:
 /opt/software/Gaussian/g16-AVX-C.01/g16/l1.exe "/mnt/gs18/scratch/users/kengmith/Gau-34488.inp" -scrdir="/mnt/gs18/scratch/users/kengmith/"
 Entering Link 1 = /opt/software/Gaussian/g16-AVX-C.01/g16/l1.exe PID=     34507.
  
 Copyright (c) 1988-2019, Gaussian, Inc.  All Rights Reserved.
  
 This is part of the Gaussian(R) 16 program.  It is based on
 the Gaussian(R) 09 system (copyright 2009, Gaussian, Inc.),
 the Gaussian(R) 03 system (copyright 2003, Gaussian, Inc.),
 the Gaussian(R) 98 system (copyright 1998, Gaussian, Inc.),
 the Gaussian(R) 94 system (copyright 1995, Gaussian, Inc.),
 the Gaussian 92(TM) system (copyright 1992, Gaussian, Inc.),
 the Gaussian 90(TM) system (copyright 1990, Gaussian, Inc.),
 the Gaussian 88(TM) system (copyright 1988, Gaussian, Inc.),
 the Gaussian 86(TM) system (copyright 1986, Carnegie Mellon
 University), and the Gaussian 82(TM) system (copyright 1983,
 Carnegie Mellon University). Gaussian is a federally registered
 trademark of Gaussian, Inc.
  
 This software contains proprietary and confidential information,
 including trade secrets, belonging to Gaussian, Inc.
  
 This software is provided under written license and may be
 used, copied, transmitted, or stored only in accord with that
 written license.
  
 The following legend is applicable only to US Government
 contracts under FAR:
  
                    RESTRICTED RIGHTS LEGEND
  
 Use, reproduction and disclosure by the US Government is
 subject to restrictions as set forth in subparagraphs (a)
 and (c) of the Commercial Computer Software - Restricted
 Rights clause in FAR 52.227-19.
  
 Gaussian, Inc.
 340 Quinnipiac St., Bldg. 40, Wallingford CT 06492
  
  
 ---------------------------------------------------------------
 Warning -- This program may not be used in any manner that
 competes with the business of Gaussian, Inc. or will provide
 assistance to any competitor of Gaussian, Inc.  The licensee
 of this program is prohibited from giving any competitor of
 Gaussian, Inc. access to this program.  By using this program,
 the user acknowledges that Gaussian, Inc. is engaged in the
 business of creating and licensing software in the field of
 computational chemistry and represents and warrants to the
 licensee that it is not a competitor of Gaussian, Inc. and that
 it will not use this program in any manner prohibited above.
 ---------------------------------------------------------------
  

 Cite this work as:
 Gaussian 16, Revision C.01,
 M. J. Frisch, G. W. Trucks, H. B. Schlegel, G. E. Scuseria, 
 M. A. Robb, J. R. Cheeseman, G. Scalmani, V. Barone, 
 G. A. Petersson, H. Nakatsuji, X. Li, M. Caricato, A. V. Marenich, 
 J. Bloino, B. G. Janesko, R. Gomperts, B. Mennucci, H. P. Hratchian, 
 J. V. Ortiz, A. F. Izmaylov, J. L. Sonnenberg, D. Williams-Young, 
 F. Ding, F. Lipparini, F. Egidi, J. Goings, B. Peng, A. Petrone, 
 T. Henderson, D. Ranasinghe, V. G. Zakrzewski, J. Gao, N. Rega, 
 G. Zheng, W. Liang, M. Hada, M. Ehara, K. Toyota, R. Fukuda, 
 J. Hasegawa, M. Ishida, T. Nakajima, Y. Honda, O. Kitao, H. Nakai, 
 T. Vreven, K. Throssell, J. A. Montgomery, Jr., J. E. Peralta, 
 F. Ogliaro, M. J. Bearpark, J. J. Heyd, E. N. Brothers, K. N. Kudin, 
 V. N. Staroverov, T. A. Keith, R. Kobayashi, J. Normand, 
 K. Raghavachari, A. P. Rendell, J. C. Burant, S. S. Iyengar, 
 J. Tomasi, M. Cossi, J. M. Millam, M. Klene, C. Adamo, R. Cammi, 
 J. W. Ochterski, R. L. Martin, K. Morokuma, O. Farkas, 
 J. B. Foresman, and D. J. Fox, Gaussian, Inc., Wallingford CT, 2019.
 
 ******************************************
 Gaussian 16:  ES64L-G16RevC.01  3-Jul-2019
                 9-Jul-2022 
 ******************************************
 %mem=8gb
 %nproc=4
 Will use up to    4 processors via shared memory.
 %chk=conf-90.chk
 -------------------------------------------------------------------
 # B3LYP/6-31G* guess=read geom=check nosymm integral(ultrafinegrid)
 -------------------------------------------------------------------
 1/29=2,38=1,172=1/1;
 2/12=2,15=1,40=1/2;
 3/5=1,6=6,7=1,11=2,14=-4,25=1,30=1,74=-5,75=-5,116=-2/1,2,3;
 4/5=1/1;
 5/5=2,38=6/2;
 6/7=2,8=2,9=2,10=2,28=1/1;
 99/5=1,9=1/99;
 -----------------------------------------------------
 Candidate Structure: Conf:90 Charge calc in gas phase
 -----------------------------------------------------
 Structure from the checkpoint file:  "conf-90.chk"
 Charge =  1 Multiplicity = 1
 Redundant internal coordinates found in file.  (old form).
 N,0,-1.0977142955,-0.2589724218,-1.3604853985
 H,0,-1.850498853,-0.8685318839,-1.6871942274
 H,0,-0.5229388516,-0.7623260793,-0.6127252499
 H,0,-1.4797546916,0.6112374774,-0.9537933604
 C,0,-0.1554975224,0.1488712237,-2.4485140337
 H,0,0.6297201241,-0.6034524198,-2.5541871268
 H,0,-0.7077600853,0.2603594452,-3.3854364663
 C,0,0.424250806,1.5021459039,-2.0202025891
 O,0,-0.1571273347,2.1568670776,-1.1443283431
 N,0,1.5207606698,1.9019811355,-2.6859111015
 H,0,2.1159717031,1.1682289802,-3.0751261085
 C,0,2.1419668527,3.1946271771,-2.3897106128
 H,0,1.3496298778,3.9139088108,-2.1749089835
 H,0,2.6918434116,3.5226061854,-3.2743177599
 C,0,3.1358983072,3.0192711061,-1.2352348408
 O,0,4.1818894861,2.4005150123,-1.4151348066
 N,0,2.7454397409,3.4872760503,-0.0216599626
 H,0,1.864824236,3.9810569987,0.0448523793
 C,0,3.492971969,3.1935458476,1.1956564383
 H,0,4.5649409836,3.1780204341,0.9751524677
 H,0,3.3189407194,3.9890641307,1.9260683852
 C,0,3.1399691357,1.8487271257,1.8541730199
 O,0,3.8361717386,1.4119972285,2.7685634101
 N,0,2.0343983905,1.2229276675,1.3706026524
 H,0,1.504710364,1.6890836799,0.6444066547
 C,0,1.5866934946,-0.0944559143,1.7957382733
 H,0,2.1576938754,-0.3943620298,2.6750352404
 H,0,0.5355690867,-0.067491124,2.0921599221
 C,0,1.7298177771,-1.1024164169,0.6506457488
 O,0,0.7332443596,-1.5104116038,0.0152207447
 N,0,2.9735668138,-1.4937356302,0.3507748076
 H,0,3.7800874446,-1.1336416085,0.8722497264
 C,0,3.291562604,-2.2741219987,-0.8401976542
 H,0,2.4013543525,-2.824569753,-1.1450589774
 H,0,4.0857225062,-2.98289296,-0.5910055885
 C,0,3.70891227,-1.3270646385,-1.9773685215
 O,0,2.8606170932,-0.6765144776,-2.6068424711
 N,0,5.033489163,-1.2440936019,-2.1895842091
 H,0,5.6708396241,-1.729538976,-1.5667243867
 C,0,5.6608930291,-0.2364470374,-3.0356783082
 H,0,6.0425418237,-0.6895828537,-3.9585539575
 H,0,4.913700595,0.514552687,-3.2909844062
 C,0,6.8405756495,0.3367835391,-2.2459979886
 O,0,7.6798067867,-0.4269645638,-1.7624815718
 N,0,6.8677871817,1.6831542744,-2.1208902777
 H,0,5.9845425179,2.16833072,-2.2465358646
 C,0,7.833685227,2.3316499111,-1.23608098
 H,0,8.8105875427,1.8686762637,-1.3947281648
 H,0,7.8884510981,3.3904246196,-1.4910983184
 C,0,7.3953325685,2.2187259414,0.2337958917
 O,0,6.8398417281,3.14428094,0.8191613876
 N,0,7.6641396303,1.0090518326,0.8014174324
 H,0,7.979436834,0.2647965596,0.1839693417
 C,0,7.2273460848,0.6934949485,2.1367289172
 H,0,6.7108215481,1.5799790191,2.5221107759
 H,0,8.0872303759,0.4949679935,2.7908821864
 C,0,6.2462499265,-0.4802355341,2.1967122717
 O,0,5.5758377903,-0.83811016,1.2221774702
 N,0,6.1704438765,-1.061099763,3.4174007145
 H,0,6.7823555699,-0.713825895,4.1449764725
 C,0,5.278265345,-2.1522698349,3.770624784
 H,0,5.844059051,-3.0478219828,4.0444241097
 H,0,4.6863525967,-2.393169165,2.8835150138
 C,0,4.3415093731,-1.8531044976,4.9498237413
 O,0,3.9985350049,-2.748242045,5.7077322189
 N,0,3.9444687368,-0.5538009441,5.0963412761
 H,0,4.0506955026,0.1034739512,4.3274239929
 C,0,3.0043259182,-0.2387376171,6.1450012959
 H,0,2.9891159681,0.8440717081,6.3085410524
 H,0,3.3185619064,-0.7126718578,7.07794969
 C,0,1.5822483725,-0.6971661,5.8348643734
 O,0,1.1640034063,-1.0216337816,4.7437757432
 O,0,0.820424331,-0.6617550109,6.9424728135
 H,0,-0.0749024139,-0.9564536954,6.6894657899
 Recover connectivity data from disk.
                           ----------------------------
                           !    Current Parameters    !
                           ! (Angstroms and Degrees)  !
 --------------------------                            --------------------------
 ! Name  Definition              Value                                          !
 --------------------------------------------------------------------------------
 ! R1    R(1,2)                  1.0222                                         !
 ! R2    R(1,3)                  1.0691                                         !
 ! R3    R(1,4)                  1.0337                                         !
 ! R4    R(1,5)                  1.496                                          !
 ! R5    R(5,6)                  1.0926                                         !
 ! R6    R(5,7)                  1.0933                                         !
 ! R7    R(5,8)                  1.5333                                         !
 ! R8    R(8,9)                  1.2385                                         !
 ! R9    R(8,10)                 1.3436                                         !
 ! R10   R(10,11)                1.0218                                         !
 ! R11   R(10,12)                1.4644                                         !
 ! R12   R(12,13)                1.0915                                         !
 ! R13   R(12,14)                1.092                                          !
 ! R14   R(12,15)                1.5334                                         !
 ! R15   R(15,16)                1.2285                                         !
 ! R16   R(15,17)                1.358                                          !
 ! R17   R(17,18)                1.0118                                         !
 ! R18   R(17,19)                1.4584                                         !
 ! R19   R(19,20)                1.0945                                         !
 ! R20   R(19,21)                1.0939                                         !
 ! R21   R(19,22)                1.5384                                         !
 ! R22   R(22,23)                1.2294                                         !
 ! R23   R(22,24)                1.3593                                         !
 ! R24   R(24,25)                1.0125                                         !
 ! R25   R(24,26)                1.4549                                         !
 ! R26   R(26,27)                1.0905                                         !
 ! R27   R(26,28)                1.0925                                         !
 ! R28   R(26,29)                1.5322                                         !
 ! R29   R(29,30)                1.2504                                         !
 ! R30   R(29,31)                1.3379                                         !
 ! R31   R(31,32)                1.0257                                         !
 ! R32   R(31,33)                1.459                                          !
 ! R33   R(33,34)                1.0901                                         !
 ! R34   R(33,35)                1.0932                                         !
 ! R35   R(33,36)                1.5376                                         !
 ! R36   R(36,37)                1.2406                                         !
 ! R37   R(36,38)                1.344                                          !
 ! R38   R(38,39)                1.0148                                         !
 ! R39   R(38,40)                1.4577                                         !
 ! R40   R(40,41)                1.0967                                         !
 ! R41   R(40,42)                1.0897                                         !
 ! R42   R(40,43)                1.531                                          !
 ! R43   R(43,44)                1.2335                                         !
 ! R44   R(43,45)                1.3524                                         !
 ! R45   R(45,46)                1.0155                                         !
 ! R46   R(45,47)                1.4616                                         !
 ! R47   R(47,48)                1.0926                                         !
 ! R48   R(47,49)                1.0904                                         !
 ! R49   R(47,50)                1.538                                          !
 ! R50   R(50,51)                1.228                                          !
 ! R51   R(50,52)                1.363                                          !
 ! R52   R(52,53)                1.0171                                         !
 ! R53   R(52,54)                1.4399                                         !
 ! R54   R(54,55)                1.096                                          !
 ! R55   R(54,56)                1.0985                                         !
 ! R56   R(54,57)                1.5309                                         !
 ! R57   R(57,58)                1.2358                                         !
 ! R58   R(57,59)                1.354                                          !
 ! R59   R(59,60)                1.0121                                         !
 ! R60   R(59,61)                1.4531                                         !
 ! R61   R(61,62)                1.0941                                         !
 ! R62   R(61,63)                1.0933                                         !
 ! R63   R(61,64)                1.5354                                         !
 ! R64   R(64,65)                1.222                                          !
 ! R65   R(64,66)                1.3665                                         !
 ! R66   R(66,67)                1.0171                                         !
 ! R67   R(66,68)                1.4432                                         !
 ! R68   R(68,69)                1.0952                                         !
 ! R69   R(68,70)                1.0926                                         !
 ! R70   R(68,71)                1.526                                          !
 ! R71   R(71,72)                1.2127                                         !
 ! R72   R(71,73)                1.3448                                         !
 ! R73   R(73,74)                0.9759                                         !
 ! A1    A(2,1,3)              109.7985                                         !
 ! A2    A(2,1,4)              110.827                                          !
 ! A3    A(2,1,5)              113.1996                                         !
 ! A4    A(3,1,4)              108.6554                                         !
 ! A5    A(3,1,5)              107.3649                                         !
 ! A6    A(4,1,5)              106.8223                                         !
 ! A7    A(1,5,6)              109.5892                                         !
 ! A8    A(1,5,7)              109.4471                                         !
 ! A9    A(1,5,8)              105.998                                          !
 ! A10   A(6,5,7)              110.5101                                         !
 ! A11   A(6,5,8)              111.2857                                         !
 ! A12   A(7,5,8)              109.9008                                         !
 ! A13   A(5,8,9)              119.1208                                         !
 ! A14   A(5,8,10)             115.646                                          !
 ! A15   A(9,8,10)             125.1816                                         !
 ! A16   A(8,10,11)            116.7687                                         !
 ! A17   A(8,10,12)            120.5727                                         !
 ! A18   A(11,10,12)           117.6318                                         !
 ! A19   A(10,12,13)           108.2742                                         !
 ! A20   A(10,12,14)           108.3529                                         !
 ! A21   A(10,12,15)           109.0435                                         !
 ! A22   A(13,12,14)           109.0892                                         !
 ! A23   A(13,12,15)           113.436                                          !
 ! A24   A(14,12,15)           108.5323                                         !
 ! A25   A(12,15,16)           119.9474                                         !
 ! A26   A(12,15,17)           116.552                                          !
 ! A27   A(16,15,17)           123.3135                                         !
 ! A28   A(15,17,18)           118.5007                                         !
 ! A29   A(15,17,19)           121.9461                                         !
 ! A30   A(18,17,19)           119.31                                           !
 ! A31   A(17,19,20)           109.6763                                         !
 ! A32   A(17,19,21)           109.2274                                         !
 ! A33   A(17,19,22)           114.5652                                         !
 ! A34   A(20,19,21)           107.4964                                         !
 ! A35   A(20,19,22)           107.3712                                         !
 ! A36   A(21,19,22)           108.2636                                         !
 ! A37   A(19,22,23)           119.9296                                         !
 ! A38   A(19,22,24)           115.8989                                         !
 ! A39   A(23,22,24)           124.1671                                         !
 ! A40   A(22,24,25)           117.9477                                         !
 ! A41   A(22,24,26)           124.2771                                         !
 ! A42   A(25,24,26)           117.7407                                         !
 ! A43   A(24,26,27)           108.876                                          !
 ! A44   A(24,26,28)           110.6723                                         !
 ! A45   A(24,26,29)           110.3982                                         !
 ! A46   A(27,26,28)           106.9665                                         !
 ! A47   A(27,26,29)           111.887                                          !
 ! A48   A(28,26,29)           107.9925                                         !
 ! A49   A(26,29,30)           121.3324                                         !
 ! A50   A(26,29,31)           116.5356                                         !
 ! A51   A(30,29,31)           122.1137                                         !
 ! A52   A(29,31,32)           120.9532                                         !
 ! A53   A(29,31,33)           122.8227                                         !
 ! A54   A(32,31,33)           115.5578                                         !
 ! A55   A(31,33,34)           108.6863                                         !
 ! A56   A(31,33,35)           108.6055                                         !
 ! A57   A(31,33,36)           109.4771                                         !
 ! A58   A(34,33,35)           109.2439                                         !
 ! A59   A(34,33,36)           109.0156                                         !
 ! A60   A(35,33,36)           111.7605                                         !
 ! A61   A(33,36,37)           120.8401                                         !
 ! A62   A(33,36,38)           114.9795                                         !
 ! A63   A(37,36,38)           124.1526                                         !
 ! A64   A(36,38,39)           119.5063                                         !
 ! A65   A(36,38,40)           123.9521                                         !
 ! A66   A(39,38,40)           114.6208                                         !
 ! A67   A(38,40,41)           110.6471                                         !
 ! A68   A(38,40,42)           108.4976                                         !
 ! A69   A(38,40,43)           106.923                                          !
 ! A70   A(41,40,42)           109.0396                                         !
 ! A71   A(41,40,43)           108.7003                                         !
 ! A72   A(42,40,43)           113.0262                                         !
 ! A73   A(40,43,44)           119.6454                                         !
 ! A74   A(40,43,45)           115.8465                                         !
 ! A75   A(44,43,45)           124.5039                                         !
 ! A76   A(43,45,46)           116.53                                           !
 ! A77   A(43,45,47)           120.729                                          !
 ! A78   A(46,45,47)           115.9557                                         !
 ! A79   A(45,47,48)           108.3575                                         !
 ! A80   A(45,47,49)           108.8089                                         !
 ! A81   A(45,47,50)           110.954                                          !
 ! A82   A(48,47,49)           109.4242                                         !
 ! A83   A(48,47,50)           111.2526                                         !
 ! A84   A(49,47,50)           108.0059                                         !
 ! A85   A(47,50,51)           121.9498                                         !
 ! A86   A(47,50,52)           114.0139                                         !
 ! A87   A(51,50,52)           124.0311                                         !
 ! A88   A(50,52,53)           117.241                                          !
 ! A89   A(50,52,54)           121.39                                           !
 ! A90   A(53,52,54)           119.7763                                         !
 ! A91   A(52,54,55)           106.965                                          !
 ! A92   A(52,54,56)           110.7554                                         !
 ! A93   A(52,54,57)           113.4995                                         !
 ! A94   A(55,54,56)           107.8001                                         !
 ! A95   A(55,54,57)           107.7174                                         !
 ! A96   A(56,54,57)           109.8615                                         !
 ! A97   A(54,57,58)           122.5998                                         !
 ! A98   A(54,57,59)           113.5852                                         !
 ! A99   A(58,57,59)           123.8033                                         !
 ! A100  A(57,59,60)           117.8429                                         !
 ! A101  A(57,59,61)           125.1485                                         !
 ! A102  A(60,59,61)           117.0085                                         !
 ! A103  A(59,61,62)           110.976                                          !
 ! A104  A(59,61,63)           107.4956                                         !
 ! A105  A(59,61,64)           114.5176                                         !
 ! A106  A(62,61,63)           107.6175                                         !
 ! A107  A(62,61,64)           106.4266                                         !
 ! A108  A(63,61,64)           109.6197                                         !
 ! A109  A(61,64,65)           120.3199                                         !
 ! A110  A(61,64,66)           116.4153                                         !
 ! A111  A(65,64,66)           123.2603                                         !
 ! A112  A(64,66,67)           120.2012                                         !
 ! A113  A(64,66,68)           118.3438                                         !
 ! A114  A(67,66,68)           118.4421                                         !
 ! A115  A(66,68,69)           109.4747                                         !
 ! A116  A(66,68,70)           109.7795                                         !
 ! A117  A(66,68,71)           113.1919                                         !
 ! A118  A(69,68,70)           107.7794                                         !
 ! A119  A(69,68,71)           108.3259                                         !
 ! A120  A(70,68,71)           108.1347                                         !
 ! A121  A(68,71,72)           125.7767                                         !
 ! A122  A(68,71,73)           110.648                                          !
 ! A123  A(72,71,73)           123.5523                                         !
 ! A124  A(71,73,74)           107.3517                                         !
 ! D1    D(2,1,5,6)            -87.0648                                         !
 ! D2    D(2,1,5,7)             34.2706                                         !
 ! D3    D(2,1,5,8)            152.7447                                         !
 ! D4    D(3,1,5,6)             34.2763                                         !
 ! D5    D(3,1,5,7)            155.6118                                         !
 ! D6    D(3,1,5,8)            -85.9141                                         !
 ! D7    D(4,1,5,6)            150.6792                                         !
 ! D8    D(4,1,5,7)            -87.9854                                         !
 ! D9    D(4,1,5,8)             30.4887                                         !
 ! D10   D(1,5,8,9)            -17.695                                          !
 ! D11   D(1,5,8,10)           164.7818                                         !
 ! D12   D(6,5,8,9)           -136.774                                          !
 ! D13   D(6,5,8,10)            45.7027                                         !
 ! D14   D(7,5,8,9)            100.4782                                         !
 ! D15   D(7,5,8,10)           -77.0451                                         !
 ! D16   D(5,8,10,11)          -27.3565                                         !
 ! D17   D(5,8,10,12)          178.3092                                         !
 ! D18   D(9,8,10,11)          155.2908                                         !
 ! D19   D(9,8,10,12)            0.9566                                         !
 ! D20   D(8,10,12,13)         -36.9564                                         !
 ! D21   D(8,10,12,14)        -155.1475                                         !
 ! D22   D(8,10,12,15)          86.8979                                         !
 ! D23   D(11,10,12,13)        168.9235                                         !
 ! D24   D(11,10,12,14)         50.7324                                         !
 ! D25   D(11,10,12,15)        -67.2222                                         !
 ! D26   D(10,12,15,16)         70.3145                                         !
 ! D27   D(10,12,15,17)       -104.879                                          !
 ! D28   D(13,12,15,16)       -168.9434                                         !
 ! D29   D(13,12,15,17)         15.8631                                         !
 ! D30   D(14,12,15,16)        -47.5271                                         !
 ! D31   D(14,12,15,17)        137.2795                                         !
 ! D32   D(12,15,17,18)         -4.453                                          !
 ! D33   D(12,15,17,19)        169.8403                                         !
 ! D34   D(16,15,17,18)       -179.4688                                         !
 ! D35   D(16,15,17,19)         -5.1756                                         !
 ! D36   D(15,17,19,20)         36.2108                                         !
 ! D37   D(15,17,19,21)        153.7831                                         !
 ! D38   D(15,17,19,22)        -84.5919                                         !
 ! D39   D(18,17,19,20)       -149.5407                                         !
 ! D40   D(18,17,19,21)        -31.9685                                         !
 ! D41   D(18,17,19,22)         89.6566                                         !
 ! D42   D(17,19,22,23)        169.568                                          !
 ! D43   D(17,19,22,24)        -11.1566                                         !
 ! D44   D(20,19,22,23)         47.5017                                         !
 ! D45   D(20,19,22,24)       -133.223                                          !
 ! D46   D(21,19,22,23)        -68.2812                                         !
 ! D47   D(21,19,22,24)        110.9941                                         !
 ! D48   D(19,22,24,25)         -2.126                                          !
 ! D49   D(19,22,24,26)        175.6849                                         !
 ! D50   D(23,22,24,25)        177.115                                          !
 ! D51   D(23,22,24,26)         -5.0741                                         !
 ! D52   D(22,24,26,27)         10.6888                                         !
 ! D53   D(22,24,26,28)        127.9874                                         !
 ! D54   D(22,24,26,29)       -112.5045                                         !
 ! D55   D(25,24,26,27)       -171.4961                                         !
 ! D56   D(25,24,26,28)        -54.1975                                         !
 ! D57   D(25,24,26,29)         65.3106                                         !
 ! D58   D(24,26,29,30)       -105.2801                                         !
 ! D59   D(24,26,29,31)         73.1954                                         !
 ! D60   D(27,26,29,30)        133.296                                          !
 ! D61   D(27,26,29,31)        -48.2286                                         !
 ! D62   D(28,26,29,30)         15.8363                                         !
 ! D63   D(28,26,29,31)       -165.6883                                         !
 ! D64   D(26,29,31,32)          0.3383                                         !
 ! D65   D(26,29,31,33)       -169.8877                                         !
 ! D66   D(30,29,31,32)        178.8008                                         !
 ! D67   D(30,29,31,33)          8.5748                                         !
 ! D68   D(29,31,33,34)        -24.8357                                         !
 ! D69   D(29,31,33,35)       -143.5848                                         !
 ! D70   D(29,31,33,36)         94.1407                                         !
 ! D71   D(32,31,33,34)        164.4511                                         !
 ! D72   D(32,31,33,35)         45.702                                          !
 ! D73   D(32,31,33,36)        -76.5724                                         !
 ! D74   D(31,33,36,37)        -76.6968                                         !
 ! D75   D(31,33,36,38)        101.4655                                         !
 ! D76   D(34,33,36,37)         42.0757                                         !
 ! D77   D(34,33,36,38)       -139.7619                                         !
 ! D78   D(35,33,36,37)        162.9349                                         !
 ! D79   D(35,33,36,38)        -18.9027                                         !
 ! D80   D(33,36,38,39)         -4.8375                                         !
 ! D81   D(33,36,38,40)       -168.1961                                         !
 ! D82   D(37,36,38,39)        173.2558                                         !
 ! D83   D(37,36,38,40)          9.8972                                         !
 ! D84   D(36,38,40,41)       -109.0536                                         !
 ! D85   D(36,38,40,42)         10.5283                                         !
 ! D86   D(36,38,40,43)        132.7314                                         !
 ! D87   D(39,38,40,41)         86.8586                                         !
 ! D88   D(39,38,40,42)       -153.5595                                         !
 ! D89   D(39,38,40,43)        -31.3565                                         !
 ! D90   D(38,40,43,44)         52.4544                                         !
 ! D91   D(38,40,43,45)       -126.8388                                         !
 ! D92   D(41,40,43,44)        -67.0245                                         !
 ! D93   D(41,40,43,45)        113.6824                                         !
 ! D94   D(42,40,43,44)        171.7719                                         !
 ! D95   D(42,40,43,45)         -7.5212                                         !
 ! D96   D(40,43,45,46)         21.37                                           !
 ! D97   D(40,43,45,47)        171.3508                                         !
 ! D98   D(44,43,45,46)       -157.8845                                         !
 ! D99   D(44,43,45,47)         -7.9037                                         !
 ! D100  D(43,45,47,48)         44.8708                                         !
 ! D101  D(43,45,47,49)        163.7642                                         !
 ! D102  D(43,45,47,50)        -77.5432                                         !
 ! D103  D(46,45,47,48)       -164.9853                                         !
 ! D104  D(46,45,47,49)        -46.0919                                         !
 ! D105  D(46,45,47,50)         72.6006                                         !
 ! D106  D(45,47,50,51)        -99.7948                                         !
 ! D107  D(45,47,50,52)         79.4029                                         !
 ! D108  D(48,47,50,51)        139.4883                                         !
 ! D109  D(48,47,50,52)        -41.3139                                         !
 ! D110  D(49,47,50,51)         19.3811                                         !
 ! D111  D(49,47,50,52)       -161.4211                                         !
 ! D112  D(47,50,52,53)         -9.4727                                         !
 ! D113  D(47,50,52,54)       -175.0462                                         !
 ! D114  D(51,50,52,53)        169.7059                                         !
 ! D115  D(51,50,52,54)          4.1324                                         !
 ! D116  D(50,52,54,55)         -1.0597                                         !
 ! D117  D(50,52,54,56)       -118.2791                                         !
 ! D118  D(50,52,54,57)        117.5985                                         !
 ! D119  D(53,52,54,55)       -166.2743                                         !
 ! D120  D(53,52,54,56)         76.5064                                         !
 ! D121  D(53,52,54,57)        -47.6161                                         !
 ! D122  D(52,54,57,58)        -21.6492                                         !
 ! D123  D(52,54,57,59)        159.5546                                         !
 ! D124  D(55,54,57,58)         96.5753                                         !
 ! D125  D(55,54,57,59)        -82.2209                                         !
 ! D126  D(56,54,57,58)       -146.2554                                         !
 ! D127  D(56,54,57,59)         34.9484                                         !
 ! D128  D(54,57,59,60)         -3.0744                                         !
 ! D129  D(54,57,59,61)        177.0738                                         !
 ! D130  D(58,57,59,60)        178.146                                          !
 ! D131  D(58,57,59,61)         -1.7057                                         !
 ! D132  D(57,59,61,62)        116.589                                          !
 ! D133  D(57,59,61,63)         -0.8441                                         !
 ! D134  D(57,59,61,64)       -122.8982                                         !
 ! D135  D(60,59,61,62)        -63.2639                                         !
 ! D136  D(60,59,61,63)        179.303                                          !
 ! D137  D(60,59,61,64)         57.249                                          !
 ! D138  D(59,61,64,65)       -147.6749                                         !
 ! D139  D(59,61,64,66)         31.5804                                         !
 ! D140  D(62,61,64,65)        -24.6732                                         !
 ! D141  D(62,61,64,66)        154.5821                                         !
 ! D142  D(63,61,64,65)         91.4361                                         !
 ! D143  D(63,61,64,66)        -89.3086                                         !
 ! D144  D(61,64,66,67)         16.4921                                         !
 ! D145  D(61,64,66,68)        176.5614                                         !
 ! D146  D(65,64,66,67)       -164.2767                                         !
 ! D147  D(65,64,66,68)         -4.2074                                         !
 ! D148  D(64,66,68,69)        165.095                                          !
 ! D149  D(64,66,68,70)         46.9725                                         !
 ! D150  D(64,66,68,71)        -73.9527                                         !
 ! D151  D(67,66,68,69)        -34.4809                                         !
 ! D152  D(67,66,68,70)       -152.6034                                         !
 ! D153  D(67,66,68,71)         86.4714                                         !
 ! D154  D(66,68,71,72)        -15.7558                                         !
 ! D155  D(66,68,71,73)        165.9439                                         !
 ! D156  D(69,68,71,72)        105.844                                          !
 ! D157  D(69,68,71,73)        -72.4563                                         !
 ! D158  D(70,68,71,72)       -137.607                                          !
 ! D159  D(70,68,71,73)         44.0927                                         !
 ! D160  D(68,71,73,74)        179.6134                                         !
 ! D161  D(72,71,73,74)          1.2681                                         !
 --------------------------------------------------------------------------------
 Symmetry turned off by external request.
 Stoichiometry    C20H33N10O11(1+)
 Framework group  C1[X(C20H33N10O11)]
 Deg. of freedom   216
 Full point group                 C1      NOp   1
                          Input orientation:                          
 ---------------------------------------------------------------------
 Center     Atomic      Atomic             Coordinates (Angstroms)
 Number     Number       Type             X           Y           Z
 ---------------------------------------------------------------------
      1          7           0       -1.097714   -0.258972   -1.360485
      2          1           0       -1.850499   -0.868532   -1.687194
      3          1           0       -0.522939   -0.762326   -0.612725
      4          1           0       -1.479755    0.611237   -0.953793
      5          6           0       -0.155498    0.148871   -2.448514
      6          1           0        0.629720   -0.603452   -2.554187
      7          1           0       -0.707760    0.260359   -3.385436
      8          6           0        0.424251    1.502146   -2.020203
      9          8           0       -0.157127    2.156867   -1.144328
     10          7           0        1.520761    1.901981   -2.685911
     11          1           0        2.115972    1.168229   -3.075126
     12          6           0        2.141967    3.194627   -2.389711
     13          1           0        1.349630    3.913909   -2.174909
     14          1           0        2.691843    3.522606   -3.274318
     15          6           0        3.135898    3.019271   -1.235235
     16          8           0        4.181889    2.400515   -1.415135
     17          7           0        2.745440    3.487276   -0.021660
     18          1           0        1.864824    3.981057    0.044852
     19          6           0        3.492972    3.193546    1.195656
     20          1           0        4.564941    3.178020    0.975152
     21          1           0        3.318941    3.989064    1.926068
     22          6           0        3.139969    1.848727    1.854173
     23          8           0        3.836172    1.411997    2.768563
     24          7           0        2.034398    1.222928    1.370603
     25          1           0        1.504710    1.689084    0.644407
     26          6           0        1.586693   -0.094456    1.795738
     27          1           0        2.157694   -0.394362    2.675035
     28          1           0        0.535569   -0.067491    2.092160
     29          6           0        1.729818   -1.102416    0.650646
     30          8           0        0.733244   -1.510412    0.015221
     31          7           0        2.973567   -1.493736    0.350775
     32          1           0        3.780087   -1.133642    0.872250
     33          6           0        3.291563   -2.274122   -0.840198
     34          1           0        2.401354   -2.824570   -1.145059
     35          1           0        4.085723   -2.982893   -0.591006
     36          6           0        3.708912   -1.327065   -1.977369
     37          8           0        2.860617   -0.676514   -2.606842
     38          7           0        5.033489   -1.244094   -2.189584
     39          1           0        5.670840   -1.729539   -1.566724
     40          6           0        5.660893   -0.236447   -3.035678
     41          1           0        6.042542   -0.689583   -3.958554
     42          1           0        4.913701    0.514553   -3.290984
     43          6           0        6.840576    0.336784   -2.245998
     44          8           0        7.679807   -0.426965   -1.762482
     45          7           0        6.867787    1.683154   -2.120890
     46          1           0        5.984543    2.168331   -2.246536
     47          6           0        7.833685    2.331650   -1.236081
     48          1           0        8.810588    1.868676   -1.394728
     49          1           0        7.888451    3.390425   -1.491098
     50          6           0        7.395333    2.218726    0.233796
     51          8           0        6.839842    3.144281    0.819161
     52          7           0        7.664140    1.009052    0.801417
     53          1           0        7.979437    0.264797    0.183969
     54          6           0        7.227346    0.693495    2.136729
     55          1           0        6.710822    1.579979    2.522111
     56          1           0        8.087230    0.494968    2.790882
     57          6           0        6.246250   -0.480236    2.196712
     58          8           0        5.575838   -0.838110    1.222177
     59          7           0        6.170444   -1.061100    3.417401
     60          1           0        6.782356   -0.713826    4.144976
     61          6           0        5.278265   -2.152270    3.770625
     62          1           0        5.844059   -3.047822    4.044424
     63          1           0        4.686353   -2.393169    2.883515
     64          6           0        4.341509   -1.853104    4.949824
     65          8           0        3.998535   -2.748242    5.707732
     66          7           0        3.944469   -0.553801    5.096341
     67          1           0        4.050696    0.103474    4.327424
     68          6           0        3.004326   -0.238738    6.145001
     69          1           0        2.989116    0.844072    6.308541
     70          1           0        3.318562   -0.712672    7.077950
     71          6           0        1.582248   -0.697166    5.834864
     72          8           0        1.164003   -1.021634    4.743776
     73          8           0        0.820424   -0.661755    6.942473
     74          1           0       -0.074902   -0.956454    6.689466
 ---------------------------------------------------------------------
 Rotational constants (GHZ):           0.1011274           0.0767594           0.0579425
 Standard basis: 6-31G(d) (6D, 7F)
   681 basis functions,  1280 primitive gaussians,   681 cartesian basis functions
   155 alpha electrons      155 beta electrons
       nuclear repulsion energy      5623.1876670203 Hartrees.
 NAtoms=   74 NActive=   74 NUniq=   74 SFac= 1.00D+00 NAtFMM=   60 NAOKFM=T Big=T
 Integral buffers will be    131072 words long.
 Raffenetti 2 integral format.
 Two-electron integral symmetry is turned off.
 One-electron integrals computed using PRISM.
 NBasis=   681 RedAO= T EigKep=  2.29D-03  NBF=   681
 NBsUse=   681 1.00D-06 EigRej= -1.00D+00 NBFU=   681
 Initial guess from the checkpoint file:  "conf-90.chk"
 B after Tr=     0.000000    0.000000    0.000000
         Rot=    1.000000    0.000000    0.000000    0.000000 Ang=   0.00 deg.
 Requested convergence on RMS density matrix=1.00D-08 within 128 cycles.
 Requested convergence on MAX density matrix=1.00D-06.
 Requested convergence on             energy=1.00D-06.
 No special actions if energy rises.
 SCF Done:  E(RB3LYP) =  -2156.97142635     A.U. after    3 cycles
            NFock=  3  Conv=0.11D-08     -V/T= 2.0092

 **********************************************************************

            Population analysis using the SCF Density.

 **********************************************************************

 Alpha  occ. eigenvalues --  -19.27567 -19.27074 -19.24909 -19.24000 -19.23297
 Alpha  occ. eigenvalues --  -19.22821 -19.22273 -19.22227 -19.21397 -19.19823
 Alpha  occ. eigenvalues --  -19.19090 -14.57301 -14.49928 -14.48857 -14.47740
 Alpha  occ. eigenvalues --  -14.47713 -14.47366 -14.46566 -14.45399 -14.44026
 Alpha  occ. eigenvalues --  -14.43638 -10.43883 -10.41369 -10.41337 -10.40336
 Alpha  occ. eigenvalues --  -10.40213 -10.40199 -10.39318 -10.38507 -10.38431
 Alpha  occ. eigenvalues --  -10.37000 -10.36575 -10.35540 -10.33817 -10.33464
 Alpha  occ. eigenvalues --  -10.33271 -10.32698 -10.31711 -10.31589 -10.31242
 Alpha  occ. eigenvalues --  -10.31125  -1.18902  -1.18617  -1.16169  -1.15949
 Alpha  occ. eigenvalues --   -1.14570  -1.14391  -1.13732  -1.13185  -1.11966
 Alpha  occ. eigenvalues --   -1.11418  -1.11242  -1.09594  -1.06337  -1.05154
 Alpha  occ. eigenvalues --   -1.04270  -1.03286  -1.02831  -1.02702  -1.01728
 Alpha  occ. eigenvalues --   -1.00364  -0.99821  -0.89791  -0.87838  -0.86314
 Alpha  occ. eigenvalues --   -0.85633  -0.84381  -0.83049  -0.81897  -0.80714
 Alpha  occ. eigenvalues --   -0.79369  -0.77348  -0.72871  -0.72705  -0.72360
 Alpha  occ. eigenvalues --   -0.71085  -0.70447  -0.70047  -0.69723  -0.69557
 Alpha  occ. eigenvalues --   -0.68934  -0.68029  -0.66744  -0.66310  -0.65916
 Alpha  occ. eigenvalues --   -0.65577  -0.64456  -0.63831  -0.63026  -0.62063
 Alpha  occ. eigenvalues --   -0.61370  -0.60554  -0.60143  -0.59951  -0.59525
 Alpha  occ. eigenvalues --   -0.58744  -0.58686  -0.58326  -0.58057  -0.57820
 Alpha  occ. eigenvalues --   -0.57250  -0.56459  -0.56263  -0.55860  -0.55323
 Alpha  occ. eigenvalues --   -0.55202  -0.55029  -0.54634  -0.54052  -0.53846
 Alpha  occ. eigenvalues --   -0.53408  -0.53111  -0.52676  -0.52467  -0.52165
 Alpha  occ. eigenvalues --   -0.51973  -0.51482  -0.50776  -0.50657  -0.50147
 Alpha  occ. eigenvalues --   -0.50095  -0.49779  -0.49309  -0.49081  -0.48989
 Alpha  occ. eigenvalues --   -0.48513  -0.48203  -0.47859  -0.47578  -0.46584
 Alpha  occ. eigenvalues --   -0.46311  -0.46202  -0.45800  -0.45013  -0.44155
 Alpha  occ. eigenvalues --   -0.41693  -0.41064  -0.40286  -0.39869  -0.39781
 Alpha  occ. eigenvalues --   -0.39640  -0.37664  -0.36983  -0.36820  -0.36796
 Alpha  occ. eigenvalues --   -0.36543  -0.36448  -0.36177  -0.35817  -0.35724
 Alpha  occ. eigenvalues --   -0.34710  -0.33829  -0.33608  -0.32613  -0.32277
 Alpha virt. eigenvalues --   -0.12987  -0.11925  -0.10568  -0.09052  -0.08389
 Alpha virt. eigenvalues --   -0.08125  -0.07892  -0.07218  -0.06844  -0.05832
 Alpha virt. eigenvalues --   -0.05713  -0.03692  -0.02419  -0.01881  -0.01028
 Alpha virt. eigenvalues --   -0.00615   0.00020   0.00223   0.00775   0.01225
 Alpha virt. eigenvalues --    0.02116   0.02650   0.03073   0.03753   0.03985
 Alpha virt. eigenvalues --    0.04153   0.04610   0.04653   0.05290   0.05655
 Alpha virt. eigenvalues --    0.06050   0.06371   0.06771   0.07113   0.07369
 Alpha virt. eigenvalues --    0.07707   0.07867   0.08161   0.08562   0.08645
 Alpha virt. eigenvalues --    0.09174   0.09511   0.09744   0.09933   0.10226
 Alpha virt. eigenvalues --    0.10590   0.10952   0.11802   0.11816   0.12464
 Alpha virt. eigenvalues --    0.12900   0.13251   0.13653   0.13893   0.14175
 Alpha virt. eigenvalues --    0.14566   0.15579   0.15852   0.16183   0.16552
 Alpha virt. eigenvalues --    0.17281   0.17721   0.18940   0.20092   0.21064
 Alpha virt. eigenvalues --    0.22504   0.22831   0.23435   0.23990   0.24499
 Alpha virt. eigenvalues --    0.25716   0.26443   0.26747   0.27639   0.28123
 Alpha virt. eigenvalues --    0.29348   0.29719   0.30555   0.30860   0.31289
 Alpha virt. eigenvalues --    0.32816   0.33513   0.33916   0.35553   0.37310
 Alpha virt. eigenvalues --    0.37600   0.38767   0.39588   0.40403   0.40536
 Alpha virt. eigenvalues --    0.40796   0.42766   0.42915   0.43123   0.43540
 Alpha virt. eigenvalues --    0.43863   0.44116   0.44463   0.44775   0.44885
 Alpha virt. eigenvalues --    0.44947   0.46116   0.46622   0.46833   0.47024
 Alpha virt. eigenvalues --    0.47260   0.47762   0.48450   0.48608   0.48920
 Alpha virt. eigenvalues --    0.49725   0.49806   0.50200   0.51003   0.51382
 Alpha virt. eigenvalues --    0.51544   0.51893   0.52232   0.52972   0.53141
 Alpha virt. eigenvalues --    0.53835   0.54003   0.54366   0.55044   0.55528
 Alpha virt. eigenvalues --    0.55828   0.55913   0.56807   0.57099   0.57333
 Alpha virt. eigenvalues --    0.57645   0.57998   0.58121   0.59005   0.59534
 Alpha virt. eigenvalues --    0.59987   0.60124   0.60394   0.60906   0.61258
 Alpha virt. eigenvalues --    0.62165   0.62475   0.63485   0.63850   0.64315
 Alpha virt. eigenvalues --    0.64576   0.65351   0.66519   0.67269   0.67980
 Alpha virt. eigenvalues --    0.68518   0.68905   0.69363   0.69828   0.70366
 Alpha virt. eigenvalues --    0.71117   0.71591   0.72183   0.72387   0.72621
 Alpha virt. eigenvalues --    0.73366   0.73476   0.73663   0.74294   0.74647
 Alpha virt. eigenvalues --    0.75071   0.75185   0.75473   0.76320   0.76477
 Alpha virt. eigenvalues --    0.77106   0.77237   0.77871   0.78125   0.78637
 Alpha virt. eigenvalues --    0.79131   0.79204   0.79629   0.79795   0.80457
 Alpha virt. eigenvalues --    0.80835   0.81258   0.82295   0.82667   0.82827
 Alpha virt. eigenvalues --    0.83052   0.83568   0.83973   0.84345   0.84742
 Alpha virt. eigenvalues --    0.85103   0.85986   0.86243   0.86533   0.87333
 Alpha virt. eigenvalues --    0.87791   0.88355   0.88799   0.88950   0.89423
 Alpha virt. eigenvalues --    0.89926   0.90059   0.90706   0.90953   0.91441
 Alpha virt. eigenvalues --    0.92133   0.93109   0.93213   0.94889   0.95458
 Alpha virt. eigenvalues --    0.95717   0.96840   0.97453   0.97980   0.99181
 Alpha virt. eigenvalues --    0.99558   1.00090   1.00368   1.01940   1.02673
 Alpha virt. eigenvalues --    1.03119   1.03352   1.04328   1.05342   1.06130
 Alpha virt. eigenvalues --    1.06323   1.07607   1.07976   1.08932   1.09425
 Alpha virt. eigenvalues --    1.10001   1.10744   1.11204   1.11821   1.12539
 Alpha virt. eigenvalues --    1.13364   1.14347   1.14865   1.15089   1.15989
 Alpha virt. eigenvalues --    1.16181   1.17161   1.17844   1.18875   1.19581
 Alpha virt. eigenvalues --    1.19648   1.20480   1.21835   1.22209   1.22742
 Alpha virt. eigenvalues --    1.23153   1.24111   1.25273   1.25813   1.26504
 Alpha virt. eigenvalues --    1.27227   1.28248   1.29444   1.29727   1.30533
 Alpha virt. eigenvalues --    1.31309   1.31573   1.32073   1.32657   1.34433
 Alpha virt. eigenvalues --    1.34796   1.35668   1.35839   1.37065   1.37195
 Alpha virt. eigenvalues --    1.38419   1.39104   1.39864   1.40396   1.41241
 Alpha virt. eigenvalues --    1.42362   1.43083   1.43497   1.44018   1.44353
 Alpha virt. eigenvalues --    1.45932   1.46074   1.47025   1.47740   1.48439
 Alpha virt. eigenvalues --    1.49465   1.51244   1.51888   1.52941   1.53253
 Alpha virt. eigenvalues --    1.54227   1.55351   1.56536   1.58045   1.58397
 Alpha virt. eigenvalues --    1.58765   1.59563   1.60843   1.61259   1.62043
 Alpha virt. eigenvalues --    1.62282   1.62866   1.63465   1.63708   1.64948
 Alpha virt. eigenvalues --    1.65238   1.65728   1.66297   1.67109   1.67522
 Alpha virt. eigenvalues --    1.68035   1.68101   1.68853   1.69640   1.69688
 Alpha virt. eigenvalues --    1.70121   1.70931   1.71041   1.71388   1.71846
 Alpha virt. eigenvalues --    1.72251   1.72590   1.72988   1.73139   1.73618
 Alpha virt. eigenvalues --    1.73818   1.74137   1.74321   1.74662   1.75359
 Alpha virt. eigenvalues --    1.75725   1.76092   1.76658   1.77467   1.78343
 Alpha virt. eigenvalues --    1.78529   1.79003   1.79498   1.79743   1.80031
 Alpha virt. eigenvalues --    1.80664   1.80849   1.82224   1.82710   1.83281
 Alpha virt. eigenvalues --    1.83848   1.84086   1.85089   1.85728   1.86233
 Alpha virt. eigenvalues --    1.86531   1.87009   1.87479   1.88465   1.88666
 Alpha virt. eigenvalues --    1.88938   1.89501   1.89903   1.90585   1.91023
 Alpha virt. eigenvalues --    1.92051   1.92533   1.93078   1.93496   1.94146
 Alpha virt. eigenvalues --    1.95052   1.95918   1.96897   1.97147   1.97212
 Alpha virt. eigenvalues --    1.98262   1.98604   1.99059   1.99833   2.00690
 Alpha virt. eigenvalues --    2.00965   2.01516   2.02250   2.02540   2.04006
 Alpha virt. eigenvalues --    2.05201   2.05774   2.07284   2.08021   2.08968
 Alpha virt. eigenvalues --    2.10038   2.11766   2.13690   2.13729   2.15893
 Alpha virt. eigenvalues --    2.16950   2.18044   2.18912   2.19326   2.19895
 Alpha virt. eigenvalues --    2.20283   2.20555   2.21560   2.22199   2.23609
 Alpha virt. eigenvalues --    2.23776   2.24758   2.24866   2.25430   2.26443
 Alpha virt. eigenvalues --    2.27332   2.27644   2.27974   2.28440   2.28954
 Alpha virt. eigenvalues --    2.29915   2.30396   2.31054   2.31799   2.32229
 Alpha virt. eigenvalues --    2.33413   2.34419   2.34932   2.35028   2.35530
 Alpha virt. eigenvalues --    2.36207   2.37116   2.37629   2.38445   2.39542
 Alpha virt. eigenvalues --    2.40631   2.41746   2.43160   2.44242   2.45144
 Alpha virt. eigenvalues --    2.47505   2.48324   2.49851   2.50488   2.51278
 Alpha virt. eigenvalues --    2.52499   2.53608   2.53761   2.54720   2.55382
 Alpha virt. eigenvalues --    2.55860   2.56891   2.57691   2.58801   2.58958
 Alpha virt. eigenvalues --    2.60181   2.60474   2.61005   2.61688   2.63122
 Alpha virt. eigenvalues --    2.64210   2.65483   2.66338   2.68419   2.68688
 Alpha virt. eigenvalues --    2.72100   2.75335   2.76281   2.78032   2.78378
 Alpha virt. eigenvalues --    2.78684   2.82227   2.84365   2.85095   2.85352
 Alpha virt. eigenvalues --    2.87675   2.88274   2.89761   2.90995   2.91286
 Alpha virt. eigenvalues --    2.92438   2.93650   2.94230   2.94887   2.97350
 Alpha virt. eigenvalues --    2.98878   3.01773   3.01919   3.02542   3.02841
 Alpha virt. eigenvalues --    3.03693   3.05686   3.05951   3.06828   3.08759
 Alpha virt. eigenvalues --    3.69751   3.71295   3.83932   3.84898   3.86938
 Alpha virt. eigenvalues --    3.88946   3.90068   3.90814   3.93683   3.94145
 Alpha virt. eigenvalues --    3.96337   3.97434   4.00654   4.03450   4.03715
 Alpha virt. eigenvalues --    4.05174   4.06317   4.07689   4.09800   4.11050
 Alpha virt. eigenvalues --    4.12603   4.13352   4.14676   4.15210   4.15559
 Alpha virt. eigenvalues --    4.18645   4.20622   4.22852   4.26565   4.31120
 Alpha virt. eigenvalues --    4.31912   4.38323   4.42112   4.42794   4.43301
 Alpha virt. eigenvalues --    4.43853   4.47357   4.48199   4.50151   4.53893
 Alpha virt. eigenvalues --    4.55784
          Condensed to atoms (all electrons):
 Mulliken charges:
               1
     1  N   -0.756860
     2  H    0.405985
     3  H    0.446348
     4  H    0.408015
     5  C   -0.292466
     6  H    0.271064
     7  H    0.232294
     8  C    0.615953
     9  O   -0.544312
    10  N   -0.582966
    11  H    0.398238
    12  C   -0.238126
    13  H    0.197173
    14  H    0.206492
    15  C    0.605740
    16  O   -0.516505
    17  N   -0.598129
    18  H    0.356143
    19  C   -0.267766
    20  H    0.273494
    21  H    0.204974
    22  C    0.620035
    23  O   -0.529872
    24  N   -0.602765
    25  H    0.352981
    26  C   -0.242055
    27  H    0.231144
    28  H    0.189813
    29  C    0.619261
    30  O   -0.588675
    31  N   -0.588337
    32  H    0.418688
    33  C   -0.240568
    34  H    0.209108
    35  H    0.188674
    36  C    0.622062
    37  O   -0.560264
    38  N   -0.569845
    39  H    0.369485
    40  C   -0.202027
    41  H    0.203251
    42  H    0.182281
    43  C    0.597359
    44  O   -0.534792
    45  N   -0.577762
    46  H    0.373394
    47  C   -0.243219
    48  H    0.200410
    49  H    0.192196
    50  C    0.595761
    51  O   -0.513568
    52  N   -0.578937
    53  H    0.372589
    54  C   -0.242101
    55  H    0.235137
    56  H    0.173164
    57  C    0.634358
    58  O   -0.567851
    59  N   -0.590501
    60  H    0.350263
    61  C   -0.233831
    62  H    0.205651
    63  H    0.193866
    64  C    0.586159
    65  O   -0.498279
    66  N   -0.608933
    67  H    0.389633
    68  C   -0.232785
    69  H    0.195637
    70  H    0.222727
    71  C    0.597661
    72  O   -0.474268
    73  O   -0.546279
    74  H    0.419990
 Sum of Mulliken charges =   1.00000
 Mulliken charges with hydrogens summed into heavy atoms:
               1
     1  N    0.503487
     5  C    0.210892
     8  C    0.615953
     9  O   -0.544312
    10  N   -0.184728
    12  C    0.165538
    15  C    0.605740
    16  O   -0.516505
    17  N   -0.241986
    19  C    0.210703
    22  C    0.620035
    23  O   -0.529872
    24  N   -0.249784
    26  C    0.178902
    29  C    0.619261
    30  O   -0.588675
    31  N   -0.169649
    33  C    0.157213
    36  C    0.622062
    37  O   -0.560264
    38  N   -0.200361
    40  C    0.183504
    43  C    0.597359
    44  O   -0.534792
    45  N   -0.204368
    47  C    0.149387
    50  C    0.595761
    51  O   -0.513568
    52  N   -0.206348
    54  C    0.166200
    57  C    0.634358
    58  O   -0.567851
    59  N   -0.240238
    61  C    0.165685
    64  C    0.586159
    65  O   -0.498279
    66  N   -0.219300
    68  C    0.185578
    71  C    0.597661
    72  O   -0.474268
    73  O   -0.126289
 Electronic spatial extent (au):  <R**2>=          35744.0505
 Charge=              1.0000 electrons
 Dipole moment (field-independent basis, Debye):
    X=              7.3604    Y=              4.1869    Z=             -3.8079  Tot=              9.2847
 Quadrupole moment (field-independent basis, Debye-Ang):
   XX=           -159.6701   YY=           -217.6406   ZZ=           -192.9743
   XY=              9.5521   XZ=              6.3725   YZ=              3.9951
 Traceless Quadrupole moment (field-independent basis, Debye-Ang):
   XX=             30.4249   YY=            -27.5456   ZZ=             -2.8793
   XY=              9.5521   XZ=              6.3725   YZ=              3.9951
 Octapole moment (field-independent basis, Debye-Ang**2):
  XXX=          -2158.4518  YYY=           -163.6483  ZZZ=           -506.4944  XYY=           -845.3311
  XXY=            -87.9739  XXZ=            -82.7511  XZZ=           -782.0904  YZZ=             20.3650
  YYZ=           -255.6950  XYZ=            -15.6503
 Hexadecapole moment (field-independent basis, Debye-Ang**3):
 XXXX=         -24705.3514 YYYY=          -4330.7322 ZZZZ=         -11762.5933 XXXY=           -994.4424
 XXXZ=           -785.4852 YYYX=          -1041.6190 YYYZ=           1116.4314 ZZZX=          -1927.5727
 ZZZY=           1424.5286 XXYY=          -5488.6994 XXZZ=          -5765.8447 YYZZ=          -2998.5433
 XXYZ=             36.4990 YYXZ=           -956.9325 ZZXY=             43.2839
 N-N= 5.623187667020D+03 E-N=-1.625563189328D+04  KE= 2.137342677499D+03
 Unable to Open any file for archive entry.
 1\1\GINC-QML-003\SP\RB3LYP\6-31G(d)\C20H33N10O11(1+)\KENGMITH\09-Jul-2
 022\0\\# B3LYP/6-31G* guess=read geom=check nosymm integral(ultrafineg
 rid)\\Candidate Structure: Conf:90 Charge calc in gas phase\\1,1\N,0,-
 1.0977142955,-0.2589724218,-1.3604853985\H,0,-1.850498853,-0.868531883
 9,-1.6871942274\H,0,-0.5229388516,-0.7623260793,-0.6127252499\H,0,-1.4
 797546916,0.6112374774,-0.9537933604\C,0,-0.1554975224,0.1488712237,-2
 .4485140337\H,0,0.6297201241,-0.6034524198,-2.5541871268\H,0,-0.707760
 0853,0.2603594452,-3.3854364663\C,0,0.424250806,1.5021459039,-2.020202
 5891\O,0,-0.1571273347,2.1568670776,-1.1443283431\N,0,1.5207606698,1.9
 019811355,-2.6859111015\H,0,2.1159717031,1.1682289802,-3.0751261085\C,
 0,2.1419668527,3.1946271771,-2.3897106128\H,0,1.3496298778,3.913908810
 8,-2.1749089835\H,0,2.6918434116,3.5226061854,-3.2743177599\C,0,3.1358
 983072,3.0192711061,-1.2352348408\O,0,4.1818894861,2.4005150123,-1.415
 1348066\N,0,2.7454397409,3.4872760503,-0.0216599626\H,0,1.864824236,3.
 9810569987,0.0448523793\C,0,3.492971969,3.1935458476,1.1956564383\H,0,
 4.5649409836,3.1780204341,0.9751524677\H,0,3.3189407194,3.9890641307,1
 .9260683852\C,0,3.1399691357,1.8487271257,1.8541730199\O,0,3.836171738
 6,1.4119972285,2.7685634101\N,0,2.0343983905,1.2229276675,1.3706026524
 \H,0,1.504710364,1.6890836799,0.6444066547\C,0,1.5866934946,-0.0944559
 143,1.7957382733\H,0,2.1576938754,-0.3943620298,2.6750352404\H,0,0.535
 5690867,-0.067491124,2.0921599221\C,0,1.7298177771,-1.1024164169,0.650
 6457488\O,0,0.7332443596,-1.5104116038,0.0152207447\N,0,2.9735668138,-
 1.4937356302,0.3507748076\H,0,3.7800874446,-1.1336416085,0.8722497264\
 C,0,3.291562604,-2.2741219987,-0.8401976542\H,0,2.4013543525,-2.824569
 753,-1.1450589774\H,0,4.0857225062,-2.98289296,-0.5910055885\C,0,3.708
 91227,-1.3270646385,-1.9773685215\O,0,2.8606170932,-0.6765144776,-2.60
 68424711\N,0,5.033489163,-1.2440936019,-2.1895842091\H,0,5.6708396241,
 -1.729538976,-1.5667243867\C,0,5.6608930291,-0.2364470374,-3.035678308
 2\H,0,6.0425418237,-0.6895828537,-3.9585539575\H,0,4.913700595,0.51455
 2687,-3.2909844062\C,0,6.8405756495,0.3367835391,-2.2459979886\O,0,7.6
 798067867,-0.4269645638,-1.7624815718\N,0,6.8677871817,1.6831542744,-2
 .1208902777\H,0,5.9845425179,2.16833072,-2.2465358646\C,0,7.833685227,
 2.3316499111,-1.23608098\H,0,8.8105875427,1.8686762637,-1.3947281648\H
 ,0,7.8884510981,3.3904246196,-1.4910983184\C,0,7.3953325685,2.21872594
 14,0.2337958917\O,0,6.8398417281,3.14428094,0.8191613876\N,0,7.6641396
 303,1.0090518326,0.8014174324\H,0,7.979436834,0.2647965596,0.183969341
 7\C,0,7.2273460848,0.6934949485,2.1367289172\H,0,6.7108215481,1.579979
 0191,2.5221107759\H,0,8.0872303759,0.4949679935,2.7908821864\C,0,6.246
 2499265,-0.4802355341,2.1967122717\O,0,5.5758377903,-0.83811016,1.2221
 774702\N,0,6.1704438765,-1.061099763,3.4174007145\H,0,6.7823555699,-0.
 713825895,4.1449764725\C,0,5.278265345,-2.1522698349,3.770624784\H,0,5
 .844059051,-3.0478219828,4.0444241097\H,0,4.6863525967,-2.393169165,2.
 8835150138\C,0,4.3415093731,-1.8531044976,4.9498237413\O,0,3.998535004
 9,-2.748242045,5.7077322189\N,0,3.9444687368,-0.5538009441,5.096341276
 1\H,0,4.0506955026,0.1034739512,4.3274239929\C,0,3.0043259182,-0.23873
 76171,6.1450012959\H,0,2.9891159681,0.8440717081,6.3085410524\H,0,3.31
 85619064,-0.7126718578,7.07794969\C,0,1.5822483725,-0.6971661,5.834864
 3734\O,0,1.1640034063,-1.0216337816,4.7437757432\O,0,0.820424331,-0.66
 17550109,6.9424728135\H,0,-0.0749024139,-0.9564536954,6.6894657899\\Ve
 rsion=ES64L-G16RevC.01\HF=-2156.9714264\RMSD=1.122e-09\Dipole=-4.08481
 35,1.0120067,-2.9427177\Quadrupole=22.6201795,-20.4794879,-2.1406915,7
 .1017285,4.7377864,2.9702816\PG=C01 [X(C20H33N10O11)]\\@
 The archive entry for this job was punched.


 HE WHO LAUGHS LAST PROBABLY DIDN'T GET THE JOKE.
 Job cpu time:       0 days  0 hours  7 minutes 44.3 seconds.
 Elapsed time:       0 days  0 hours  1 minutes 56.8 seconds.
 File lengths (MBytes):  RWF=    360 Int=      0 D2E=      0 Chk=     48 Scr=     16
 Normal termination of Gaussian 16 at Sat Jul  9 19:22:58 2022.
