 Entering Gaussian System, Link 0=/opt/software/Gaussian/g16-AVX2-C.01/g16/g16
 Input=charge-conf-876.com
 Output=charge-conf-876.log
 Initial command:
 /opt/software/Gaussian/g16-AVX2-C.01/g16/l1.exe "/mnt/gs18/scratch/users/kengmith/Gau-20606.inp" -scrdir="/mnt/gs18/scratch/users/kengmith/"
 Entering Link 1 = /opt/software/Gaussian/g16-AVX2-C.01/g16/l1.exe PID=     20617.
  
 Copyright (c) 1988-2019, Gaussian, Inc.  All Rights Reserved.
  
 This is part of the Gaussian(R) 16 program.  It is based on
 the Gaussian(R) 09 system (copyright 2009, Gaussian, Inc.),
 the Gaussian(R) 03 system (copyright 2003, Gaussian, Inc.),
 the Gaussian(R) 98 system (copyright 1998, Gaussian, Inc.),
 the Gaussian(R) 94 system (copyright 1995, Gaussian, Inc.),
 the Gaussian 92(TM) system (copyright 1992, Gaussian, Inc.),
 the Gaussian 90(TM) system (copyright 1990, Gaussian, Inc.),
 the Gaussian 88(TM) system (copyright 1988, Gaussian, Inc.),
 the Gaussian 86(TM) system (copyright 1986, Carnegie Mellon
 University), and the Gaussian 82(TM) system (copyright 1983,
 Carnegie Mellon University). Gaussian is a federally registered
 trademark of Gaussian, Inc.
  
 This software contains proprietary and confidential information,
 including trade secrets, belonging to Gaussian, Inc.
  
 This software is provided under written license and may be
 used, copied, transmitted, or stored only in accord with that
 written license.
  
 The following legend is applicable only to US Government
 contracts under FAR:
  
                    RESTRICTED RIGHTS LEGEND
  
 Use, reproduction and disclosure by the US Government is
 subject to restrictions as set forth in subparagraphs (a)
 and (c) of the Commercial Computer Software - Restricted
 Rights clause in FAR 52.227-19.
  
 Gaussian, Inc.
 340 Quinnipiac St., Bldg. 40, Wallingford CT 06492
  
  
 ---------------------------------------------------------------
 Warning -- This program may not be used in any manner that
 competes with the business of Gaussian, Inc. or will provide
 assistance to any competitor of Gaussian, Inc.  The licensee
 of this program is prohibited from giving any competitor of
 Gaussian, Inc. access to this program.  By using this program,
 the user acknowledges that Gaussian, Inc. is engaged in the
 business of creating and licensing software in the field of
 computational chemistry and represents and warrants to the
 licensee that it is not a competitor of Gaussian, Inc. and that
 it will not use this program in any manner prohibited above.
 ---------------------------------------------------------------
  

 Cite this work as:
 Gaussian 16, Revision C.01,
 M. J. Frisch, G. W. Trucks, H. B. Schlegel, G. E. Scuseria, 
 M. A. Robb, J. R. Cheeseman, G. Scalmani, V. Barone, 
 G. A. Petersson, H. Nakatsuji, X. Li, M. Caricato, A. V. Marenich, 
 J. Bloino, B. G. Janesko, R. Gomperts, B. Mennucci, H. P. Hratchian, 
 J. V. Ortiz, A. F. Izmaylov, J. L. Sonnenberg, D. Williams-Young, 
 F. Ding, F. Lipparini, F. Egidi, J. Goings, B. Peng, A. Petrone, 
 T. Henderson, D. Ranasinghe, V. G. Zakrzewski, J. Gao, N. Rega, 
 G. Zheng, W. Liang, M. Hada, M. Ehara, K. Toyota, R. Fukuda, 
 J. Hasegawa, M. Ishida, T. Nakajima, Y. Honda, O. Kitao, H. Nakai, 
 T. Vreven, K. Throssell, J. A. Montgomery, Jr., J. E. Peralta, 
 F. Ogliaro, M. J. Bearpark, J. J. Heyd, E. N. Brothers, K. N. Kudin, 
 V. N. Staroverov, T. A. Keith, R. Kobayashi, J. Normand, 
 K. Raghavachari, A. P. Rendell, J. C. Burant, S. S. Iyengar, 
 J. Tomasi, M. Cossi, J. M. Millam, M. Klene, C. Adamo, R. Cammi, 
 J. W. Ochterski, R. L. Martin, K. Morokuma, O. Farkas, 
 J. B. Foresman, and D. J. Fox, Gaussian, Inc., Wallingford CT, 2019.
 
 ******************************************
 Gaussian 16:  ES64L-G16RevC.01  3-Jul-2019
                 9-Jul-2022 
 ******************************************
 %mem=8gb
 %nproc=4
 Will use up to    4 processors via shared memory.
 %chk=conf-876.chk
 -------------------------------------------------------------------
 # B3LYP/6-31G* guess=read geom=check nosymm integral(ultrafinegrid)
 -------------------------------------------------------------------
 1/29=2,38=1,172=1/1;
 2/12=2,15=1,40=1/2;
 3/5=1,6=6,7=1,11=2,14=-4,25=1,30=1,74=-5,75=-5,116=-2/1,2,3;
 4/5=1/1;
 5/5=2,38=6/2;
 6/7=2,8=2,9=2,10=2,28=1/1;
 99/5=1,9=1/99;
 ------------------------------------------------------
 Candidate Structure: Conf:876 Charge calc in gas phase
 ------------------------------------------------------
 Structure from the checkpoint file:  "conf-876.chk"
 Charge =  1 Multiplicity = 1
 Redundant internal coordinates found in file.  (old form).
 N,0,-1.0658940117,8.2867286446,6.5468178024
 H,0,-1.4129035647,7.3974186946,6.9558854463
 H,0,-1.7994662351,8.9968279512,6.6089338982
 H,0,-0.8624566447,8.053876076,5.5409214412
 C,0,0.2166095497,8.7255759914,7.241987799
 H,0,0.284532925,9.8113761379,7.2019582434
 H,0,0.1825603504,8.3712439964,8.2760913016
 C,0,1.3819360787,8.1295953565,6.4380734125
 O,0,2.2054317394,8.8347256756,5.8891424794
 N,0,1.3266484077,6.759270223,6.3391208966
 H,0,0.5495461166,6.3078677587,6.8162790778
 C,0,1.7268214523,6.1346160588,5.0958357395
 H,0,2.0078863303,5.0903732294,5.2512470907
 H,0,2.5989007472,6.6715881721,4.7099060991
 C,0,0.593583482,6.2434551435,4.0575883741
 O,0,-0.2757441398,7.1281975728,4.1194111717
 N,0,0.6586798494,5.3397355971,3.0604793725
 H,0,1.2641126297,4.5306659153,3.2004468192
 C,0,-0.2711633287,5.33051016,1.9535977145
 H,0,-0.9265017693,6.1996488937,2.0721334529
 H,0,0.2701981129,5.4456313355,1.0060148884
 C,0,-1.1393816089,4.0664999256,1.9265986681
 O,0,-1.4907305926,3.4782727402,2.9481919354
 N,0,-1.5142671784,3.6565413682,0.6860936691
 H,0,-1.2372176012,4.2118376953,-0.1129810079
 C,0,-2.4561696824,2.5618987772,0.4818067081
 H,0,-3.0988896425,2.4855628125,1.3607352907
 H,0,-3.0918700422,2.793187567,-0.3779078954
 C,0,-1.8547633253,1.1654658437,0.2509058252
 O,0,-2.5913270865,0.1899926925,0.2341084636
 N,0,-0.5127224456,1.1040995317,0.0461380182
 H,0,0.0766127314,1.9205194976,0.1461437287
 C,0,0.1684740081,-0.1609769173,-0.1212481147
 H,0,0.2554200506,-0.4331306779,-1.1840361376
 H,0,-0.4238705075,-0.9447786884,0.3611334154
 C,0,1.5754970857,-0.0447988461,0.4592941124
 O,0,2.1546716312,1.0441644872,0.5088343913
 N,0,2.1443087582,-1.2015975944,0.87690797
 H,0,1.5850904109,-2.0426095864,0.9193141242
 C,0,3.4951259778,-1.2375543606,1.4349467988
 H,0,3.8075803463,-2.2795539187,1.5121398821
 H,0,4.1739594203,-0.7081795859,0.7605458444
 C,0,3.5134239466,-0.6288615336,2.846369184
 O,0,3.2288497304,-1.2938201967,3.8416164466
 N,0,3.832188962,0.6941706997,2.8874725612
 H,0,3.7275747194,1.2011451019,2.012903485
 C,0,3.7201508076,1.4515378673,4.1290914204
 H,0,4.1207794342,0.8370991415,4.9396732687
 H,0,4.3089137221,2.3658879353,4.0442434604
 C,0,2.2620387815,1.8399132701,4.4064222558
 O,0,1.8380762041,2.9889610784,4.2235894994
 N,0,1.4643211082,0.8281215341,4.8061592647
 H,0,1.8774256556,-0.0998686069,4.8721072808
 C,0,0.0193350104,0.9841829436,4.8481514101
 H,0,-0.4206622031,-0.0146767782,4.9167277224
 H,0,-0.3312930298,1.4562955538,3.9258985632
 C,0,-0.4783624815,1.7641876479,6.0711281276
 O,0,-0.2141480807,1.4086966304,7.2224972175
 N,0,-1.2807240717,2.8190633252,5.7847627109
 H,0,-1.3575836025,3.1487264438,4.8224930522
 C,0,-2.0244155191,3.5071703678,6.8289330346
 H,0,-2.4759346808,2.7653495358,7.4966506032
 H,0,-2.8155160704,4.0955533046,6.3626176195
 C,0,-1.1556016953,4.4646323327,7.65086114
 O,0,-1.2134178976,5.7042690525,7.5034072271
 N,0,-0.3231431256,3.8986848938,8.5327689139
 H,0,-0.2236085822,2.8805073689,8.4800227893
 C,0,0.586731021,4.7009243568,9.3392354412
 H,0,1.345636403,5.1958231979,8.7266136888
 H,0,1.0888722569,4.0286197472,10.0404191465
 C,0,-0.1300543635,5.7875033321,10.1404960201
 O,0,0.1793378808,6.9593479765,10.1377690908
 O,0,-1.1234874465,5.2784875004,10.8880231265
 H,0,-1.5118678083,6.0167746286,11.3958282263
 Recover connectivity data from disk.
                           ----------------------------
                           !    Current Parameters    !
                           ! (Angstroms and Degrees)  !
 --------------------------                            --------------------------
 ! Name  Definition              Value                                          !
 --------------------------------------------------------------------------------
 ! R1    R(1,2)                  1.0386                                         !
 ! R2    R(1,3)                  1.0229                                         !
 ! R3    R(1,4)                  1.0523                                         !
 ! R4    R(1,5)                  1.5234                                         !
 ! R5    R(5,6)                  1.0887                                         !
 ! R6    R(5,7)                  1.0937                                         !
 ! R7    R(5,8)                  1.5361                                         !
 ! R8    R(8,9)                  1.2152                                         !
 ! R9    R(8,10)                 1.375                                          !
 ! R10   R(10,11)                1.0175                                         !
 ! R11   R(10,12)                1.4478                                         !
 ! R12   R(12,13)                1.0925                                         !
 ! R13   R(12,14)                1.0944                                         !
 ! R14   R(12,15)                1.5408                                         !
 ! R15   R(15,16)                1.2419                                         !
 ! R16   R(15,17)                1.3473                                         !
 ! R17   R(17,18)                1.0202                                         !
 ! R18   R(17,19)                1.4456                                         !
 ! R19   R(19,20)                1.095                                          !
 ! R20   R(19,21)                1.0974                                         !
 ! R21   R(19,22)                1.5337                                         !
 ! R22   R(22,23)                1.2301                                         !
 ! R23   R(22,24)                1.3592                                         !
 ! R24   R(24,25)                1.0117                                         !
 ! R25   R(24,26)                1.4585                                         !
 ! R26   R(26,27)                1.0915                                         !
 ! R27   R(26,28)                1.0939                                         !
 ! R28   R(26,29)                1.5379                                         !
 ! R29   R(29,30)                1.2224                                         !
 ! R30   R(29,31)                1.359                                          !
 ! R31   R(31,32)                1.0119                                         !
 ! R32   R(31,33)                1.4465                                         !
 ! R33   R(33,34)                1.1005                                         !
 ! R34   R(33,35)                1.0945                                         !
 ! R35   R(33,36)                1.5265                                         !
 ! R36   R(36,37)                1.2344                                         !
 ! R37   R(36,38)                1.355                                          !
 ! R38   R(38,39)                1.0109                                         !
 ! R39   R(38,40)                1.462                                          !
 ! R40   R(40,41)                1.0906                                         !
 ! R41   R(40,42)                1.0936                                         !
 ! R42   R(40,43)                1.5372                                         !
 ! R43   R(43,44)                1.2303                                         !
 ! R44   R(43,45)                1.3615                                         !
 ! R45   R(45,46)                1.0163                                         !
 ! R46   R(45,47)                1.4587                                         !
 ! R47   R(47,48)                1.0932                                         !
 ! R48   R(47,49)                1.0908                                         !
 ! R49   R(47,50)                1.5342                                         !
 ! R50   R(50,51)                1.2383                                         !
 ! R51   R(50,52)                1.349                                          !
 ! R52   R(52,53)                1.0179                                         !
 ! R53   R(52,54)                1.454                                          !
 ! R54   R(54,55)                1.0936                                         !
 ! R55   R(54,56)                1.0938                                         !
 ! R56   R(54,57)                1.5336                                         !
 ! R57   R(57,58)                1.2336                                         !
 ! R58   R(57,59)                1.3559                                         !
 ! R59   R(59,60)                1.0201                                         !
 ! R60   R(59,61)                1.4549                                         !
 ! R61   R(61,62)                1.0955                                         !
 ! R62   R(61,63)                1.0906                                         !
 ! R63   R(61,64)                1.532                                          !
 ! R64   R(64,65)                1.2497                                         !
 ! R65   R(64,66)                1.3383                                         !
 ! R66   R(66,67)                1.0244                                         !
 ! R67   R(66,68)                1.4567                                         !
 ! R68   R(68,69)                1.0937                                         !
 ! R69   R(68,70)                1.0935                                         !
 ! R70   R(68,71)                1.5285                                         !
 ! R71   R(71,72)                1.212                                          !
 ! R72   R(71,73)                1.3434                                         !
 ! R73   R(73,74)                0.9766                                         !
 ! A1    A(2,1,3)              109.3243                                         !
 ! A2    A(2,1,4)              104.573                                          !
 ! A3    A(2,1,5)              110.379                                          !
 ! A4    A(3,1,4)              110.506                                          !
 ! A5    A(3,1,5)              112.0911                                         !
 ! A6    A(4,1,5)              109.7054                                         !
 ! A7    A(1,5,6)              108.8485                                         !
 ! A8    A(1,5,7)              108.1764                                         !
 ! A9    A(1,5,8)              106.7439                                         !
 ! A10   A(6,5,7)              111.0909                                         !
 ! A11   A(6,5,8)              108.687                                          !
 ! A12   A(7,5,8)              113.1275                                         !
 ! A13   A(5,8,9)              121.6946                                         !
 ! A14   A(5,8,10)             113.1933                                         !
 ! A15   A(9,8,10)             124.9618                                         !
 ! A16   A(8,10,11)            116.0455                                         !
 ! A17   A(8,10,12)            118.7293                                         !
 ! A18   A(11,10,12)           114.9859                                         !
 ! A19   A(10,12,13)           111.1826                                         !
 ! A20   A(10,12,14)           108.1422                                         !
 ! A21   A(10,12,15)           110.1751                                         !
 ! A22   A(13,12,14)           108.3079                                         !
 ! A23   A(13,12,15)           110.6456                                         !
 ! A24   A(14,12,15)           108.2876                                         !
 ! A25   A(12,15,16)           122.115                                          !
 ! A26   A(12,15,17)           114.5686                                         !
 ! A27   A(16,15,17)           123.266                                          !
 ! A28   A(15,17,18)           117.3296                                         !
 ! A29   A(15,17,19)           122.6745                                         !
 ! A30   A(18,17,19)           118.7971                                         !
 ! A31   A(17,19,20)           107.2781                                         !
 ! A32   A(17,19,21)           110.0705                                         !
 ! A33   A(17,19,22)           112.5104                                         !
 ! A34   A(20,19,21)           107.7862                                         !
 ! A35   A(20,19,22)           108.4987                                         !
 ! A36   A(21,19,22)           110.5193                                         !
 ! A37   A(19,22,23)           122.7642                                         !
 ! A38   A(19,22,24)           114.8837                                         !
 ! A39   A(23,22,24)           122.3413                                         !
 ! A40   A(22,24,25)           118.6693                                         !
 ! A41   A(22,24,26)           122.1631                                         !
 ! A42   A(25,24,26)           118.5647                                         !
 ! A43   A(24,26,27)           108.6613                                         !
 ! A44   A(24,26,28)           109.0674                                         !
 ! A45   A(24,26,29)           116.743                                          !
 ! A46   A(27,26,28)           107.7841                                         !
 ! A47   A(27,26,29)           106.7183                                         !
 ! A48   A(28,26,29)           107.5319                                         !
 ! A49   A(26,29,30)           119.4075                                         !
 ! A50   A(26,29,31)           116.7324                                         !
 ! A51   A(30,29,31)           123.8438                                         !
 ! A52   A(29,31,32)           121.5909                                         !
 ! A53   A(29,31,33)           121.4653                                         !
 ! A54   A(32,31,33)           116.2826                                         !
 ! A55   A(31,33,34)           111.4215                                         !
 ! A56   A(31,33,35)           108.6894                                         !
 ! A57   A(31,33,36)           108.874                                          !
 ! A58   A(34,33,35)           106.935                                          !
 ! A59   A(34,33,36)           108.2563                                         !
 ! A60   A(35,33,36)           112.6891                                         !
 ! A61   A(33,36,37)           120.9889                                         !
 ! A62   A(33,36,38)           116.0498                                         !
 ! A63   A(37,36,38)           122.9423                                         !
 ! A64   A(36,38,39)           119.4042                                         !
 ! A65   A(36,38,40)           121.7685                                         !
 ! A66   A(39,38,40)           118.338                                          !
 ! A67   A(38,40,41)           108.375                                          !
 ! A68   A(38,40,42)           109.0415                                         !
 ! A69   A(38,40,43)           110.5931                                         !
 ! A70   A(41,40,42)           109.1672                                         !
 ! A71   A(41,40,43)           108.0556                                         !
 ! A72   A(42,40,43)           111.5412                                         !
 ! A73   A(40,43,44)           121.7344                                         !
 ! A74   A(40,43,45)           114.5377                                         !
 ! A75   A(44,43,45)           123.7063                                         !
 ! A76   A(43,45,46)           115.7644                                         !
 ! A77   A(43,45,47)           120.8139                                         !
 ! A78   A(46,45,47)           117.7477                                         !
 ! A79   A(45,47,48)           108.1294                                         !
 ! A80   A(45,47,49)           109.1202                                         !
 ! A81   A(45,47,50)           110.9955                                         !
 ! A82   A(48,47,49)           109.3297                                         !
 ! A83   A(48,47,50)           110.888                                          !
 ! A84   A(49,47,50)           108.3512                                         !
 ! A85   A(47,50,51)           122.2477                                         !
 ! A86   A(47,50,52)           115.1948                                         !
 ! A87   A(51,50,52)           122.4957                                         !
 ! A88   A(50,52,53)           117.579                                          !
 ! A89   A(50,52,54)           121.0457                                         !
 ! A90   A(53,52,54)           119.9533                                         !
 ! A91   A(52,54,55)           107.6748                                         !
 ! A92   A(52,54,56)           109.9105                                         !
 ! A93   A(52,54,57)           113.5877                                         !
 ! A94   A(55,54,56)           108.5497                                         !
 ! A95   A(55,54,57)           106.4975                                         !
 ! A96   A(56,54,57)           110.4163                                         !
 ! A97   A(54,57,58)           121.8857                                         !
 ! A98   A(54,57,59)           114.7914                                         !
 ! A99   A(58,57,59)           123.2324                                         !
 ! A100  A(57,59,60)           119.6852                                         !
 ! A101  A(57,59,61)           121.2542                                         !
 ! A102  A(60,59,61)           119.0548                                         !
 ! A103  A(59,61,62)           109.1389                                         !
 ! A104  A(59,61,63)           108.6062                                         !
 ! A105  A(59,61,64)           112.9997                                         !
 ! A106  A(62,61,63)           109.085                                          !
 ! A107  A(62,61,64)           109.2654                                         !
 ! A108  A(63,61,64)           107.6725                                         !
 ! A109  A(61,64,65)           122.0314                                         !
 ! A110  A(61,64,66)           116.2316                                         !
 ! A111  A(65,64,66)           121.736                                          !
 ! A112  A(64,66,67)           116.5404                                         !
 ! A113  A(64,66,68)           121.3641                                         !
 ! A114  A(67,66,68)           121.0119                                         !
 ! A115  A(66,68,69)           111.8712                                         !
 ! A116  A(66,68,70)           107.6519                                         !
 ! A117  A(66,68,71)           112.8802                                         !
 ! A118  A(69,68,70)           108.5866                                         !
 ! A119  A(69,68,71)           107.2984                                         !
 ! A120  A(70,68,71)           108.4361                                         !
 ! A121  A(68,71,72)           124.5009                                         !
 ! A122  A(68,71,73)           111.6605                                         !
 ! A123  A(72,71,73)           123.8044                                         !
 ! A124  A(71,73,74)           107.2757                                         !
 ! D1    D(2,1,5,6)           -151.1271                                         !
 ! D2    D(2,1,5,7)            -30.3106                                         !
 ! D3    D(2,1,5,8)             91.7279                                         !
 ! D4    D(3,1,5,6)            -29.0031                                         !
 ! D5    D(3,1,5,7)             91.8134                                         !
 ! D6    D(3,1,5,8)           -146.1481                                         !
 ! D7    D(4,1,5,6)             94.1546                                         !
 ! D8    D(4,1,5,7)           -145.0289                                         !
 ! D9    D(4,1,5,8)            -22.9905                                         !
 ! D10   D(1,5,8,9)            117.8139                                         !
 ! D11   D(1,5,8,10)           -57.938                                          !
 ! D12   D(6,5,8,9)              0.5621                                         !
 ! D13   D(6,5,8,10)          -175.1898                                         !
 ! D14   D(7,5,8,9)           -123.3231                                         !
 ! D15   D(7,5,8,10)            60.925                                          !
 ! D16   D(5,8,10,11)           -1.2771                                         !
 ! D17   D(5,8,10,12)          142.2393                                         !
 ! D18   D(9,8,10,11)         -176.8662                                         !
 ! D19   D(9,8,10,12)          -33.3498                                         !
 ! D20   D(8,10,12,13)         158.0336                                         !
 ! D21   D(8,10,12,14)          39.251                                          !
 ! D22   D(8,10,12,15)         -78.9251                                         !
 ! D23   D(11,10,12,13)        -58.0786                                         !
 ! D24   D(11,10,12,14)       -176.8612                                         !
 ! D25   D(11,10,12,15)         64.9628                                         !
 ! D26   D(10,12,15,16)         23.8807                                         !
 ! D27   D(10,12,15,17)       -158.6194                                         !
 ! D28   D(13,12,15,16)        147.2356                                         !
 ! D29   D(13,12,15,17)        -35.2645                                         !
 ! D30   D(14,12,15,16)        -94.2059                                         !
 ! D31   D(14,12,15,17)         83.294                                          !
 ! D32   D(12,15,17,18)         16.2042                                         !
 ! D33   D(12,15,17,19)       -176.473                                          !
 ! D34   D(16,15,17,18)       -166.3284                                         !
 ! D35   D(16,15,17,19)          0.9944                                         !
 ! D36   D(15,17,19,20)          3.9895                                         !
 ! D37   D(15,17,19,21)        121.0049                                         !
 ! D38   D(15,17,19,22)       -115.2582                                         !
 ! D39   D(18,17,19,20)        171.135                                          !
 ! D40   D(18,17,19,21)        -71.8496                                         !
 ! D41   D(18,17,19,22)         51.8874                                         !
 ! D42   D(17,19,22,23)         32.3436                                         !
 ! D43   D(17,19,22,24)       -148.8257                                         !
 ! D44   D(20,19,22,23)        -86.1902                                         !
 ! D45   D(20,19,22,24)         92.6405                                         !
 ! D46   D(21,19,22,23)        155.8308                                         !
 ! D47   D(21,19,22,24)        -25.3385                                         !
 ! D48   D(19,22,24,25)         -2.2828                                         !
 ! D49   D(19,22,24,26)       -173.248                                          !
 ! D50   D(23,22,24,25)        176.5534                                         !
 ! D51   D(23,22,24,26)          5.5882                                         !
 ! D52   D(22,24,26,27)         25.8569                                         !
 ! D53   D(22,24,26,28)        143.1038                                         !
 ! D54   D(22,24,26,29)        -94.8186                                         !
 ! D55   D(25,24,26,27)       -145.1174                                         !
 ! D56   D(25,24,26,28)        -27.8704                                         !
 ! D57   D(25,24,26,29)         94.2072                                         !
 ! D58   D(24,26,29,30)        171.296                                          !
 ! D59   D(24,26,29,31)        -10.1134                                         !
 ! D60   D(27,26,29,30)         49.5967                                         !
 ! D61   D(27,26,29,31)       -131.8127                                         !
 ! D62   D(28,26,29,30)        -65.8286                                         !
 ! D63   D(28,26,29,31)        112.762                                          !
 ! D64   D(26,29,31,32)          6.8344                                         !
 ! D65   D(26,29,31,33)        177.1665                                         !
 ! D66   D(30,29,31,32)       -174.6439                                         !
 ! D67   D(30,29,31,33)         -4.3117                                         !
 ! D68   D(29,31,33,34)         93.1809                                         !
 ! D69   D(29,31,33,35)        -24.4021                                         !
 ! D70   D(29,31,33,36)       -147.4942                                         !
 ! D71   D(32,31,33,34)        -95.9994                                         !
 ! D72   D(32,31,33,35)        146.4175                                         !
 ! D73   D(32,31,33,36)         23.3254                                         !
 ! D74   D(31,33,36,37)        -27.1547                                         !
 ! D75   D(31,33,36,38)        154.3861                                         !
 ! D76   D(34,33,36,37)         94.1246                                         !
 ! D77   D(34,33,36,38)        -84.3346                                         !
 ! D78   D(35,33,36,37)       -147.8173                                         !
 ! D79   D(35,33,36,38)         33.7236                                         !
 ! D80   D(33,36,38,39)         -9.0726                                         !
 ! D81   D(33,36,38,40)        179.0872                                         !
 ! D82   D(37,36,38,39)        172.5014                                         !
 ! D83   D(37,36,38,40)          0.6612                                         !
 ! D84   D(36,38,40,41)       -168.919                                          !
 ! D85   D(36,38,40,42)        -50.192                                          !
 ! D86   D(36,38,40,43)         72.8067                                         !
 ! D87   D(39,38,40,41)         19.1569                                         !
 ! D88   D(39,38,40,42)        137.8839                                         !
 ! D89   D(39,38,40,43)        -99.1174                                         !
 ! D90   D(38,40,43,44)         84.475                                          !
 ! D91   D(38,40,43,45)        -93.8971                                         !
 ! D92   D(41,40,43,44)        -33.994                                          !
 ! D93   D(41,40,43,45)        147.6339                                         !
 ! D94   D(42,40,43,44)       -153.9904                                         !
 ! D95   D(42,40,43,45)         27.6375                                         !
 ! D96   D(40,43,45,46)         19.0574                                         !
 ! D97   D(40,43,45,47)        171.9081                                         !
 ! D98   D(44,43,45,46)       -159.2783                                         !
 ! D99   D(44,43,45,47)         -6.4276                                         !
 ! D100  D(43,45,47,48)         42.9539                                         !
 ! D101  D(43,45,47,49)        161.7789                                         !
 ! D102  D(43,45,47,50)        -78.8828                                         !
 ! D103  D(46,45,47,48)       -164.714                                          !
 ! D104  D(46,45,47,49)        -45.8889                                         !
 ! D105  D(46,45,47,50)         73.4493                                         !
 ! D106  D(45,47,50,51)       -104.0147                                         !
 ! D107  D(45,47,50,52)         73.1907                                         !
 ! D108  D(48,47,50,51)        135.7739                                         !
 ! D109  D(48,47,50,52)        -47.0208                                         !
 ! D110  D(49,47,50,51)         15.7833                                         !
 ! D111  D(49,47,50,52)       -167.0113                                         !
 ! D112  D(47,50,52,53)         -1.2822                                         !
 ! D113  D(47,50,52,54)       -167.6648                                         !
 ! D114  D(51,50,52,53)        175.9154                                         !
 ! D115  D(51,50,52,54)          9.5329                                         !
 ! D116  D(50,52,54,55)        164.0621                                         !
 ! D117  D(50,52,54,56)         45.9932                                         !
 ! D118  D(50,52,54,57)        -78.2697                                         !
 ! D119  D(53,52,54,55)         -2.0008                                         !
 ! D120  D(53,52,54,56)       -120.0697                                         !
 ! D121  D(53,52,54,57)        115.6675                                         !
 ! D122  D(52,54,57,58)        -56.6147                                         !
 ! D123  D(52,54,57,59)        126.7403                                         !
 ! D124  D(55,54,57,58)         61.7339                                         !
 ! D125  D(55,54,57,59)       -114.9111                                         !
 ! D126  D(56,54,57,58)        179.3965                                         !
 ! D127  D(56,54,57,59)          2.7515                                         !
 ! D128  D(54,57,59,60)        -12.1177                                         !
 ! D129  D(54,57,59,61)        168.763                                          !
 ! D130  D(58,57,59,60)        171.2881                                         !
 ! D131  D(58,57,59,61)         -7.8312                                         !
 ! D132  D(57,59,61,62)        -43.9174                                         !
 ! D133  D(57,59,61,63)       -162.735                                          !
 ! D134  D(57,59,61,64)         77.8665                                         !
 ! D135  D(60,59,61,62)        136.9579                                         !
 ! D136  D(60,59,61,63)         18.1403                                         !
 ! D137  D(60,59,61,64)       -101.2582                                         !
 ! D138  D(59,61,64,65)        104.9157                                         !
 ! D139  D(59,61,64,66)        -74.7115                                         !
 ! D140  D(62,61,64,65)       -133.3715                                         !
 ! D141  D(62,61,64,66)         47.0012                                         !
 ! D142  D(63,61,64,65)        -15.0198                                         !
 ! D143  D(63,61,64,66)        165.353                                          !
 ! D144  D(61,64,66,67)          9.6248                                         !
 ! D145  D(61,64,66,68)        177.8349                                         !
 ! D146  D(65,64,66,67)       -170.0036                                         !
 ! D147  D(65,64,66,68)         -1.7936                                         !
 ! D148  D(64,66,68,69)        -65.9653                                         !
 ! D149  D(64,66,68,70)        174.8146                                         !
 ! D150  D(64,66,68,71)         55.1775                                         !
 ! D151  D(67,66,68,69)        101.7202                                         !
 ! D152  D(67,66,68,70)        -17.4999                                         !
 ! D153  D(67,66,68,71)       -137.137                                          !
 ! D154  D(66,68,71,72)       -128.2893                                         !
 ! D155  D(66,68,71,73)         53.7748                                         !
 ! D156  D(69,68,71,72)         -4.5843                                         !
 ! D157  D(69,68,71,73)        177.4798                                         !
 ! D158  D(70,68,71,72)        112.5268                                         !
 ! D159  D(70,68,71,73)        -65.4091                                         !
 ! D160  D(68,71,73,74)        177.8275                                         !
 ! D161  D(72,71,73,74)         -0.1254                                         !
 --------------------------------------------------------------------------------
 Symmetry turned off by external request.
 Stoichiometry    C20H33N10O11(1+)
 Framework group  C1[X(C20H33N10O11)]
 Deg. of freedom   216
 Full point group                 C1      NOp   1
                          Input orientation:                          
 ---------------------------------------------------------------------
 Center     Atomic      Atomic             Coordinates (Angstroms)
 Number     Number       Type             X           Y           Z
 ---------------------------------------------------------------------
      1          7           0       -1.065894    8.286729    6.546818
      2          1           0       -1.412904    7.397419    6.955885
      3          1           0       -1.799466    8.996828    6.608934
      4          1           0       -0.862457    8.053876    5.540921
      5          6           0        0.216610    8.725576    7.241988
      6          1           0        0.284533    9.811376    7.201958
      7          1           0        0.182560    8.371244    8.276091
      8          6           0        1.381936    8.129595    6.438073
      9          8           0        2.205432    8.834726    5.889142
     10          7           0        1.326648    6.759270    6.339121
     11          1           0        0.549546    6.307868    6.816279
     12          6           0        1.726821    6.134616    5.095836
     13          1           0        2.007886    5.090373    5.251247
     14          1           0        2.598901    6.671588    4.709906
     15          6           0        0.593583    6.243455    4.057588
     16          8           0       -0.275744    7.128198    4.119411
     17          7           0        0.658680    5.339736    3.060479
     18          1           0        1.264113    4.530666    3.200447
     19          6           0       -0.271163    5.330510    1.953598
     20          1           0       -0.926502    6.199649    2.072133
     21          1           0        0.270198    5.445631    1.006015
     22          6           0       -1.139382    4.066500    1.926599
     23          8           0       -1.490731    3.478273    2.948192
     24          7           0       -1.514267    3.656541    0.686094
     25          1           0       -1.237218    4.211838   -0.112981
     26          6           0       -2.456170    2.561899    0.481807
     27          1           0       -3.098890    2.485563    1.360735
     28          1           0       -3.091870    2.793188   -0.377908
     29          6           0       -1.854763    1.165466    0.250906
     30          8           0       -2.591327    0.189993    0.234108
     31          7           0       -0.512722    1.104100    0.046138
     32          1           0        0.076613    1.920519    0.146144
     33          6           0        0.168474   -0.160977   -0.121248
     34          1           0        0.255420   -0.433131   -1.184036
     35          1           0       -0.423871   -0.944779    0.361133
     36          6           0        1.575497   -0.044799    0.459294
     37          8           0        2.154672    1.044164    0.508834
     38          7           0        2.144309   -1.201598    0.876908
     39          1           0        1.585090   -2.042610    0.919314
     40          6           0        3.495126   -1.237554    1.434947
     41          1           0        3.807580   -2.279554    1.512140
     42          1           0        4.173959   -0.708180    0.760546
     43          6           0        3.513424   -0.628862    2.846369
     44          8           0        3.228850   -1.293820    3.841616
     45          7           0        3.832189    0.694171    2.887473
     46          1           0        3.727575    1.201145    2.012903
     47          6           0        3.720151    1.451538    4.129091
     48          1           0        4.120779    0.837099    4.939673
     49          1           0        4.308914    2.365888    4.044243
     50          6           0        2.262039    1.839913    4.406422
     51          8           0        1.838076    2.988961    4.223589
     52          7           0        1.464321    0.828122    4.806159
     53          1           0        1.877426   -0.099869    4.872107
     54          6           0        0.019335    0.984183    4.848151
     55          1           0       -0.420662   -0.014677    4.916728
     56          1           0       -0.331293    1.456296    3.925899
     57          6           0       -0.478362    1.764188    6.071128
     58          8           0       -0.214148    1.408697    7.222497
     59          7           0       -1.280724    2.819063    5.784763
     60          1           0       -1.357584    3.148726    4.822493
     61          6           0       -2.024416    3.507170    6.828933
     62          1           0       -2.475935    2.765350    7.496651
     63          1           0       -2.815516    4.095553    6.362618
     64          6           0       -1.155602    4.464632    7.650861
     65          8           0       -1.213418    5.704269    7.503407
     66          7           0       -0.323143    3.898685    8.532769
     67          1           0       -0.223609    2.880507    8.480023
     68          6           0        0.586731    4.700924    9.339235
     69          1           0        1.345636    5.195823    8.726614
     70          1           0        1.088872    4.028620   10.040419
     71          6           0       -0.130054    5.787503   10.140496
     72          8           0        0.179338    6.959348   10.137769
     73          8           0       -1.123487    5.278488   10.888023
     74          1           0       -1.511868    6.016775   11.395828
 ---------------------------------------------------------------------
 Rotational constants (GHZ):           0.1249785           0.0498701           0.0455852
 Standard basis: 6-31G(d) (6D, 7F)
   681 basis functions,  1280 primitive gaussians,   681 cartesian basis functions
   155 alpha electrons      155 beta electrons
       nuclear repulsion energy      5356.4318151937 Hartrees.
 NAtoms=   74 NActive=   74 NUniq=   74 SFac= 1.00D+00 NAtFMM=   60 NAOKFM=T Big=T
 Integral buffers will be    131072 words long.
 Raffenetti 2 integral format.
 Two-electron integral symmetry is turned off.
 One-electron integrals computed using PRISM.
 NBasis=   681 RedAO= T EigKep=  2.39D-03  NBF=   681
 NBsUse=   681 1.00D-06 EigRej= -1.00D+00 NBFU=   681
 Initial guess from the checkpoint file:  "conf-876.chk"
 B after Tr=     0.000000    0.000000    0.000000
         Rot=    1.000000    0.000000    0.000000    0.000000 Ang=   0.00 deg.
 Requested convergence on RMS density matrix=1.00D-08 within 128 cycles.
 Requested convergence on MAX density matrix=1.00D-06.
 Requested convergence on             energy=1.00D-06.
 No special actions if energy rises.
 SCF Done:  E(RB3LYP) =  -2156.96113869     A.U. after    1 cycles
            NFock=  1  Conv=0.77D-08     -V/T= 2.0092

 **********************************************************************

            Population analysis using the SCF Density.

 **********************************************************************

 Alpha  occ. eigenvalues --  -19.29843 -19.25199 -19.24443 -19.24085 -19.23904
 Alpha  occ. eigenvalues --  -19.22820 -19.22647 -19.22541 -19.21893 -19.21671
 Alpha  occ. eigenvalues --  -19.19599 -14.55942 -14.48348 -14.47863 -14.47448
 Alpha  occ. eigenvalues --  -14.47164 -14.46160 -14.46076 -14.46037 -14.45902
 Alpha  occ. eigenvalues --  -14.45069 -10.42869 -10.41359 -10.41032 -10.40501
 Alpha  occ. eigenvalues --  -10.40016 -10.39832 -10.39206 -10.38912 -10.38655
 Alpha  occ. eigenvalues --  -10.37531 -10.36103 -10.34454 -10.34331 -10.33888
 Alpha  occ. eigenvalues --  -10.33003 -10.32996 -10.32760 -10.32590 -10.32588
 Alpha  occ. eigenvalues --  -10.32543  -1.20963  -1.16313  -1.15844  -1.15345
 Alpha  occ. eigenvalues --   -1.14737  -1.14362  -1.14186  -1.13426  -1.13044
 Alpha  occ. eigenvalues --   -1.11919  -1.11842  -1.10478  -1.04302  -1.04182
 Alpha  occ. eigenvalues --   -1.03695  -1.03198  -1.02977  -1.02591  -1.02315
 Alpha  occ. eigenvalues --   -1.01650  -1.01066  -0.88006  -0.87784  -0.86726
 Alpha  occ. eigenvalues --   -0.86009  -0.84811  -0.83359  -0.82102  -0.80428
 Alpha  occ. eigenvalues --   -0.79180  -0.78095  -0.73560  -0.71444  -0.71094
 Alpha  occ. eigenvalues --   -0.70655  -0.70385  -0.69981  -0.69590  -0.68749
 Alpha  occ. eigenvalues --   -0.68012  -0.67913  -0.67589  -0.67248  -0.65774
 Alpha  occ. eigenvalues --   -0.64354  -0.64080  -0.63713  -0.63034  -0.62478
 Alpha  occ. eigenvalues --   -0.61523  -0.61268  -0.60122  -0.60036  -0.59441
 Alpha  occ. eigenvalues --   -0.59205  -0.58677  -0.58348  -0.57997  -0.57581
 Alpha  occ. eigenvalues --   -0.57097  -0.56736  -0.56501  -0.56228  -0.55962
 Alpha  occ. eigenvalues --   -0.55856  -0.54911  -0.54443  -0.54151  -0.53790
 Alpha  occ. eigenvalues --   -0.53442  -0.53280  -0.52857  -0.52227  -0.51851
 Alpha  occ. eigenvalues --   -0.51726  -0.51288  -0.51214  -0.51170  -0.50977
 Alpha  occ. eigenvalues --   -0.50438  -0.50095  -0.49522  -0.49119  -0.48897
 Alpha  occ. eigenvalues --   -0.48577  -0.48537  -0.48149  -0.47917  -0.47546
 Alpha  occ. eigenvalues --   -0.47289  -0.47151  -0.46856  -0.46407  -0.44303
 Alpha  occ. eigenvalues --   -0.42242  -0.39904  -0.39223  -0.39054  -0.38930
 Alpha  occ. eigenvalues --   -0.38573  -0.38299  -0.38203  -0.37708  -0.37182
 Alpha  occ. eigenvalues --   -0.37090  -0.36760  -0.36462  -0.35713  -0.35486
 Alpha  occ. eigenvalues --   -0.34829  -0.34530  -0.34313  -0.33737  -0.33160
 Alpha virt. eigenvalues --   -0.11258  -0.10824  -0.09933  -0.09758  -0.09503
 Alpha virt. eigenvalues --   -0.08842  -0.08528  -0.08133  -0.07490  -0.05847
 Alpha virt. eigenvalues --   -0.05776  -0.03516  -0.02271  -0.01630  -0.00328
 Alpha virt. eigenvalues --    0.00391   0.00835   0.01487   0.02065   0.02329
 Alpha virt. eigenvalues --    0.02561   0.02950   0.03321   0.03589   0.03808
 Alpha virt. eigenvalues --    0.04222   0.04332   0.04653   0.04835   0.05157
 Alpha virt. eigenvalues --    0.05603   0.05703   0.06230   0.06657   0.07052
 Alpha virt. eigenvalues --    0.07137   0.07568   0.07945   0.08135   0.08311
 Alpha virt. eigenvalues --    0.08998   0.09115   0.09887   0.10112   0.10778
 Alpha virt. eigenvalues --    0.11133   0.11274   0.11711   0.12219   0.12395
 Alpha virt. eigenvalues --    0.12666   0.12741   0.13283   0.13409   0.13627
 Alpha virt. eigenvalues --    0.13943   0.14568   0.15009   0.15804   0.16800
 Alpha virt. eigenvalues --    0.17310   0.18325   0.18957   0.20082   0.21557
 Alpha virt. eigenvalues --    0.21801   0.22371   0.22857   0.24116   0.25041
 Alpha virt. eigenvalues --    0.25307   0.26093   0.26291   0.27500   0.27979
 Alpha virt. eigenvalues --    0.28202   0.28759   0.29168   0.29389   0.30078
 Alpha virt. eigenvalues --    0.31835   0.32564   0.35158   0.37413   0.37994
 Alpha virt. eigenvalues --    0.39198   0.40276   0.40524   0.40863   0.41678
 Alpha virt. eigenvalues --    0.41838   0.41941   0.42634   0.42759   0.42991
 Alpha virt. eigenvalues --    0.43259   0.43621   0.43858   0.44134   0.44540
 Alpha virt. eigenvalues --    0.44673   0.44787   0.45493   0.45997   0.46560
 Alpha virt. eigenvalues --    0.47023   0.47568   0.47870   0.48025   0.48485
 Alpha virt. eigenvalues --    0.49261   0.49586   0.49674   0.49856   0.50174
 Alpha virt. eigenvalues --    0.51584   0.51814   0.52225   0.52818   0.53314
 Alpha virt. eigenvalues --    0.53874   0.54067   0.54310   0.55118   0.55368
 Alpha virt. eigenvalues --    0.56244   0.56616   0.56829   0.56949   0.57612
 Alpha virt. eigenvalues --    0.57851   0.58142   0.58383   0.58689   0.59604
 Alpha virt. eigenvalues --    0.60153   0.60455   0.60618   0.61367   0.61674
 Alpha virt. eigenvalues --    0.62207   0.62401   0.62852   0.63648   0.64368
 Alpha virt. eigenvalues --    0.65375   0.67394   0.67912   0.68394   0.68689
 Alpha virt. eigenvalues --    0.68913   0.69148   0.69731   0.70272   0.70962
 Alpha virt. eigenvalues --    0.71372   0.71715   0.71822   0.72320   0.72537
 Alpha virt. eigenvalues --    0.72692   0.73256   0.73624   0.73943   0.74145
 Alpha virt. eigenvalues --    0.74239   0.74729   0.75034   0.75229   0.75336
 Alpha virt. eigenvalues --    0.75843   0.76595   0.76852   0.77306   0.77505
 Alpha virt. eigenvalues --    0.78222   0.78633   0.79405   0.79786   0.79975
 Alpha virt. eigenvalues --    0.80054   0.80637   0.81000   0.81645   0.81985
 Alpha virt. eigenvalues --    0.82290   0.82879   0.83009   0.83580   0.84092
 Alpha virt. eigenvalues --    0.84301   0.84678   0.85352   0.85752   0.86462
 Alpha virt. eigenvalues --    0.86562   0.87035   0.87507   0.88572   0.88925
 Alpha virt. eigenvalues --    0.89034   0.89663   0.90100   0.90281   0.91052
 Alpha virt. eigenvalues --    0.91854   0.92476   0.93237   0.93532   0.94480
 Alpha virt. eigenvalues --    0.94861   0.95405   0.97025   0.97202   0.98736
 Alpha virt. eigenvalues --    0.98860   0.99692   0.99989   1.00346   1.00755
 Alpha virt. eigenvalues --    1.01997   1.02445   1.03202   1.03809   1.04845
 Alpha virt. eigenvalues --    1.05031   1.05349   1.06584   1.06812   1.08331
 Alpha virt. eigenvalues --    1.08468   1.09332   1.09715   1.11251   1.11807
 Alpha virt. eigenvalues --    1.12079   1.13346   1.14641   1.15277   1.15750
 Alpha virt. eigenvalues --    1.16782   1.17245   1.17591   1.18091   1.18460
 Alpha virt. eigenvalues --    1.19439   1.19551   1.20660   1.21950   1.22416
 Alpha virt. eigenvalues --    1.22765   1.23485   1.23938   1.25472   1.26669
 Alpha virt. eigenvalues --    1.27187   1.27686   1.27869   1.28991   1.29841
 Alpha virt. eigenvalues --    1.30336   1.31482   1.32162   1.32563   1.33195
 Alpha virt. eigenvalues --    1.34165   1.34327   1.35017   1.35861   1.36472
 Alpha virt. eigenvalues --    1.37039   1.37946   1.38390   1.38781   1.39393
 Alpha virt. eigenvalues --    1.39872   1.40859   1.41849   1.42174   1.42839
 Alpha virt. eigenvalues --    1.43211   1.44460   1.45930   1.46262   1.46793
 Alpha virt. eigenvalues --    1.48808   1.49310   1.50544   1.53608   1.54270
 Alpha virt. eigenvalues --    1.54918   1.55957   1.56793   1.58121   1.58708
 Alpha virt. eigenvalues --    1.59195   1.60387   1.60708   1.61636   1.61740
 Alpha virt. eigenvalues --    1.62233   1.62975   1.63237   1.64173   1.64386
 Alpha virt. eigenvalues --    1.65032   1.65541   1.66243   1.66755   1.67254
 Alpha virt. eigenvalues --    1.67797   1.68131   1.68365   1.68606   1.69328
 Alpha virt. eigenvalues --    1.69628   1.69840   1.70521   1.71078   1.71281
 Alpha virt. eigenvalues --    1.71643   1.71836   1.72663   1.73113   1.73292
 Alpha virt. eigenvalues --    1.73941   1.74560   1.74714   1.74969   1.75507
 Alpha virt. eigenvalues --    1.76127   1.76977   1.77201   1.77483   1.77781
 Alpha virt. eigenvalues --    1.78565   1.78662   1.79431   1.79953   1.80191
 Alpha virt. eigenvalues --    1.80782   1.81193   1.81330   1.81970   1.82281
 Alpha virt. eigenvalues --    1.82950   1.83135   1.83590   1.83984   1.85087
 Alpha virt. eigenvalues --    1.85267   1.85730   1.86458   1.86645   1.87477
 Alpha virt. eigenvalues --    1.87627   1.88092   1.88553   1.89786   1.90675
 Alpha virt. eigenvalues --    1.90976   1.91690   1.92702   1.93048   1.95114
 Alpha virt. eigenvalues --    1.95243   1.95845   1.96178   1.96461   1.96998
 Alpha virt. eigenvalues --    1.97471   1.98254   1.98971   1.99529   1.99851
 Alpha virt. eigenvalues --    2.01443   2.01860   2.02601   2.03237   2.04802
 Alpha virt. eigenvalues --    2.05846   2.06373   2.06772   2.07472   2.08343
 Alpha virt. eigenvalues --    2.09629   2.11589   2.13078   2.13735   2.14479
 Alpha virt. eigenvalues --    2.14824   2.16801   2.18413   2.18984   2.19582
 Alpha virt. eigenvalues --    2.21265   2.21469   2.21784   2.22344   2.23325
 Alpha virt. eigenvalues --    2.23792   2.24486   2.25195   2.25779   2.26568
 Alpha virt. eigenvalues --    2.26659   2.28529   2.29294   2.29718   2.30349
 Alpha virt. eigenvalues --    2.30936   2.31038   2.32537   2.32765   2.33016
 Alpha virt. eigenvalues --    2.33387   2.33629   2.35412   2.35928   2.36912
 Alpha virt. eigenvalues --    2.38045   2.38206   2.38727   2.39490   2.40024
 Alpha virt. eigenvalues --    2.40614   2.42222   2.42945   2.43768   2.45742
 Alpha virt. eigenvalues --    2.47182   2.47770   2.48073   2.49302   2.50052
 Alpha virt. eigenvalues --    2.52020   2.52473   2.53553   2.54669   2.55162
 Alpha virt. eigenvalues --    2.55974   2.56383   2.57461   2.58675   2.59276
 Alpha virt. eigenvalues --    2.59631   2.60681   2.61477   2.61948   2.62712
 Alpha virt. eigenvalues --    2.63015   2.63892   2.64552   2.65640   2.65935
 Alpha virt. eigenvalues --    2.73262   2.73721   2.76617   2.77380   2.78231
 Alpha virt. eigenvalues --    2.79608   2.80206   2.82374   2.83951   2.85342
 Alpha virt. eigenvalues --    2.87764   2.88981   2.90071   2.90177   2.90345
 Alpha virt. eigenvalues --    2.90905   2.91680   2.92666   2.93207   2.94519
 Alpha virt. eigenvalues --    2.97482   3.00467   3.01475   3.01843   3.02705
 Alpha virt. eigenvalues --    3.04011   3.04433   3.04971   3.06337   3.09537
 Alpha virt. eigenvalues --    3.72364   3.72892   3.82929   3.84412   3.85563
 Alpha virt. eigenvalues --    3.87434   3.88159   3.88693   3.92938   3.93129
 Alpha virt. eigenvalues --    3.97404   3.98273   3.98864   3.99359   4.02218
 Alpha virt. eigenvalues --    4.05045   4.05640   4.06837   4.08734   4.09827
 Alpha virt. eigenvalues --    4.14371   4.16509   4.17322   4.18073   4.20621
 Alpha virt. eigenvalues --    4.22048   4.22786   4.25302   4.25619   4.25783
 Alpha virt. eigenvalues --    4.30407   4.36728   4.38380   4.38512   4.43607
 Alpha virt. eigenvalues --    4.44665   4.46334   4.48119   4.50619   4.51630
 Alpha virt. eigenvalues --    4.53800
          Condensed to atoms (all electrons):
 Mulliken charges:
               1
     1  N   -0.798270
     2  H    0.436824
     3  H    0.401062
     4  H    0.448899
     5  C   -0.295881
     6  H    0.228776
     7  H    0.266171
     8  C    0.573442
     9  O   -0.453182
    10  N   -0.603532
    11  H    0.374623
    12  C   -0.281906
    13  H    0.213598
    14  H    0.233120
    15  C    0.619765
    16  O   -0.563953
    17  N   -0.588323
    18  H    0.393232
    19  C   -0.240975
    20  H    0.228867
    21  H    0.178889
    22  C    0.609908
    23  O   -0.516939
    24  N   -0.607288
    25  H    0.350917
    26  C   -0.233229
    27  H    0.219918
    28  H    0.203918
    29  C    0.604673
    30  O   -0.499817
    31  N   -0.606628
    32  H    0.344517
    33  C   -0.200302
    34  H    0.205091
    35  H    0.198738
    36  C    0.605923
    37  O   -0.544061
    38  N   -0.585911
    39  H    0.356089
    40  C   -0.231934
    41  H    0.203451
    42  H    0.197299
    43  C    0.592879
    44  O   -0.517924
    45  N   -0.565363
    46  H    0.368966
    47  C   -0.236712
    48  H    0.208447
    49  H    0.187261
    50  C    0.594124
    51  O   -0.554218
    52  N   -0.563465
    53  H    0.384468
    54  C   -0.250662
    55  H    0.199257
    56  H    0.194536
    57  C    0.621938
    58  O   -0.533926
    59  N   -0.616358
    60  H    0.408053
    61  C   -0.229384
    62  H    0.207277
    63  H    0.188841
    64  C    0.612527
    65  O   -0.593057
    66  N   -0.566899
    67  H    0.398340
    68  C   -0.214587
    69  H    0.203342
    70  H    0.212764
    71  C    0.588198
    72  O   -0.462606
    73  O   -0.538464
    74  H    0.426824
 Sum of Mulliken charges =   1.00000
 Mulliken charges with hydrogens summed into heavy atoms:
               1
     1  N    0.488516
     5  C    0.199067
     8  C    0.573442
     9  O   -0.453182
    10  N   -0.228909
    12  C    0.164811
    15  C    0.619765
    16  O   -0.563953
    17  N   -0.195092
    19  C    0.166781
    22  C    0.609908
    23  O   -0.516939
    24  N   -0.256371
    26  C    0.190608
    29  C    0.604673
    30  O   -0.499817
    31  N   -0.262111
    33  C    0.203528
    36  C    0.605923
    37  O   -0.544061
    38  N   -0.229822
    40  C    0.168816
    43  C    0.592879
    44  O   -0.517924
    45  N   -0.196397
    47  C    0.158996
    50  C    0.594124
    51  O   -0.554218
    52  N   -0.178997
    54  C    0.143131
    57  C    0.621938
    58  O   -0.533926
    59  N   -0.208305
    61  C    0.166735
    64  C    0.612527
    65  O   -0.593057
    66  N   -0.168559
    68  C    0.201520
    71  C    0.588198
    72  O   -0.462606
    73  O   -0.111640
 Electronic spatial extent (au):  <R**2>=          59747.0271
 Charge=              1.0000 electrons
 Dipole moment (field-independent basis, Debye):
    X=             -1.1976    Y=             21.5466    Z=             21.2924  Tot=             30.3159
 Quadrupole moment (field-independent basis, Debye-Ang):
   XX=           -215.0234   YY=            -82.2683   ZZ=            -59.4275
   XY=            -52.1116   XZ=            -30.0097   YZ=            137.7176
 Traceless Quadrupole moment (field-independent basis, Debye-Ang):
   XX=            -96.1170   YY=             36.6381   ZZ=             59.4789
   XY=            -52.1116   XZ=            -30.0097   YZ=            137.7176
 Octapole moment (field-independent basis, Debye-Ang**2):
  XXX=           -247.3438  YYY=          -1318.8572  ZZZ=          -1562.8536  XYY=           -515.7221
  XXY=           -729.2085  XXZ=           -942.9375  XZZ=           -370.3281  YZZ=            354.8849
  YYZ=            -84.4832  XYZ=           -287.0309
 Hexadecapole moment (field-independent basis, Debye-Ang**3):
 XXXX=          -4609.4832 YYYY=         -19855.9159 ZZZZ=         -26242.5118 XXXY=           -228.1594
 XXXZ=          -1023.2717 YYYX=          -3753.6168 YYYZ=          -6695.9634 ZZZX=          -3264.3099
 ZZZY=          -4251.7657 XXYY=          -5341.2746 XXZZ=          -6991.9296 YYZZ=          -3917.4312
 XXYZ=          -4325.7203 YYXZ=          -3095.5573 ZZXY=          -2284.0902
 N-N= 5.356431815194D+03 E-N=-1.572174647201D+04  KE= 2.137348338387D+03
 Unable to Open any file for archive entry.
 1\1\GINC-LAC-260\SP\RB3LYP\6-31G(d)\C20H33N10O11(1+)\KENGMITH\09-Jul-2
 022\0\\# B3LYP/6-31G* guess=read geom=check nosymm integral(ultrafineg
 rid)\\Candidate Structure: Conf:876 Charge calc in gas phase\\1,1\N,0,
 -1.0658940117,8.2867286446,6.5468178024\H,0,-1.4129035647,7.3974186946
 ,6.9558854463\H,0,-1.7994662351,8.9968279512,6.6089338982\H,0,-0.86245
 66447,8.053876076,5.5409214412\C,0,0.2166095497,8.7255759914,7.2419877
 99\H,0,0.284532925,9.8113761379,7.2019582434\H,0,0.1825603504,8.371243
 9964,8.2760913016\C,0,1.3819360787,8.1295953565,6.4380734125\O,0,2.205
 4317394,8.8347256756,5.8891424794\N,0,1.3266484077,6.759270223,6.33912
 08966\H,0,0.5495461166,6.3078677587,6.8162790778\C,0,1.7268214523,6.13
 46160588,5.0958357395\H,0,2.0078863303,5.0903732294,5.2512470907\H,0,2
 .5989007472,6.6715881721,4.7099060991\C,0,0.593583482,6.2434551435,4.0
 575883741\O,0,-0.2757441398,7.1281975728,4.1194111717\N,0,0.6586798494
 ,5.3397355971,3.0604793725\H,0,1.2641126297,4.5306659153,3.2004468192\
 C,0,-0.2711633287,5.33051016,1.9535977145\H,0,-0.9265017693,6.19964889
 37,2.0721334529\H,0,0.2701981129,5.4456313355,1.0060148884\C,0,-1.1393
 816089,4.0664999256,1.9265986681\O,0,-1.4907305926,3.4782727402,2.9481
 919354\N,0,-1.5142671784,3.6565413682,0.6860936691\H,0,-1.2372176012,4
 .2118376953,-0.1129810079\C,0,-2.4561696824,2.5618987772,0.4818067081\
 H,0,-3.0988896425,2.4855628125,1.3607352907\H,0,-3.0918700422,2.793187
 567,-0.3779078954\C,0,-1.8547633253,1.1654658437,0.2509058252\O,0,-2.5
 913270865,0.1899926925,0.2341084636\N,0,-0.5127224456,1.1040995317,0.0
 461380182\H,0,0.0766127314,1.9205194976,0.1461437287\C,0,0.1684740081,
 -0.1609769173,-0.1212481147\H,0,0.2554200506,-0.4331306779,-1.18403613
 76\H,0,-0.4238705075,-0.9447786884,0.3611334154\C,0,1.5754970857,-0.04
 47988461,0.4592941124\O,0,2.1546716312,1.0441644872,0.5088343913\N,0,2
 .1443087582,-1.2015975944,0.87690797\H,0,1.5850904109,-2.0426095864,0.
 9193141242\C,0,3.4951259778,-1.2375543606,1.4349467988\H,0,3.807580346
 3,-2.2795539187,1.5121398821\H,0,4.1739594203,-0.7081795859,0.76054584
 44\C,0,3.5134239466,-0.6288615336,2.846369184\O,0,3.2288497304,-1.2938
 201967,3.8416164466\N,0,3.832188962,0.6941706997,2.8874725612\H,0,3.72
 75747194,1.2011451019,2.012903485\C,0,3.7201508076,1.4515378673,4.1290
 914204\H,0,4.1207794342,0.8370991415,4.9396732687\H,0,4.3089137221,2.3
 658879353,4.0442434604\C,0,2.2620387815,1.8399132701,4.4064222558\O,0,
 1.8380762041,2.9889610784,4.2235894994\N,0,1.4643211082,0.8281215341,4
 .8061592647\H,0,1.8774256556,-0.0998686069,4.8721072808\C,0,0.01933501
 04,0.9841829436,4.8481514101\H,0,-0.4206622031,-0.0146767782,4.9167277
 224\H,0,-0.3312930298,1.4562955538,3.9258985632\C,0,-0.4783624815,1.76
 41876479,6.0711281276\O,0,-0.2141480807,1.4086966304,7.2224972175\N,0,
 -1.2807240717,2.8190633252,5.7847627109\H,0,-1.3575836025,3.1487264438
 ,4.8224930522\C,0,-2.0244155191,3.5071703678,6.8289330346\H,0,-2.47593
 46808,2.7653495358,7.4966506032\H,0,-2.8155160704,4.0955533046,6.36261
 76195\C,0,-1.1556016953,4.4646323327,7.65086114\O,0,-1.2134178976,5.70
 42690525,7.5034072271\N,0,-0.3231431256,3.8986848938,8.5327689139\H,0,
 -0.2236085822,2.8805073689,8.4800227893\C,0,0.586731021,4.7009243568,9
 .3392354412\H,0,1.345636403,5.1958231979,8.7266136888\H,0,1.0888722569
 ,4.0286197472,10.0404191465\C,0,-0.1300543635,5.7875033321,10.14049602
 01\O,0,0.1793378808,6.9593479765,10.1377690908\O,0,-1.1234874465,5.278
 4875004,10.8880231265\H,0,-1.5118678083,6.0167746286,11.3958282263\\Ve
 rsion=ES64L-G16RevC.01\HF=-2156.9611387\RMSD=7.660e-09\Dipole=-1.22899
 73,2.0147362,-0.0874561\Quadrupole=-71.4606307,27.2395261,44.2211046,-
 38.7437252,-22.3115022,102.3896926\PG=C01 [X(C20H33N10O11)]\\@
 The archive entry for this job was punched.


     SCHOPENHAUER'S LAW OF ENTROPY
 IF YOU PUT A SPOONFUL OF WINE IN A BARREL FULL
 OF SEWAGE, YOU GET SEWAGE.
 IF YOU PUT A SPOONFUL OF SEWAGE IN A BARREL FULL
 OF WINE, YOU GET SEWAGE.
 Job cpu time:       0 days  0 hours  2 minutes  4.9 seconds.
 Elapsed time:       0 days  0 hours  0 minutes 31.8 seconds.
 File lengths (MBytes):  RWF=    352 Int=      0 D2E=      0 Chk=     48 Scr=     16
 Normal termination of Gaussian 16 at Sat Jul  9 19:21:32 2022.
