 Entering Gaussian System, Link 0=/opt/software/Gaussian/g16-AVX2-C.01/g16/g16
 Input=charge-conf-474.com
 Output=charge-conf-474.log
 Initial command:
 /opt/software/Gaussian/g16-AVX2-C.01/g16/l1.exe "/mnt/gs18/scratch/users/kengmith/Gau-24355.inp" -scrdir="/mnt/gs18/scratch/users/kengmith/"
 Entering Link 1 = /opt/software/Gaussian/g16-AVX2-C.01/g16/l1.exe PID=     24365.
  
 Copyright (c) 1988-2019, Gaussian, Inc.  All Rights Reserved.
  
 This is part of the Gaussian(R) 16 program.  It is based on
 the Gaussian(R) 09 system (copyright 2009, Gaussian, Inc.),
 the Gaussian(R) 03 system (copyright 2003, Gaussian, Inc.),
 the Gaussian(R) 98 system (copyright 1998, Gaussian, Inc.),
 the Gaussian(R) 94 system (copyright 1995, Gaussian, Inc.),
 the Gaussian 92(TM) system (copyright 1992, Gaussian, Inc.),
 the Gaussian 90(TM) system (copyright 1990, Gaussian, Inc.),
 the Gaussian 88(TM) system (copyright 1988, Gaussian, Inc.),
 the Gaussian 86(TM) system (copyright 1986, Carnegie Mellon
 University), and the Gaussian 82(TM) system (copyright 1983,
 Carnegie Mellon University). Gaussian is a federally registered
 trademark of Gaussian, Inc.
  
 This software contains proprietary and confidential information,
 including trade secrets, belonging to Gaussian, Inc.
  
 This software is provided under written license and may be
 used, copied, transmitted, or stored only in accord with that
 written license.
  
 The following legend is applicable only to US Government
 contracts under FAR:
  
                    RESTRICTED RIGHTS LEGEND
  
 Use, reproduction and disclosure by the US Government is
 subject to restrictions as set forth in subparagraphs (a)
 and (c) of the Commercial Computer Software - Restricted
 Rights clause in FAR 52.227-19.
  
 Gaussian, Inc.
 340 Quinnipiac St., Bldg. 40, Wallingford CT 06492
  
  
 ---------------------------------------------------------------
 Warning -- This program may not be used in any manner that
 competes with the business of Gaussian, Inc. or will provide
 assistance to any competitor of Gaussian, Inc.  The licensee
 of this program is prohibited from giving any competitor of
 Gaussian, Inc. access to this program.  By using this program,
 the user acknowledges that Gaussian, Inc. is engaged in the
 business of creating and licensing software in the field of
 computational chemistry and represents and warrants to the
 licensee that it is not a competitor of Gaussian, Inc. and that
 it will not use this program in any manner prohibited above.
 ---------------------------------------------------------------
  

 Cite this work as:
 Gaussian 16, Revision C.01,
 M. J. Frisch, G. W. Trucks, H. B. Schlegel, G. E. Scuseria, 
 M. A. Robb, J. R. Cheeseman, G. Scalmani, V. Barone, 
 G. A. Petersson, H. Nakatsuji, X. Li, M. Caricato, A. V. Marenich, 
 J. Bloino, B. G. Janesko, R. Gomperts, B. Mennucci, H. P. Hratchian, 
 J. V. Ortiz, A. F. Izmaylov, J. L. Sonnenberg, D. Williams-Young, 
 F. Ding, F. Lipparini, F. Egidi, J. Goings, B. Peng, A. Petrone, 
 T. Henderson, D. Ranasinghe, V. G. Zakrzewski, J. Gao, N. Rega, 
 G. Zheng, W. Liang, M. Hada, M. Ehara, K. Toyota, R. Fukuda, 
 J. Hasegawa, M. Ishida, T. Nakajima, Y. Honda, O. Kitao, H. Nakai, 
 T. Vreven, K. Throssell, J. A. Montgomery, Jr., J. E. Peralta, 
 F. Ogliaro, M. J. Bearpark, J. J. Heyd, E. N. Brothers, K. N. Kudin, 
 V. N. Staroverov, T. A. Keith, R. Kobayashi, J. Normand, 
 K. Raghavachari, A. P. Rendell, J. C. Burant, S. S. Iyengar, 
 J. Tomasi, M. Cossi, J. M. Millam, M. Klene, C. Adamo, R. Cammi, 
 J. W. Ochterski, R. L. Martin, K. Morokuma, O. Farkas, 
 J. B. Foresman, and D. J. Fox, Gaussian, Inc., Wallingford CT, 2019.
 
 ******************************************
 Gaussian 16:  ES64L-G16RevC.01  3-Jul-2019
                 9-Jul-2022 
 ******************************************
 %mem=8gb
 %nproc=4
 Will use up to    4 processors via shared memory.
 %chk=conf-474.chk
 -------------------------------------------------------------------
 # B3LYP/6-31G* guess=read geom=check nosymm integral(ultrafinegrid)
 -------------------------------------------------------------------
 1/29=2,38=1,172=1/1;
 2/12=2,15=1,40=1/2;
 3/5=1,6=6,7=1,11=2,14=-4,25=1,30=1,74=-5,75=-5,116=-2/1,2,3;
 4/5=1/1;
 5/5=2,38=6/2;
 6/7=2,8=2,9=2,10=2,28=1/1;
 99/5=1,9=1/99;
 ------------------------------------------------------
 Candidate Structure: Conf:474 Charge calc in gas phase
 ------------------------------------------------------
 Structure from the checkpoint file:  "conf-474.chk"
 Charge =  1 Multiplicity = 1
 Redundant internal coordinates found in file.  (old form).
 N,0,-8.7307828831,4.1058729651,-3.089367492
 H,0,-9.1898251693,3.9143643388,-2.1942847235
 H,0,-9.1456929024,4.952864988,-3.487990798
 H,0,-8.8720248251,3.2784992536,-3.7565949603
 C,0,-7.2291684933,4.1538274974,-2.9983558489
 H,0,-6.8688533795,5.1205792612,-3.3539856339
 H,0,-6.9174390613,4.0168172831,-1.9615868815
 C,0,-6.7701924678,2.9818038774,-3.908784899
 O,0,-7.6604433085,2.3244411174,-4.4660646784
 N,0,-5.4638912479,2.7833978748,-4.016756159
 H,0,-4.7804142593,3.3582670841,-3.4992442635
 C,0,-4.9006663618,1.6703677551,-4.8067159908
 H,0,-5.197072447,1.770624807,-5.8567543251
 H,0,-5.2573775532,0.7106628229,-4.428255826
 C,0,-3.3880142188,1.770903614,-4.5985032756
 O,0,-2.7992131096,1.0424054448,-3.8091058644
 N,0,-2.8003450941,2.8256819796,-5.2319887685
 H,0,-3.3963591853,3.4214144947,-5.7913770386
 C,0,-1.649304766,3.4545874866,-4.6088239274
 H,0,-0.7752205105,2.7980398534,-4.6258564655
 H,0,-1.3951587966,4.3542120261,-5.1770480018
 C,0,-1.9906640017,3.834831097,-3.1510526008
 O,0,-3.1659857816,3.974368009,-2.7655395687
 N,0,-0.925085723,3.99087555,-2.3514563818
 H,0,-0.016698639,3.676267996,-2.7035987769
 C,0,-1.0533983322,4.1639575625,-0.904253497
 H,0,-0.3433517491,4.9150693808,-0.5540576465
 H,0,-2.0719220074,4.4946848827,-0.6947571821
 C,0,-0.7023026679,2.8311672491,-0.2241706506
 O,0,0.4129923052,2.6298964606,0.2359948044
 N,0,-1.6709855582,1.8663947268,-0.2658267341
 H,0,-2.5308729309,2.0626102847,-0.7611087622
 C,0,-1.3247963226,0.4796333514,0.0464223137
 H,0,-2.2291876886,-0.1285071896,-0.0491531311
 H,0,-0.9538154365,0.4027558303,1.0697656686
 C,0,-0.2037240822,-0.0529086854,-0.8674752825
 O,0,0.791471558,-0.6093257418,-0.4215349911
 N,0,-0.3842706409,0.17781186,-2.2024945974
 H,0,-1.2147910179,0.6466705357,-2.5464882068
 C,0,0.7515078734,0.1013810224,-3.1097269051
 H,0,1.3052687015,-0.8224382116,-2.9267879893
 H,0,0.3873509365,0.1058115626,-4.1381394521
 C,0,1.6199388869,1.3434034188,-2.8791422252
 O,0,1.3557845885,2.4299391086,-3.4419104634
 N,0,2.608517005,1.2009395203,-1.9841430137
 H,0,2.616643397,0.3306408589,-1.4607154153
 C,0,3.3548929818,2.3262528374,-1.4143610909
 H,0,2.6564144376,3.1421412682,-1.1979416248
 H,0,3.7927772708,1.99410988,-0.4741812097
 C,0,4.5129214293,2.8261067789,-2.294657004
 O,0,5.6671954541,2.8397428134,-1.8783698801
 N,0,4.1572907443,3.2908269545,-3.525510504
 H,0,3.1813210261,3.198742922,-3.7956123236
 C,0,5.1651142599,3.594472198,-4.5352468154
 H,0,4.671336914,3.6445649471,-5.5095563948
 H,0,5.9079811907,2.7921373967,-4.5800495192
 C,0,5.9711157147,4.8899806549,-4.3438566114
 O,0,6.9463151822,5.0986954122,-5.0485077032
 N,0,5.5220275666,5.7398440729,-3.3763067489
 H,0,4.7165314424,5.4524057114,-2.8390047789
 C,0,6.2880017362,6.8863195397,-2.9255619856
 H,0,5.6991670615,7.8073630783,-2.9781545439
 H,0,7.1335324326,6.991299515,-3.6122645226
 C,0,6.8336918318,6.7848609708,-1.4936197246
 O,0,7.1702635572,7.7986528782,-0.8961579545
 N,0,6.8998161518,5.5291486344,-0.9622987214
 H,0,6.6987339562,4.721562499,-1.5426061732
 C,0,7.5271531184,5.2991062769,0.3174769882
 H,0,6.9488819275,4.5862578748,0.9132373084
 H,0,7.5429867254,6.2538835645,0.8527428002
 C,0,8.9615588473,4.7823269313,0.2770643334
 O,0,9.5311294672,4.335410189,1.2463235544
 O,0,9.5314775098,4.8914085714,-0.9415306756
 H,0,10.4443624303,4.560005714,-0.8439508056
 Recover connectivity data from disk.
                           ----------------------------
                           !    Current Parameters    !
                           ! (Angstroms and Degrees)  !
 --------------------------                            --------------------------
 ! Name  Definition              Value                                          !
 --------------------------------------------------------------------------------
 ! R1    R(1,2)                  1.024                                          !
 ! R2    R(1,3)                  1.0239                                         !
 ! R3    R(1,4)                  1.0722                                         !
 ! R4    R(1,5)                  1.5051                                         !
 ! R5    R(5,6)                  1.0913                                         !
 ! R6    R(5,7)                  1.0913                                         !
 ! R7    R(5,8)                  1.5534                                         !
 ! R8    R(8,9)                  1.239                                          !
 ! R9    R(8,10)                 1.3257                                         !
 ! R10   R(10,11)                1.0322                                         !
 ! R11   R(10,12)                1.4765                                         !
 ! R12   R(12,13)                1.0957                                         !
 ! R13   R(12,14)                1.0916                                         !
 ! R14   R(12,15)                1.5302                                         !
 ! R15   R(15,16)                1.225                                          !
 ! R16   R(15,17)                1.3635                                         !
 ! R17   R(17,18)                1.0115                                         !
 ! R18   R(17,19)                1.4522                                         !
 ! R19   R(19,20)                1.0933                                         !
 ! R20   R(19,21)                1.094                                          !
 ! R21   R(19,22)                1.5447                                         !
 ! R22   R(22,23)                1.2448                                         !
 ! R23   R(22,24)                1.3413                                         !
 ! R24   R(24,25)                1.0238                                         !
 ! R25   R(24,26)                1.4632                                         !
 ! R26   R(26,27)                1.0913                                         !
 ! R27   R(26,28)                1.0912                                         !
 ! R28   R(26,29)                1.5369                                         !
 ! R29   R(29,30)                1.2232                                         !
 ! R30   R(29,31)                1.3678                                         !
 ! R31   R(31,32)                1.0115                                         !
 ! R32   R(31,33)                1.463                                          !
 ! R33   R(33,34)                1.094                                          !
 ! R34   R(33,35)                1.0912                                         !
 ! R35   R(33,36)                1.5413                                         !
 ! R36   R(36,37)                1.2243                                         !
 ! R37   R(36,38)                1.3668                                         !
 ! R38   R(38,39)                1.0139                                         !
 ! R39   R(38,40)                1.4556                                         !
 ! R40   R(40,41)                1.0925                                         !
 ! R41   R(40,42)                1.091                                          !
 ! R42   R(40,43)                1.533                                          !
 ! R43   R(43,44)                1.2518                                         !
 ! R44   R(43,45)                1.3411                                         !
 ! R45   R(45,46)                1.0156                                         !
 ! R46   R(45,47)                1.4656                                         !
 ! R47   R(47,48)                1.0956                                         !
 ! R48   R(47,49)                1.089                                          !
 ! R49   R(47,50)                1.5381                                         !
 ! R50   R(50,51)                1.2271                                         !
 ! R51   R(50,52)                1.3629                                         !
 ! R52   R(52,53)                1.0168                                         !
 ! R53   R(52,54)                1.4586                                         !
 ! R54   R(54,55)                1.0934                                         !
 ! R55   R(54,56)                1.0943                                         !
 ! R56   R(54,57)                1.5377                                         !
 ! R57   R(57,58)                1.2211                                         !
 ! R58   R(57,59)                1.3639                                         !
 ! R59   R(59,60)                1.01                                           !
 ! R60   R(59,61)                1.4506                                         !
 ! R61   R(61,62)                1.0944                                         !
 ! R62   R(61,63)                1.0943                                         !
 ! R63   R(61,64)                1.5358                                         !
 ! R64   R(64,65)                1.2239                                         !
 ! R65   R(64,66)                1.3651                                         !
 ! R66   R(66,67)                1.0146                                         !
 ! R67   R(66,68)                1.4437                                         !
 ! R68   R(68,69)                1.0943                                         !
 ! R69   R(68,70)                1.0947                                         !
 ! R70   R(68,71)                1.5252                                         !
 ! R71   R(71,72)                1.2098                                         !
 ! R72   R(71,73)                1.3497                                         !
 ! R73   R(73,74)                0.9761                                         !
 ! A1    A(2,1,3)              108.261                                          !
 ! A2    A(2,1,4)              109.9119                                         !
 ! A3    A(2,1,5)              113.5995                                         !
 ! A4    A(3,1,4)              110.0388                                         !
 ! A5    A(3,1,5)              113.6688                                         !
 ! A6    A(4,1,5)              101.1648                                         !
 ! A7    A(1,5,6)              109.7503                                         !
 ! A8    A(1,5,7)              109.782                                          !
 ! A9    A(1,5,8)              103.6087                                         !
 ! A10   A(6,5,7)              109.0575                                         !
 ! A11   A(6,5,8)              112.323                                          !
 ! A12   A(7,5,8)              112.1903                                         !
 ! A13   A(5,8,9)              116.8455                                         !
 ! A14   A(5,8,10)             116.8583                                         !
 ! A15   A(9,8,10)             126.296                                          !
 ! A16   A(8,10,11)            121.8898                                         !
 ! A17   A(8,10,12)            122.1591                                         !
 ! A18   A(11,10,12)           115.8164                                         !
 ! A19   A(10,12,13)           109.9113                                         !
 ! A20   A(10,12,14)           110.647                                          !
 ! A21   A(10,12,15)           104.7589                                         !
 ! A22   A(13,12,14)           108.9244                                         !
 ! A23   A(13,12,15)           113.0671                                         !
 ! A24   A(14,12,15)           109.4889                                         !
 ! A25   A(12,15,16)           121.5848                                         !
 ! A26   A(12,15,17)           114.4343                                         !
 ! A27   A(16,15,17)           123.5233                                         !
 ! A28   A(15,17,18)           117.2964                                         !
 ! A29   A(15,17,19)           118.5072                                         !
 ! A30   A(18,17,19)           116.7005                                         !
 ! A31   A(17,19,20)           111.5271                                         !
 ! A32   A(17,19,21)           108.5051                                         !
 ! A33   A(17,19,22)           109.6588                                         !
 ! A34   A(20,19,21)           107.4576                                         !
 ! A35   A(20,19,22)           109.8273                                         !
 ! A36   A(21,19,22)           109.821                                          !
 ! A37   A(19,22,23)           121.9051                                         !
 ! A38   A(19,22,24)           114.56                                           !
 ! A39   A(23,22,24)           123.5339                                         !
 ! A40   A(22,24,25)           117.6507                                         !
 ! A41   A(22,24,26)           122.257                                          !
 ! A42   A(25,24,26)           117.0245                                         !
 ! A43   A(24,26,27)           109.9838                                         !
 ! A44   A(24,26,28)           107.9153                                         !
 ! A45   A(24,26,29)           108.3643                                         !
 ! A46   A(27,26,28)           109.7001                                         !
 ! A47   A(27,26,29)           107.8318                                         !
 ! A48   A(28,26,29)           113.0238                                         !
 ! A49   A(26,29,30)           121.162                                          !
 ! A50   A(26,29,31)           115.8748                                         !
 ! A51   A(30,29,31)           122.7614                                         !
 ! A52   A(29,31,32)           118.6933                                         !
 ! A53   A(29,31,33)           119.6367                                         !
 ! A54   A(32,31,33)           119.3087                                         !
 ! A55   A(31,33,34)           108.2185                                         !
 ! A56   A(31,33,35)           110.3267                                         !
 ! A57   A(31,33,36)           111.9047                                         !
 ! A58   A(34,33,35)           108.8931                                         !
 ! A59   A(34,33,36)           110.9415                                         !
 ! A60   A(35,33,36)           106.5251                                         !
 ! A61   A(33,36,37)           122.1614                                         !
 ! A62   A(33,36,38)           115.135                                          !
 ! A63   A(37,36,38)           122.6752                                         !
 ! A64   A(36,38,39)           121.1764                                         !
 ! A65   A(36,38,40)           119.7907                                         !
 ! A66   A(39,38,40)           116.8706                                         !
 ! A67   A(38,40,41)           109.6047                                         !
 ! A68   A(38,40,42)           109.0777                                         !
 ! A69   A(38,40,43)           107.8022                                         !
 ! A70   A(41,40,42)           109.2971                                         !
 ! A71   A(41,40,43)           111.8872                                         !
 ! A72   A(42,40,43)           109.1227                                         !
 ! A73   A(40,43,44)           121.0692                                         !
 ! A74   A(40,43,45)           115.5884                                         !
 ! A75   A(44,43,45)           123.2137                                         !
 ! A76   A(43,45,46)           116.1593                                         !
 ! A77   A(43,45,47)           123.5913                                         !
 ! A78   A(46,45,47)           116.9692                                         !
 ! A79   A(45,47,48)           108.8992                                         !
 ! A80   A(45,47,49)           107.8314                                         !
 ! A81   A(45,47,50)           114.232                                          !
 ! A82   A(48,47,49)           108.2355                                         !
 ! A83   A(48,47,50)           110.5501                                         !
 ! A84   A(49,47,50)           106.8868                                         !
 ! A85   A(47,50,51)           121.1747                                         !
 ! A86   A(47,50,52)           115.5458                                         !
 ! A87   A(51,50,52)           123.2324                                         !
 ! A88   A(50,52,53)           117.3531                                         !
 ! A89   A(50,52,54)           121.0573                                         !
 ! A90   A(53,52,54)           119.878                                          !
 ! A91   A(52,54,55)           108.3222                                         !
 ! A92   A(52,54,56)           110.1666                                         !
 ! A93   A(52,54,57)           116.8329                                         !
 ! A94   A(55,54,56)           107.6771                                         !
 ! A95   A(55,54,57)           107.9992                                         !
 ! A96   A(56,54,57)           105.4838                                         !
 ! A97   A(54,57,58)           119.3913                                         !
 ! A98   A(54,57,59)           116.1475                                         !
 ! A99   A(58,57,59)           124.4605                                         !
 ! A100  A(57,59,60)           117.5588                                         !
 ! A101  A(57,59,61)           122.619                                          !
 ! A102  A(60,59,61)           118.7332                                         !
 ! A103  A(59,61,62)           111.4748                                         !
 ! A104  A(59,61,63)           106.7875                                         !
 ! A105  A(59,61,64)           115.1591                                         !
 ! A106  A(62,61,63)           107.7474                                         !
 ! A107  A(62,61,64)           106.9523                                         !
 ! A108  A(63,61,64)           108.4754                                         !
 ! A109  A(61,64,65)           119.8772                                         !
 ! A110  A(61,64,66)           116.1608                                         !
 ! A111  A(65,64,66)           123.9602                                         !
 ! A112  A(64,66,67)           119.9984                                         !
 ! A113  A(64,66,68)           120.8401                                         !
 ! A114  A(67,66,68)           117.7948                                         !
 ! A115  A(66,68,69)           110.9025                                         !
 ! A116  A(66,68,70)           107.5027                                         !
 ! A117  A(66,68,71)           116.0508                                         !
 ! A118  A(69,68,70)           108.0352                                         !
 ! A119  A(69,68,71)           106.8993                                         !
 ! A120  A(70,68,71)           107.15                                           !
 ! A121  A(68,71,72)           123.1419                                         !
 ! A122  A(68,71,73)           113.1825                                         !
 ! A123  A(72,71,73)           123.6702                                         !
 ! A124  A(71,73,74)           106.0944                                         !
 ! D1    D(2,1,5,6)           -122.4891                                         !
 ! D2    D(2,1,5,7)             -2.6334                                         !
 ! D3    D(2,1,5,8)            117.3688                                         !
 ! D4    D(3,1,5,6)              1.9022                                         !
 ! D5    D(3,1,5,7)            121.7579                                         !
 ! D6    D(3,1,5,8)           -118.2399                                         !
 ! D7    D(4,1,5,6)            119.7973                                         !
 ! D8    D(4,1,5,7)           -120.347                                          !
 ! D9    D(4,1,5,8)             -0.3447                                         !
 ! D10   D(1,5,8,9)              0.2462                                         !
 ! D11   D(1,5,8,10)          -179.8971                                         !
 ! D12   D(6,5,8,9)           -118.1295                                         !
 ! D13   D(6,5,8,10)            61.7272                                         !
 ! D14   D(7,5,8,9)            118.5937                                         !
 ! D15   D(7,5,8,10)           -61.5497                                         !
 ! D16   D(5,8,10,11)            1.8871                                         !
 ! D17   D(5,8,10,12)          177.4894                                         !
 ! D18   D(9,8,10,11)         -178.2716                                         !
 ! D19   D(9,8,10,12)           -2.6692                                         !
 ! D20   D(8,10,12,13)          61.198                                          !
 ! D21   D(8,10,12,14)         -59.1402                                         !
 ! D22   D(8,10,12,15)        -177.042                                          !
 ! D23   D(11,10,12,13)       -122.9494                                         !
 ! D24   D(11,10,12,14)        116.7123                                         !
 ! D25   D(11,10,12,15)         -1.1895                                         !
 ! D26   D(10,12,15,16)        100.7359                                         !
 ! D27   D(10,12,15,17)        -71.7616                                         !
 ! D28   D(13,12,15,16)       -139.5957                                         !
 ! D29   D(13,12,15,17)         47.9068                                         !
 ! D30   D(14,12,15,16)        -17.9518                                         !
 ! D31   D(14,12,15,17)        169.5508                                         !
 ! D32   D(12,15,17,18)         -1.5725                                         !
 ! D33   D(12,15,17,19)        147.2619                                         !
 ! D34   D(16,15,17,18)       -173.9052                                         !
 ! D35   D(16,15,17,19)        -25.0707                                         !
 ! D36   D(15,17,19,20)         69.3821                                         !
 ! D37   D(15,17,19,21)       -172.4472                                         !
 ! D38   D(15,17,19,22)        -52.4955                                         !
 ! D39   D(18,17,19,20)       -141.6005                                         !
 ! D40   D(18,17,19,21)        -23.4297                                         !
 ! D41   D(18,17,19,22)         96.5219                                         !
 ! D42   D(17,19,22,23)        -21.3135                                         !
 ! D43   D(17,19,22,24)        158.3445                                         !
 ! D44   D(20,19,22,23)       -144.2026                                         !
 ! D45   D(20,19,22,24)         35.4554                                         !
 ! D46   D(21,19,22,23)         97.8315                                         !
 ! D47   D(21,19,22,24)        -82.5105                                         !
 ! D48   D(19,22,24,25)        -11.5979                                         !
 ! D49   D(19,22,24,26)       -171.1887                                         !
 ! D50   D(23,22,24,25)        168.0538                                         !
 ! D51   D(23,22,24,26)          8.463                                          !
 ! D52   D(22,24,26,27)       -139.6677                                         !
 ! D53   D(22,24,26,28)        -20.0286                                         !
 ! D54   D(22,24,26,29)        102.6837                                         !
 ! D55   D(25,24,26,27)         60.6214                                         !
 ! D56   D(25,24,26,28)       -179.7395                                         !
 ! D57   D(25,24,26,29)        -57.0272                                         !
 ! D58   D(24,26,29,30)         97.7595                                         !
 ! D59   D(24,26,29,31)        -77.2164                                         !
 ! D60   D(27,26,29,30)        -21.2563                                         !
 ! D61   D(27,26,29,31)        163.7678                                         !
 ! D62   D(28,26,29,30)       -142.6866                                         !
 ! D63   D(28,26,29,31)         42.3376                                         !
 ! D64   D(26,29,31,32)          2.3519                                         !
 ! D65   D(26,29,31,33)        164.7966                                         !
 ! D66   D(30,29,31,32)       -172.5355                                         !
 ! D67   D(30,29,31,33)        -10.0908                                         !
 ! D68   D(29,31,33,34)       -179.6578                                         !
 ! D69   D(29,31,33,35)         61.2997                                         !
 ! D70   D(29,31,33,36)        -57.1169                                         !
 ! D71   D(32,31,33,34)        -17.3214                                         !
 ! D72   D(32,31,33,35)       -136.3639                                         !
 ! D73   D(32,31,33,36)        105.2195                                         !
 ! D74   D(31,33,36,37)        129.7552                                         !
 ! D75   D(31,33,36,38)        -48.3523                                         !
 ! D76   D(34,33,36,37)       -109.2687                                         !
 ! D77   D(34,33,36,38)         72.6237                                         !
 ! D78   D(35,33,36,37)          9.1026                                         !
 ! D79   D(35,33,36,38)       -169.0049                                         !
 ! D80   D(33,36,38,39)         -1.4687                                         !
 ! D81   D(33,36,38,40)        161.2975                                         !
 ! D82   D(37,36,38,39)       -179.5654                                         !
 ! D83   D(37,36,38,40)        -16.7992                                         !
 ! D84   D(36,38,40,41)         48.6645                                         !
 ! D85   D(36,38,40,42)        168.2927                                         !
 ! D86   D(36,38,40,43)        -73.3405                                         !
 ! D87   D(39,38,40,41)       -147.8445                                         !
 ! D88   D(39,38,40,42)        -28.2162                                         !
 ! D89   D(39,38,40,43)         90.1506                                         !
 ! D90   D(38,40,43,44)        -83.8187                                         !
 ! D91   D(38,40,43,45)         92.1859                                         !
 ! D92   D(41,40,43,44)        155.5988                                         !
 ! D93   D(41,40,43,45)        -28.3966                                         !
 ! D94   D(42,40,43,44)         34.5192                                         !
 ! D95   D(42,40,43,45)       -149.4761                                         !
 ! D96   D(40,43,45,46)         -7.4817                                         !
 ! D97   D(40,43,45,47)       -166.3555                                         !
 ! D98   D(44,43,45,46)        168.4277                                         !
 ! D99   D(44,43,45,47)          9.5539                                         !
 ! D100  D(43,45,47,48)         40.8184                                         !
 ! D101  D(43,45,47,49)        158.049                                          !
 ! D102  D(43,45,47,50)        -83.3045                                         !
 ! D103  D(46,45,47,48)       -117.8983                                         !
 ! D104  D(46,45,47,49)         -0.6677                                         !
 ! D105  D(46,45,47,50)        117.9788                                         !
 ! D106  D(45,47,50,51)       -121.4415                                         !
 ! D107  D(45,47,50,52)         60.9764                                         !
 ! D108  D(48,47,50,51)        115.3239                                         !
 ! D109  D(48,47,50,52)        -62.2582                                         !
 ! D110  D(49,47,50,51)         -2.2604                                         !
 ! D111  D(49,47,50,52)       -179.8425                                         !
 ! D112  D(47,50,52,53)         -5.1137                                         !
 ! D113  D(47,50,52,54)       -170.1864                                         !
 ! D114  D(51,50,52,53)        177.3596                                         !
 ! D115  D(51,50,52,54)         12.2869                                         !
 ! D116  D(50,52,54,55)        162.601                                          !
 ! D117  D(50,52,54,56)         45.0604                                         !
 ! D118  D(50,52,54,57)        -75.2381                                         !
 ! D119  D(53,52,54,55)         -2.0996                                         !
 ! D120  D(53,52,54,56)       -119.6403                                         !
 ! D121  D(53,52,54,57)        120.0613                                         !
 ! D122  D(52,54,57,58)        169.866                                          !
 ! D123  D(52,54,57,59)        -10.4082                                         !
 ! D124  D(55,54,57,58)        -67.8051                                         !
 ! D125  D(55,54,57,59)        111.9206                                         !
 ! D126  D(56,54,57,58)         47.112                                          !
 ! D127  D(56,54,57,59)       -133.1623                                         !
 ! D128  D(54,57,59,60)          1.7291                                         !
 ! D129  D(54,57,59,61)        169.6333                                         !
 ! D130  D(58,57,59,60)       -178.5607                                         !
 ! D131  D(58,57,59,61)        -10.6565                                         !
 ! D132  D(57,59,61,62)        126.8562                                         !
 ! D133  D(57,59,61,63)          9.4159                                         !
 ! D134  D(57,59,61,64)       -111.0745                                         !
 ! D135  D(60,59,61,62)        -65.3751                                         !
 ! D136  D(60,59,61,63)        177.1846                                         !
 ! D137  D(60,59,61,64)         56.6942                                         !
 ! D138  D(59,61,64,65)       -160.4848                                         !
 ! D139  D(59,61,64,66)         19.048                                          !
 ! D140  D(62,61,64,65)        -36.0125                                         !
 ! D141  D(62,61,64,66)        143.5202                                         !
 ! D142  D(63,61,64,65)         79.953                                          !
 ! D143  D(63,61,64,66)       -100.5142                                         !
 ! D144  D(61,64,66,67)          6.9723                                         !
 ! D145  D(61,64,66,68)        173.3339                                         !
 ! D146  D(65,64,66,67)       -173.5161                                         !
 ! D147  D(65,64,66,68)         -7.1546                                         !
 ! D148  D(64,66,68,69)        138.7045                                         !
 ! D149  D(64,66,68,70)         20.804                                          !
 ! D150  D(64,66,68,71)        -99.0839                                         !
 ! D151  D(67,66,68,69)        -54.6421                                         !
 ! D152  D(67,66,68,70)       -172.5425                                         !
 ! D153  D(67,66,68,71)         67.5695                                         !
 ! D154  D(66,68,71,72)       -167.1945                                         !
 ! D155  D(66,68,71,73)         13.6252                                         !
 ! D156  D(69,68,71,72)        -42.8922                                         !
 ! D157  D(69,68,71,73)        137.9274                                         !
 ! D158  D(70,68,71,72)         72.7268                                         !
 ! D159  D(70,68,71,73)       -106.4535                                         !
 ! D160  D(68,71,73,74)        178.3445                                         !
 ! D161  D(72,71,73,74)         -0.8309                                         !
 --------------------------------------------------------------------------------
 Symmetry turned off by external request.
 Stoichiometry    C20H33N10O11(1+)
 Framework group  C1[X(C20H33N10O11)]
 Deg. of freedom   216
 Full point group                 C1      NOp   1
                          Input orientation:                          
 ---------------------------------------------------------------------
 Center     Atomic      Atomic             Coordinates (Angstroms)
 Number     Number       Type             X           Y           Z
 ---------------------------------------------------------------------
      1          7           0       -8.730783    4.105873   -3.089367
      2          1           0       -9.189825    3.914364   -2.194285
      3          1           0       -9.145693    4.952865   -3.487991
      4          1           0       -8.872025    3.278499   -3.756595
      5          6           0       -7.229168    4.153827   -2.998356
      6          1           0       -6.868853    5.120579   -3.353986
      7          1           0       -6.917439    4.016817   -1.961587
      8          6           0       -6.770192    2.981804   -3.908785
      9          8           0       -7.660443    2.324441   -4.466065
     10          7           0       -5.463891    2.783398   -4.016756
     11          1           0       -4.780414    3.358267   -3.499244
     12          6           0       -4.900666    1.670368   -4.806716
     13          1           0       -5.197072    1.770625   -5.856754
     14          1           0       -5.257378    0.710663   -4.428256
     15          6           0       -3.388014    1.770904   -4.598503
     16          8           0       -2.799213    1.042405   -3.809106
     17          7           0       -2.800345    2.825682   -5.231989
     18          1           0       -3.396359    3.421414   -5.791377
     19          6           0       -1.649305    3.454587   -4.608824
     20          1           0       -0.775221    2.798040   -4.625856
     21          1           0       -1.395159    4.354212   -5.177048
     22          6           0       -1.990664    3.834831   -3.151053
     23          8           0       -3.165986    3.974368   -2.765540
     24          7           0       -0.925086    3.990876   -2.351456
     25          1           0       -0.016699    3.676268   -2.703599
     26          6           0       -1.053398    4.163958   -0.904253
     27          1           0       -0.343352    4.915069   -0.554058
     28          1           0       -2.071922    4.494685   -0.694757
     29          6           0       -0.702303    2.831167   -0.224171
     30          8           0        0.412992    2.629896    0.235995
     31          7           0       -1.670986    1.866395   -0.265827
     32          1           0       -2.530873    2.062610   -0.761109
     33          6           0       -1.324796    0.479633    0.046422
     34          1           0       -2.229188   -0.128507   -0.049153
     35          1           0       -0.953815    0.402756    1.069766
     36          6           0       -0.203724   -0.052909   -0.867475
     37          8           0        0.791472   -0.609326   -0.421535
     38          7           0       -0.384271    0.177812   -2.202495
     39          1           0       -1.214791    0.646671   -2.546488
     40          6           0        0.751508    0.101381   -3.109727
     41          1           0        1.305269   -0.822438   -2.926788
     42          1           0        0.387351    0.105812   -4.138139
     43          6           0        1.619939    1.343403   -2.879142
     44          8           0        1.355785    2.429939   -3.441910
     45          7           0        2.608517    1.200940   -1.984143
     46          1           0        2.616643    0.330641   -1.460715
     47          6           0        3.354893    2.326253   -1.414361
     48          1           0        2.656414    3.142141   -1.197942
     49          1           0        3.792777    1.994110   -0.474181
     50          6           0        4.512921    2.826107   -2.294657
     51          8           0        5.667195    2.839743   -1.878370
     52          7           0        4.157291    3.290827   -3.525511
     53          1           0        3.181321    3.198743   -3.795612
     54          6           0        5.165114    3.594472   -4.535247
     55          1           0        4.671337    3.644565   -5.509556
     56          1           0        5.907981    2.792137   -4.580050
     57          6           0        5.971116    4.889981   -4.343857
     58          8           0        6.946315    5.098695   -5.048508
     59          7           0        5.522028    5.739844   -3.376307
     60          1           0        4.716531    5.452406   -2.839005
     61          6           0        6.288002    6.886320   -2.925562
     62          1           0        5.699167    7.807363   -2.978155
     63          1           0        7.133532    6.991300   -3.612265
     64          6           0        6.833692    6.784861   -1.493620
     65          8           0        7.170264    7.798653   -0.896158
     66          7           0        6.899816    5.529149   -0.962299
     67          1           0        6.698734    4.721562   -1.542606
     68          6           0        7.527153    5.299106    0.317477
     69          1           0        6.948882    4.586258    0.913237
     70          1           0        7.542987    6.253884    0.852743
     71          6           0        8.961559    4.782327    0.277064
     72          8           0        9.531129    4.335410    1.246324
     73          8           0        9.531478    4.891409   -0.941531
     74          1           0       10.444362    4.560006   -0.843951
 ---------------------------------------------------------------------
 Rotational constants (GHZ):           0.1574079           0.0294866           0.0283400
 Standard basis: 6-31G(d) (6D, 7F)
   681 basis functions,  1280 primitive gaussians,   681 cartesian basis functions
   155 alpha electrons      155 beta electrons
       nuclear repulsion energy      4987.9033064488 Hartrees.
 NAtoms=   74 NActive=   74 NUniq=   74 SFac= 1.00D+00 NAtFMM=   60 NAOKFM=T Big=T
 Integral buffers will be    131072 words long.
 Raffenetti 2 integral format.
 Two-electron integral symmetry is turned off.
 One-electron integrals computed using PRISM.
 NBasis=   681 RedAO= T EigKep=  2.46D-03  NBF=   681
 NBsUse=   681 1.00D-06 EigRej= -1.00D+00 NBFU=   681
 Initial guess from the checkpoint file:  "conf-474.chk"
 B after Tr=     0.000000    0.000000    0.000000
         Rot=    1.000000    0.000000    0.000000    0.000000 Ang=   0.00 deg.
 Requested convergence on RMS density matrix=1.00D-08 within 128 cycles.
 Requested convergence on MAX density matrix=1.00D-06.
 Requested convergence on             energy=1.00D-06.
 No special actions if energy rises.
 SCF Done:  E(RB3LYP) =  -2156.90082905     A.U. after    3 cycles
            NFock=  3  Conv=0.62D-09     -V/T= 2.0092

 **********************************************************************

            Population analysis using the SCF Density.

 **********************************************************************

 Alpha  occ. eigenvalues --  -19.30267 -19.25983 -19.25364 -19.22941 -19.22900
 Alpha  occ. eigenvalues --  -19.21809 -19.20416 -19.19456 -19.16789 -19.16089
 Alpha  occ. eigenvalues --  -19.14598 -14.63645 -14.52677 -14.49768 -14.48393
 Alpha  occ. eigenvalues --  -14.46633 -14.46417 -14.44926 -14.43506 -14.41443
 Alpha  occ. eigenvalues --  -14.39472 -10.47036 -10.44061 -10.42974 -10.41964
 Alpha  occ. eigenvalues --  -10.39329 -10.38981 -10.37682 -10.37329 -10.36624
 Alpha  occ. eigenvalues --  -10.35497 -10.35223 -10.33941 -10.33597 -10.32337
 Alpha  occ. eigenvalues --  -10.32288 -10.32272 -10.31149 -10.29282 -10.26909
 Alpha  occ. eigenvalues --  -10.26735  -1.22698  -1.18101  -1.17193  -1.16189
 Alpha  occ. eigenvalues --   -1.14112  -1.13722  -1.13685  -1.12125  -1.11192
 Alpha  occ. eigenvalues --   -1.09290  -1.08313  -1.06648  -1.05968  -1.04740
 Alpha  occ. eigenvalues --   -1.04577  -1.02622  -1.02337  -1.00759  -0.99688
 Alpha  occ. eigenvalues --   -0.97577  -0.95417  -0.93617  -0.89084  -0.86699
 Alpha  occ. eigenvalues --   -0.85166  -0.83220  -0.81461  -0.80121  -0.78763
 Alpha  occ. eigenvalues --   -0.77458  -0.77394  -0.77380  -0.75349  -0.74745
 Alpha  occ. eigenvalues --   -0.72884  -0.70700  -0.69904  -0.69559  -0.68770
 Alpha  occ. eigenvalues --   -0.67293  -0.66513  -0.65974  -0.65251  -0.65208
 Alpha  occ. eigenvalues --   -0.63911  -0.63827  -0.63653  -0.63047  -0.62311
 Alpha  occ. eigenvalues --   -0.62132  -0.61530  -0.61203  -0.60673  -0.60187
 Alpha  occ. eigenvalues --   -0.59145  -0.59014  -0.57497  -0.57386  -0.56870
 Alpha  occ. eigenvalues --   -0.56728  -0.56391  -0.56047  -0.55668  -0.54946
 Alpha  occ. eigenvalues --   -0.54482  -0.53949  -0.53276  -0.52474  -0.51858
 Alpha  occ. eigenvalues --   -0.51796  -0.51424  -0.51269  -0.50709  -0.50579
 Alpha  occ. eigenvalues --   -0.50469  -0.49736  -0.49658  -0.49406  -0.48787
 Alpha  occ. eigenvalues --   -0.48552  -0.48434  -0.48102  -0.47512  -0.47286
 Alpha  occ. eigenvalues --   -0.47024  -0.46668  -0.45808  -0.45199  -0.45151
 Alpha  occ. eigenvalues --   -0.44483  -0.43788  -0.42871  -0.42686  -0.41841
 Alpha  occ. eigenvalues --   -0.41191  -0.40759  -0.39617  -0.39576  -0.39279
 Alpha  occ. eigenvalues --   -0.38833  -0.37903  -0.37253  -0.37116  -0.34824
 Alpha  occ. eigenvalues --   -0.34712  -0.34506  -0.33861  -0.33413  -0.32553
 Alpha  occ. eigenvalues --   -0.32081  -0.31618  -0.29652  -0.28351  -0.27798
 Alpha virt. eigenvalues --   -0.15385  -0.14716  -0.13065  -0.10991  -0.09445
 Alpha virt. eigenvalues --   -0.09321  -0.07965  -0.07461  -0.06740  -0.06055
 Alpha virt. eigenvalues --   -0.05318  -0.04067  -0.02845  -0.02463  -0.02316
 Alpha virt. eigenvalues --   -0.01977  -0.00764  -0.00024   0.01032   0.01072
 Alpha virt. eigenvalues --    0.01117   0.01314   0.02211   0.02626   0.03458
 Alpha virt. eigenvalues --    0.04059   0.04388   0.04553   0.04882   0.05281
 Alpha virt. eigenvalues --    0.05610   0.05947   0.06078   0.06903   0.07570
 Alpha virt. eigenvalues --    0.08278   0.08694   0.08989   0.09013   0.09337
 Alpha virt. eigenvalues --    0.09650   0.09851   0.10199   0.10974   0.11780
 Alpha virt. eigenvalues --    0.11939   0.12062   0.12250   0.12628   0.13173
 Alpha virt. eigenvalues --    0.13556   0.13624   0.14453   0.15176   0.15334
 Alpha virt. eigenvalues --    0.16056   0.16528   0.16887   0.17404   0.17637
 Alpha virt. eigenvalues --    0.18901   0.19742   0.20260   0.21207   0.21936
 Alpha virt. eigenvalues --    0.23290   0.23676   0.24149   0.25227   0.25554
 Alpha virt. eigenvalues --    0.26093   0.26578   0.27018   0.27614   0.28412
 Alpha virt. eigenvalues --    0.29791   0.30397   0.31294   0.31999   0.32233
 Alpha virt. eigenvalues --    0.32963   0.33251   0.35161   0.36346   0.36601
 Alpha virt. eigenvalues --    0.37191   0.38319   0.38484   0.39451   0.40862
 Alpha virt. eigenvalues --    0.41074   0.42007   0.42721   0.43707   0.43956
 Alpha virt. eigenvalues --    0.44038   0.44216   0.44612   0.45158   0.45729
 Alpha virt. eigenvalues --    0.45910   0.46360   0.46584   0.47011   0.47719
 Alpha virt. eigenvalues --    0.48303   0.48359   0.48812   0.49392   0.49977
 Alpha virt. eigenvalues --    0.50392   0.50531   0.51106   0.51364   0.51747
 Alpha virt. eigenvalues --    0.52108   0.52440   0.53123   0.53515   0.54097
 Alpha virt. eigenvalues --    0.54654   0.54982   0.55725   0.56185   0.56595
 Alpha virt. eigenvalues --    0.56832   0.57623   0.57642   0.57984   0.59161
 Alpha virt. eigenvalues --    0.59494   0.59605   0.60221   0.60434   0.60635
 Alpha virt. eigenvalues --    0.60938   0.61301   0.61988   0.62265   0.62656
 Alpha virt. eigenvalues --    0.62943   0.63182   0.63848   0.64160   0.64786
 Alpha virt. eigenvalues --    0.65047   0.65312   0.65612   0.65980   0.66274
 Alpha virt. eigenvalues --    0.66606   0.67136   0.67708   0.67847   0.68857
 Alpha virt. eigenvalues --    0.69948   0.70164   0.71426   0.71671   0.72479
 Alpha virt. eigenvalues --    0.72757   0.73504   0.73736   0.74037   0.74524
 Alpha virt. eigenvalues --    0.74964   0.75260   0.75512   0.75625   0.76060
 Alpha virt. eigenvalues --    0.76100   0.77146   0.77182   0.77640   0.77878
 Alpha virt. eigenvalues --    0.78063   0.78198   0.79096   0.79781   0.80343
 Alpha virt. eigenvalues --    0.80572   0.80830   0.81094   0.81306   0.81547
 Alpha virt. eigenvalues --    0.82145   0.82429   0.83167   0.83406   0.83642
 Alpha virt. eigenvalues --    0.83989   0.84868   0.85441   0.85619   0.86191
 Alpha virt. eigenvalues --    0.86637   0.87364   0.88349   0.88804   0.89339
 Alpha virt. eigenvalues --    0.90195   0.90429   0.90806   0.91316   0.92214
 Alpha virt. eigenvalues --    0.92637   0.93241   0.93969   0.94417   0.95053
 Alpha virt. eigenvalues --    0.95851   0.96004   0.96533   0.97800   0.98340
 Alpha virt. eigenvalues --    0.98663   0.99836   1.00419   1.00839   1.02141
 Alpha virt. eigenvalues --    1.02552   1.03162   1.03709   1.04258   1.04808
 Alpha virt. eigenvalues --    1.05198   1.06019   1.06492   1.07227   1.07885
 Alpha virt. eigenvalues --    1.08754   1.09483   1.09922   1.10871   1.11005
 Alpha virt. eigenvalues --    1.11511   1.12375   1.12394   1.13555   1.14006
 Alpha virt. eigenvalues --    1.15141   1.15861   1.16285   1.16521   1.17450
 Alpha virt. eigenvalues --    1.17870   1.18626   1.20115   1.20336   1.22546
 Alpha virt. eigenvalues --    1.23229   1.23992   1.24616   1.25130   1.25337
 Alpha virt. eigenvalues --    1.26692   1.27690   1.28566   1.29602   1.30492
 Alpha virt. eigenvalues --    1.31618   1.32516   1.33096   1.33267   1.33828
 Alpha virt. eigenvalues --    1.34481   1.35166   1.35945   1.37080   1.37464
 Alpha virt. eigenvalues --    1.37889   1.38632   1.39536   1.40117   1.41051
 Alpha virt. eigenvalues --    1.41952   1.42292   1.43130   1.44303   1.44763
 Alpha virt. eigenvalues --    1.44936   1.46174   1.46844   1.47178   1.48998
 Alpha virt. eigenvalues --    1.50353   1.51374   1.52443   1.53003   1.53349
 Alpha virt. eigenvalues --    1.54166   1.54719   1.54941   1.56173   1.56372
 Alpha virt. eigenvalues --    1.57376   1.58039   1.60401   1.60717   1.61091
 Alpha virt. eigenvalues --    1.62597   1.63366   1.63947   1.64761   1.64857
 Alpha virt. eigenvalues --    1.65768   1.66573   1.67029   1.67526   1.68064
 Alpha virt. eigenvalues --    1.68634   1.69525   1.69971   1.70979   1.71368
 Alpha virt. eigenvalues --    1.71574   1.72099   1.72323   1.72648   1.72956
 Alpha virt. eigenvalues --    1.73008   1.73469   1.74000   1.74261   1.74448
 Alpha virt. eigenvalues --    1.74839   1.75603   1.75850   1.76242   1.76718
 Alpha virt. eigenvalues --    1.77272   1.78222   1.78342   1.78977   1.79529
 Alpha virt. eigenvalues --    1.79830   1.80217   1.80627   1.81919   1.82399
 Alpha virt. eigenvalues --    1.82519   1.82776   1.83178   1.83603   1.83885
 Alpha virt. eigenvalues --    1.84086   1.84662   1.85263   1.86081   1.86763
 Alpha virt. eigenvalues --    1.87489   1.87622   1.87943   1.88396   1.88579
 Alpha virt. eigenvalues --    1.88698   1.89583   1.89748   1.90843   1.91115
 Alpha virt. eigenvalues --    1.91402   1.91632   1.92600   1.92737   1.92818
 Alpha virt. eigenvalues --    1.93722   1.94153   1.95266   1.96199   1.97218
 Alpha virt. eigenvalues --    1.97694   1.98472   2.00339   2.01147   2.02297
 Alpha virt. eigenvalues --    2.02863   2.03038   2.03626   2.03880   2.05819
 Alpha virt. eigenvalues --    2.06166   2.07041   2.07329   2.08435   2.09311
 Alpha virt. eigenvalues --    2.10106   2.11434   2.12304   2.13006   2.14147
 Alpha virt. eigenvalues --    2.14432   2.15748   2.16432   2.18227   2.19210
 Alpha virt. eigenvalues --    2.19994   2.20082   2.22206   2.22858   2.23709
 Alpha virt. eigenvalues --    2.25095   2.26184   2.26622   2.27273   2.28030
 Alpha virt. eigenvalues --    2.28697   2.28881   2.29344   2.29660   2.29971
 Alpha virt. eigenvalues --    2.30235   2.31444   2.32755   2.33071   2.33269
 Alpha virt. eigenvalues --    2.33883   2.35457   2.35498   2.36298   2.37859
 Alpha virt. eigenvalues --    2.38457   2.39103   2.40245   2.41643   2.41764
 Alpha virt. eigenvalues --    2.41941   2.43436   2.44480   2.45298   2.47007
 Alpha virt. eigenvalues --    2.47487   2.47706   2.48894   2.50103   2.50218
 Alpha virt. eigenvalues --    2.51206   2.52472   2.54635   2.55242   2.56400
 Alpha virt. eigenvalues --    2.57270   2.57863   2.59591   2.59686   2.60633
 Alpha virt. eigenvalues --    2.61005   2.61866   2.62262   2.62287   2.64902
 Alpha virt. eigenvalues --    2.65945   2.66677   2.67785   2.69404   2.70418
 Alpha virt. eigenvalues --    2.72958   2.73610   2.75204   2.76040   2.78606
 Alpha virt. eigenvalues --    2.80122   2.81107   2.81327   2.82198   2.86558
 Alpha virt. eigenvalues --    2.88321   2.90260   2.90389   2.91079   2.92118
 Alpha virt. eigenvalues --    2.92780   2.93433   2.94116   2.95228   2.98805
 Alpha virt. eigenvalues --    2.99102   3.01073   3.01949   3.03678   3.04044
 Alpha virt. eigenvalues --    3.05274   3.06522   3.07399   3.08997   3.12606
 Alpha virt. eigenvalues --    3.59318   3.75257   3.80914   3.84282   3.86336
 Alpha virt. eigenvalues --    3.87521   3.90963   3.91572   3.92933   3.94748
 Alpha virt. eigenvalues --    3.97554   3.99015   4.01346   4.02934   4.04216
 Alpha virt. eigenvalues --    4.05421   4.05917   4.06373   4.09847   4.11487
 Alpha virt. eigenvalues --    4.12778   4.13561   4.14049   4.15910   4.19622
 Alpha virt. eigenvalues --    4.21038   4.21455   4.22681   4.29321   4.29726
 Alpha virt. eigenvalues --    4.30559   4.31773   4.40532   4.41707   4.43644
 Alpha virt. eigenvalues --    4.45682   4.50370   4.50441   4.51822   4.56149
 Alpha virt. eigenvalues --    4.57878
          Condensed to atoms (all electrons):
 Mulliken charges:
               1
     1  N   -0.749815
     2  H    0.426518
     3  H    0.426111
     4  H    0.442075
     5  C   -0.275651
     6  H    0.250489
     7  H    0.251894
     8  C    0.637181
     9  O   -0.517214
    10  N   -0.648151
    11  H    0.412140
    12  C   -0.201003
    13  H    0.204983
    14  H    0.223657
    15  C    0.550523
    16  O   -0.489687
    17  N   -0.541358
    18  H    0.344864
    19  C   -0.268687
    20  H    0.232593
    21  H    0.207378
    22  C    0.619091
    23  O   -0.582772
    24  N   -0.599482
    25  H    0.399606
    26  C   -0.235022
    27  H    0.204832
    28  H    0.192124
    29  C    0.592362
    30  O   -0.486082
    31  N   -0.589673
    32  H    0.335093
    33  C   -0.230785
    34  H    0.181186
    35  H    0.221654
    36  C    0.609445
    37  O   -0.507425
    38  N   -0.603129
    39  H    0.371414
    40  C   -0.226047
    41  H    0.201260
    42  H    0.184603
    43  C    0.601191
    44  O   -0.587036
    45  N   -0.545132
    46  H    0.384120
    47  C   -0.240643
    48  H    0.194281
    49  H    0.209803
    50  C    0.580327
    51  O   -0.498626
    52  N   -0.621584
    53  H    0.368544
    54  C   -0.227535
    55  H    0.182142
    56  H    0.211107
    57  C    0.602770
    58  O   -0.497753
    59  N   -0.606098
    60  H    0.328672
    61  C   -0.227758
    62  H    0.178736
    63  H    0.228439
    64  C    0.589008
    65  O   -0.512217
    66  N   -0.611231
    67  H    0.376275
    68  C   -0.229635
    69  H    0.185521
    70  H    0.224520
    71  C    0.580611
    72  O   -0.456671
    73  O   -0.550453
    74  H    0.415214
 Sum of Mulliken charges =   1.00000
 Mulliken charges with hydrogens summed into heavy atoms:
               1
     1  N    0.544889
     5  C    0.226732
     8  C    0.637181
     9  O   -0.517214
    10  N   -0.236012
    12  C    0.227637
    15  C    0.550523
    16  O   -0.489687
    17  N   -0.196494
    19  C    0.171284
    22  C    0.619091
    23  O   -0.582772
    24  N   -0.199876
    26  C    0.161934
    29  C    0.592362
    30  O   -0.486082
    31  N   -0.254580
    33  C    0.172055
    36  C    0.609445
    37  O   -0.507425
    38  N   -0.231715
    40  C    0.159816
    43  C    0.601191
    44  O   -0.587036
    45  N   -0.161013
    47  C    0.163442
    50  C    0.580327
    51  O   -0.498626
    52  N   -0.253039
    54  C    0.165713
    57  C    0.602770
    58  O   -0.497753
    59  N   -0.277426
    61  C    0.179417
    64  C    0.589008
    65  O   -0.512217
    66  N   -0.234956
    68  C    0.180406
    71  C    0.580611
    72  O   -0.456671
    73  O   -0.135239
 Electronic spatial extent (au):  <R**2>=          55921.2177
 Charge=              1.0000 electrons
 Dipole moment (field-independent basis, Debye):
    X=            -40.8460    Y=             16.3746    Z=            -18.5943  Tot=             47.7732
 Quadrupole moment (field-independent basis, Debye-Ang):
   XX=            -28.6022   YY=           -186.4972   ZZ=           -173.8692
   XY=           -197.1809   XZ=             99.9946   YZ=            -66.1954
 Traceless Quadrupole moment (field-independent basis, Debye-Ang):
   XX=            101.0540   YY=            -56.8410   ZZ=            -44.2130
   XY=           -197.1809   XZ=             99.9946   YZ=            -66.1954
 Octapole moment (field-independent basis, Debye-Ang**2):
  XXX=          -3541.4914  YYY=          -2245.2316  ZZZ=           1413.2577  XYY=          -1310.0195
  XXY=              8.5284  XXZ=           -162.2790  XZZ=           -740.8665  YZZ=           -552.8657
  YYZ=            288.0451  XYZ=            514.9377
 Hexadecapole moment (field-independent basis, Debye-Ang**3):
 XXXX=         -19625.8769 YYYY=         -21826.1215 ZZZZ=         -11351.8465 XXXY=         -19115.7185
 XXXZ=           5668.7030 YYYX=         -11878.6147 YYYZ=           4210.6039 ZZZX=           1502.9686
 ZZZY=           4518.5774 XXYY=          -7358.7576 XXZZ=          -7224.4442 YYZZ=          -4608.2192
 XXYZ=          -1312.6207 YYXZ=           2342.8327 ZZXY=          -4236.5823
 N-N= 4.987903306449D+03 E-N=-1.498768018570D+04  KE= 2.137321032382D+03
 Unable to Open any file for archive entry.
 1\1\GINC-LAC-302\SP\RB3LYP\6-31G(d)\C20H33N10O11(1+)\KENGMITH\09-Jul-2
 022\0\\# B3LYP/6-31G* guess=read geom=check nosymm integral(ultrafineg
 rid)\\Candidate Structure: Conf:474 Charge calc in gas phase\\1,1\N,0,
 -8.7307828831,4.1058729651,-3.089367492\H,0,-9.1898251693,3.9143643388
 ,-2.1942847235\H,0,-9.1456929024,4.952864988,-3.487990798\H,0,-8.87202
 48251,3.2784992536,-3.7565949603\C,0,-7.2291684933,4.1538274974,-2.998
 3558489\H,0,-6.8688533795,5.1205792612,-3.3539856339\H,0,-6.9174390613
 ,4.0168172831,-1.9615868815\C,0,-6.7701924678,2.9818038774,-3.90878489
 9\O,0,-7.6604433085,2.3244411174,-4.4660646784\N,0,-5.4638912479,2.783
 3978748,-4.016756159\H,0,-4.7804142593,3.3582670841,-3.4992442635\C,0,
 -4.9006663618,1.6703677551,-4.8067159908\H,0,-5.197072447,1.770624807,
 -5.8567543251\H,0,-5.2573775532,0.7106628229,-4.428255826\C,0,-3.38801
 42188,1.770903614,-4.5985032756\O,0,-2.7992131096,1.0424054448,-3.8091
 058644\N,0,-2.8003450941,2.8256819796,-5.2319887685\H,0,-3.3963591853,
 3.4214144947,-5.7913770386\C,0,-1.649304766,3.4545874866,-4.6088239274
 \H,0,-0.7752205105,2.7980398534,-4.6258564655\H,0,-1.3951587966,4.3542
 120261,-5.1770480018\C,0,-1.9906640017,3.834831097,-3.1510526008\O,0,-
 3.1659857816,3.974368009,-2.7655395687\N,0,-0.925085723,3.99087555,-2.
 3514563818\H,0,-0.016698639,3.676267996,-2.7035987769\C,0,-1.053398332
 2,4.1639575625,-0.904253497\H,0,-0.3433517491,4.9150693808,-0.55405764
 65\H,0,-2.0719220074,4.4946848827,-0.6947571821\C,0,-0.7023026679,2.83
 11672491,-0.2241706506\O,0,0.4129923052,2.6298964606,0.2359948044\N,0,
 -1.6709855582,1.8663947268,-0.2658267341\H,0,-2.5308729309,2.062610284
 7,-0.7611087622\C,0,-1.3247963226,0.4796333514,0.0464223137\H,0,-2.229
 1876886,-0.1285071896,-0.0491531311\H,0,-0.9538154365,0.4027558303,1.0
 697656686\C,0,-0.2037240822,-0.0529086854,-0.8674752825\O,0,0.79147155
 8,-0.6093257418,-0.4215349911\N,0,-0.3842706409,0.17781186,-2.20249459
 74\H,0,-1.2147910179,0.6466705357,-2.5464882068\C,0,0.7515078734,0.101
 3810224,-3.1097269051\H,0,1.3052687015,-0.8224382116,-2.9267879893\H,0
 ,0.3873509365,0.1058115626,-4.1381394521\C,0,1.6199388869,1.3434034188
 ,-2.8791422252\O,0,1.3557845885,2.4299391086,-3.4419104634\N,0,2.60851
 7005,1.2009395203,-1.9841430137\H,0,2.616643397,0.3306408589,-1.460715
 4153\C,0,3.3548929818,2.3262528374,-1.4143610909\H,0,2.6564144376,3.14
 21412682,-1.1979416248\H,0,3.7927772708,1.99410988,-0.4741812097\C,0,4
 .5129214293,2.8261067789,-2.294657004\O,0,5.6671954541,2.8397428134,-1
 .8783698801\N,0,4.1572907443,3.2908269545,-3.525510504\H,0,3.181321026
 1,3.198742922,-3.7956123236\C,0,5.1651142599,3.594472198,-4.5352468154
 \H,0,4.671336914,3.6445649471,-5.5095563948\H,0,5.9079811907,2.7921373
 967,-4.5800495192\C,0,5.9711157147,4.8899806549,-4.3438566114\O,0,6.94
 63151822,5.0986954122,-5.0485077032\N,0,5.5220275666,5.7398440729,-3.3
 763067489\H,0,4.7165314424,5.4524057114,-2.8390047789\C,0,6.2880017362
 ,6.8863195397,-2.9255619856\H,0,5.6991670615,7.8073630783,-2.978154543
 9\H,0,7.1335324326,6.991299515,-3.6122645226\C,0,6.8336918318,6.784860
 9708,-1.4936197246\O,0,7.1702635572,7.7986528782,-0.8961579545\N,0,6.8
 998161518,5.5291486344,-0.9622987214\H,0,6.6987339562,4.721562499,-1.5
 426061732\C,0,7.5271531184,5.2991062769,0.3174769882\H,0,6.9488819275,
 4.5862578748,0.9132373084\H,0,7.5429867254,6.2538835645,0.8527428002\C
 ,0,8.9615588473,4.7823269313,0.2770643334\O,0,9.5311294672,4.335410189
 ,1.2463235544\O,0,9.5314775098,4.8914085714,-0.9415306756\H,0,10.44436
 24303,4.560005714,-0.8439508056\\Version=ES64L-G16RevC.01\HF=-2156.900
 8291\RMSD=6.226e-10\Dipole=-18.1963021,0.3181106,-2.8094926\Quadrupole
 =75.1311415,-42.2598576,-32.8712839,-146.5991504,74.3435586,-49.214683
 2\PG=C01 [X(C20H33N10O11)]\\@
 The archive entry for this job was punched.


 IT IS DOUBTED WHETHER A MAN EVER BRINGS HIS FACULTIES TO BEAR WITH THEIR FULL FORCE
 ON A SUBJECT UNTIL HE WRITES UPON IT.

                          -- CICERO
 Job cpu time:       0 days  0 hours  3 minutes 46.7 seconds.
 Elapsed time:       0 days  0 hours  0 minutes 57.4 seconds.
 File lengths (MBytes):  RWF=    360 Int=      0 D2E=      0 Chk=     48 Scr=     16
 Normal termination of Gaussian 16 at Sat Jul  9 19:21:58 2022.
