 Entering Gaussian System, Link 0=/opt/software/Gaussian/g16-AVX-C.01/g16/g16
 Input=charge-conf-156.com
 Output=charge-conf-156.log
 Initial command:
 /opt/software/Gaussian/g16-AVX-C.01/g16/l1.exe "/mnt/gs21/scratch/kengmith/Gau-43707.inp" -scrdir="/mnt/gs21/scratch/kengmith/"
 Entering Link 1 = /opt/software/Gaussian/g16-AVX-C.01/g16/l1.exe PID=     43724.
  
 Copyright (c) 1988-2019, Gaussian, Inc.  All Rights Reserved.
  
 This is part of the Gaussian(R) 16 program.  It is based on
 the Gaussian(R) 09 system (copyright 2009, Gaussian, Inc.),
 the Gaussian(R) 03 system (copyright 2003, Gaussian, Inc.),
 the Gaussian(R) 98 system (copyright 1998, Gaussian, Inc.),
 the Gaussian(R) 94 system (copyright 1995, Gaussian, Inc.),
 the Gaussian 92(TM) system (copyright 1992, Gaussian, Inc.),
 the Gaussian 90(TM) system (copyright 1990, Gaussian, Inc.),
 the Gaussian 88(TM) system (copyright 1988, Gaussian, Inc.),
 the Gaussian 86(TM) system (copyright 1986, Carnegie Mellon
 University), and the Gaussian 82(TM) system (copyright 1983,
 Carnegie Mellon University). Gaussian is a federally registered
 trademark of Gaussian, Inc.
  
 This software contains proprietary and confidential information,
 including trade secrets, belonging to Gaussian, Inc.
  
 This software is provided under written license and may be
 used, copied, transmitted, or stored only in accord with that
 written license.
  
 The following legend is applicable only to US Government
 contracts under FAR:
  
                    RESTRICTED RIGHTS LEGEND
  
 Use, reproduction and disclosure by the US Government is
 subject to restrictions as set forth in subparagraphs (a)
 and (c) of the Commercial Computer Software - Restricted
 Rights clause in FAR 52.227-19.
  
 Gaussian, Inc.
 340 Quinnipiac St., Bldg. 40, Wallingford CT 06492
  
  
 ---------------------------------------------------------------
 Warning -- This program may not be used in any manner that
 competes with the business of Gaussian, Inc. or will provide
 assistance to any competitor of Gaussian, Inc.  The licensee
 of this program is prohibited from giving any competitor of
 Gaussian, Inc. access to this program.  By using this program,
 the user acknowledges that Gaussian, Inc. is engaged in the
 business of creating and licensing software in the field of
 computational chemistry and represents and warrants to the
 licensee that it is not a competitor of Gaussian, Inc. and that
 it will not use this program in any manner prohibited above.
 ---------------------------------------------------------------
  

 Cite this work as:
 Gaussian 16, Revision C.01,
 M. J. Frisch, G. W. Trucks, H. B. Schlegel, G. E. Scuseria, 
 M. A. Robb, J. R. Cheeseman, G. Scalmani, V. Barone, 
 G. A. Petersson, H. Nakatsuji, X. Li, M. Caricato, A. V. Marenich, 
 J. Bloino, B. G. Janesko, R. Gomperts, B. Mennucci, H. P. Hratchian, 
 J. V. Ortiz, A. F. Izmaylov, J. L. Sonnenberg, D. Williams-Young, 
 F. Ding, F. Lipparini, F. Egidi, J. Goings, B. Peng, A. Petrone, 
 T. Henderson, D. Ranasinghe, V. G. Zakrzewski, J. Gao, N. Rega, 
 G. Zheng, W. Liang, M. Hada, M. Ehara, K. Toyota, R. Fukuda, 
 J. Hasegawa, M. Ishida, T. Nakajima, Y. Honda, O. Kitao, H. Nakai, 
 T. Vreven, K. Throssell, J. A. Montgomery, Jr., J. E. Peralta, 
 F. Ogliaro, M. J. Bearpark, J. J. Heyd, E. N. Brothers, K. N. Kudin, 
 V. N. Staroverov, T. A. Keith, R. Kobayashi, J. Normand, 
 K. Raghavachari, A. P. Rendell, J. C. Burant, S. S. Iyengar, 
 J. Tomasi, M. Cossi, J. M. Millam, M. Klene, C. Adamo, R. Cammi, 
 J. W. Ochterski, R. L. Martin, K. Morokuma, O. Farkas, 
 J. B. Foresman, and D. J. Fox, Gaussian, Inc., Wallingford CT, 2019.
 
 ******************************************
 Gaussian 16:  ES64L-G16RevC.01  3-Jul-2019
                13-Aug-2022 
 ******************************************
 %mem=8gb
 %nproc=4
 Will use up to    4 processors via shared memory.
 %chk=conf-156.chk
 ----------------------------------------------------------------------
 # B3LYP/6-31G* empiricaldispersion=gd3 guess=read geom=check nosymm in
 tegral(ultrafinegrid)
 ----------------------------------------------------------------------
 1/29=2,38=1,172=1/1;
 2/12=2,15=1,40=1/2;
 3/5=1,6=6,7=1,11=2,14=-4,25=1,30=1,74=-5,75=-5,116=-2,124=31/1,2,3;
 4/5=1/1;
 5/5=2,38=6/2;
 6/7=2,8=2,9=2,10=2,28=1/1;
 99/5=1,9=1/99;
 ------------------------------------------------------
 Candidate Structure: Conf:156 Charge calc in gas phase
 ------------------------------------------------------
 Structure from the checkpoint file:  "conf-156.chk"
 Charge =  1 Multiplicity = 1
 Redundant internal coordinates found in file.  (old form).
 N,0,-10.3095320717,4.1377585258,4.2588569038
 H,0,-10.9474477311,4.7160452864,3.7044522285
 H,0,-10.3901512695,3.1333234224,3.929954934
 H,0,-10.5633385545,4.2226935842,5.2472546858
 C,0,-8.8449470909,4.4442760716,3.9945756512
 H,0,-8.7834069009,5.4321721123,3.5316640445
 C,0,-8.4438625659,3.3105709479,3.0186923213
 C,0,-8.0466221402,4.4107059772,5.3265267644
 H,0,-8.5936899231,5.0813451471,6.0077056178
 O,0,-9.1859241957,2.3207138903,2.9573016754
 C,0,-7.9935229919,3.0027778488,5.9394368931
 H,0,-7.4211168875,2.3089614846,5.315849648
 H,0,-7.4987866721,3.0403277891,6.9128287764
 H,0,-8.9838805071,2.5582229489,6.0971163433
 C,0,-6.6364394853,4.9983618206,5.1549774709
 H,0,-5.9717037145,4.3312013998,4.5975788835
 H,0,-6.6569396027,5.976397234,4.6591536887
 H,0,-6.1894993055,5.1435571835,6.1428411595
 N,0,-7.3026730444,3.4686679049,2.346029964
 H,0,-6.711822303,4.2669913937,2.5541851044
 C,0,-6.5944929403,2.3466501686,1.7145379319
 H,0,-7.2478663783,1.4761224537,1.8064302951
 C,0,-5.3171789593,2.1630540487,2.5461606162
 C,0,-6.2909801813,2.5961140601,0.2117664234
 H,0,-7.2741037852,2.632354322,-0.2786288246
 O,0,-4.6620257017,3.1530026241,2.8994027676
 C,0,-5.5104250192,1.39535592,-0.3661588811
 H,0,-5.9795942492,0.4619335886,-0.0207830896
 H,0,-4.4898912932,1.3962213265,0.0399134216
 C,0,-5.5767329119,3.9325345663,-0.0366228768
 H,0,-4.6081850181,3.9689103521,0.4703133736
 H,0,-6.175102723,4.7822964062,0.3113724494
 H,0,-5.4101053321,4.0808842736,-1.1064190137
 C,0,-5.4524060932,1.3727364754,-1.8968116513
 H,0,-4.9281933165,0.4782346078,-2.246841873
 H,0,-6.4591703657,1.3654302044,-2.33060054
 H,0,-4.9170742832,2.2386372275,-2.2976446743
 N,0,-4.9809337333,0.9000973427,2.8604034759
 H,0,-5.5292390996,0.1331548949,2.4933327212
 C,0,-3.7573034073,0.5678623973,3.5978173102
 H,0,-3.5450179935,1.4330331726,4.2332848101
 C,0,-2.6138751909,0.3830467415,2.5778011014
 C,0,-3.9754576105,-0.6798013943,4.4632304916
 H,0,-3.0316391395,-0.8961849873,4.9741657074
 H,0,-4.1637702713,-1.5368016046,3.8071319587
 O,0,-2.1847059092,-0.7322038954,2.2834817847
 C,0,-5.0991910351,-0.4839366126,5.4568781052
 C,0,-4.8779062374,0.2168040328,6.6505844204
 H,0,-3.8799789899,0.5868105131,6.876128083
 C,0,-6.3887342788,-0.9622300164,5.1914391741
 H,0,-6.5741822307,-1.528367806,4.2805608283
 C,0,-5.9142894293,0.4226682791,7.5616186188
 H,0,-5.7177547822,0.9470298616,8.4930146918
 C,0,-7.4314333538,-0.7550595316,6.0973380217
 H,0,-8.4201933565,-1.1507990505,5.8815610547
 C,0,-7.1952555295,-0.0649614991,7.2878984342
 H,0,-7.9983492519,0.0768441538,8.0060850695
 N,0,-2.1917971773,1.534625683,2.0032628708
 H,0,-2.5915511657,2.4140060274,2.313617584
 C,0,-1.2612763084,1.5440281493,0.8702006455
 H,0,-1.4865174174,0.6542796886,0.2725498994
 C,0,0.198917423,1.4063049649,1.3606304389
 C,0,-1.4222175185,2.8032532155,0.0181845413
 H,0,-1.0068573666,3.6486206306,0.5783646711
 H,0,-2.4924378456,2.9988167045,-0.1353816746
 O,0,0.9904113105,2.3487684751,1.3441701518
 C,0,-0.7189773394,2.6755480778,-1.3529807841
 H,0,0.2191956931,2.1276753928,-1.214070756
 C,0,-1.5631968585,1.8693548254,-2.3491419617
 H,0,-2.4914260229,2.4019696544,-2.5968062413
 H,0,-1.8347866427,0.8828185164,-1.954444163
 H,0,-1.0067807528,1.7063822213,-3.2776466548
 C,0,-0.3735395122,4.0559847511,-1.9236173105
 H,0,-1.2797866169,4.6498477752,-2.1029367543
 H,0,0.1658195602,3.9477106075,-2.8692128923
 H,0,0.2635376152,4.6226775456,-1.2324498489
 N,0,0.5394904867,0.1654973874,1.7916105336
 H,0,-0.1612392715,-0.5576554407,1.6591723735
 C,0,1.9336748987,-0.2416094792,1.7535188238
 H,0,2.5169404448,0.4637495009,2.3560766955
 C,0,2.4106493691,-0.1651980736,0.2807113138
 C,0,2.0909095409,-1.6654480952,2.3042351141
 H,0,3.1451140256,-1.956444105,2.2604468346
 H,0,1.5575868085,-2.3687681801,1.6531968248
 O,0,1.6112735542,-0.1714979206,-0.6509328533
 C,0,1.5777679969,-1.7990443218,3.7391468776
 H,0,2.0893467447,-1.0984696837,4.4120776479
 H,0,0.5113892477,-1.5527217187,3.808276475
 C,0,1.7744704748,-3.1990654803,4.2796145941
 O,0,2.2895504342,-4.1184451117,3.6850114199
 O,0,1.2928735013,-3.3089392996,5.5422702026
 N,0,3.7496688811,-0.0696577732,0.0919484231
 H,0,4.4229016953,-0.1241815256,0.8516335368
 C,0,4.3278973913,-0.1096295414,-1.2389613628
 H,0,3.762959609,-0.8215609238,-1.8474957764
 C,0,5.8142036996,-0.4782970354,-1.0842453251
 C,0,4.3577815602,1.2729515466,-1.9835044876
 H,0,5.223931114,1.8396140608,-1.6181834598
 H,0,4.5135931717,1.0888492804,-3.0467075235
 O,0,6.3852665491,-0.2305612931,-0.0253367622
 C,0,3.1386373809,2.1729816337,-1.8410253812
 N,0,3.0224177009,2.8037652745,-0.6070949762
 H,0,2.0697401028,3.0195730935,-0.3209579238
 H,0,3.5215101488,2.3619018381,0.1572479329
 O,0,2.3892881081,2.4458617277,-2.7681954938
 N,0,6.4404741371,-0.9107644946,-2.2156995844
 H,0,5.850142468,-1.0133537755,-3.0391612104
 C,0,7.7180992586,-0.2769891363,-2.5939195381
 H,0,8.1042098616,0.2138590223,-1.6990999685
 C,0,7.3074399975,0.7629392846,-3.6718780067
 C,0,8.8040989722,-1.2269211488,-3.15063614
 H,0,9.1347531091,-1.8992254965,-2.3507903868
 H,0,8.3793466053,-1.8335277946,-3.9576461326
 O,0,6.5420806885,0.3910331167,-4.5706049017
 C,0,9.8932647938,-0.3066362809,-3.66332511
 C,0,9.9300139187,0.0607066333,-5.0140638684
 H,0,9.3807489512,-0.5307522626,-5.7424690464
 C,0,10.6114195568,0.4755044051,-2.7437022859
 H,0,10.6259141989,0.1891807884,-1.6931482886
 C,0,10.5392559373,1.2488842075,-5.4197050812
 H,0,10.496873229,1.578756519,-6.4531468314
 C,0,11.2109141015,1.6675503838,-3.1361793733
 H,0,11.6987586713,2.3147390928,-2.4139872639
 O,0,11.4697131261,3.3676716491,-4.8231505481
 H,0,10.9223157171,3.9588738936,-4.2585869272
 C,0,11.0963071972,2.1026266828,-4.4648722752
 N,0,7.7217176381,2.0314879089,-3.4802078184
 H,0,8.5433827146,2.1925288754,-2.9028858274
 C,0,7.4116747424,3.1622821998,-4.3706623871
 H,0,7.8842321777,2.981043196,-5.3477036557
 C,0,8.1266491849,4.4106577122,-3.7262261858
 C,0,5.8910020398,3.2886507592,-4.5440055348
 H,0,5.5007425993,2.3079356072,-4.8140277887
 H,0,5.4746821568,3.5288623449,-3.5591731926
 O,0,7.4857510974,5.5066851398,-3.6644448967
 C,0,5.4191643292,4.3146207977,-5.595050998
 H,0,6.2452045763,4.964022927,-5.9060639892
 H,0,5.0582511823,3.8084374415,-6.4977811241
 C,0,4.2868384596,5.1950030391,-5.0436306167
 H,0,3.9017267583,5.8815165063,-5.8041704372
 H,0,3.4573600484,4.5662198897,-4.7005339691
 N,0,4.8252629972,5.9815880652,-3.9183333664
 H,0,5.8378454393,6.1378986741,-4.0474588965
 N,0,3.3367457112,5.3764808664,-2.1867671215
 H,0,3.309485198,4.7238835424,-1.4019400297
 H,0,2.6359243969,5.1658007166,-2.8849719866
 N,0,5.5618816163,5.888961331,-1.7489626608
 H,0,5.3827708041,5.8859235826,-0.7566931479
 H,0,6.523259387,5.8718565563,-2.1220707484
 C,0,4.5664380127,5.7280940419,-2.6301097596
 O,0,9.2792226029,4.2058306842,-3.294097303
 H,0,1.4642524653,-4.2276305427,5.8240077058
 Recover connectivity data from disk.
                           ----------------------------
                           !    Current Parameters    !
                           ! (Angstroms and Degrees)  !
 --------------------------                            --------------------------
 ! Name  Definition              Value                                          !
 --------------------------------------------------------------------------------
 ! R1    R(1,2)                  1.0241                                         !
 ! R2    R(1,3)                  1.06                                           !
 ! R3    R(1,4)                  1.024                                          !
 ! R4    R(1,5)                  1.5195                                         !
 ! R5    R(5,6)                  1.0927                                         !
 ! R6    R(5,7)                  1.5487                                         !
 ! R7    R(5,8)                  1.5532                                         !
 ! R8    R(7,10)                 1.2386                                         !
 ! R9    R(7,19)                 1.3341                                         !
 ! R10   R(8,9)                  1.1014                                         !
 ! R11   R(8,11)                 1.5365                                         !
 ! R12   R(8,15)                 1.5373                                         !
 ! R13   R(11,12)                1.0945                                         !
 ! R14   R(11,13)                1.0926                                         !
 ! R15   R(11,14)                1.097                                          !
 ! R16   R(15,16)                1.0944                                         !
 ! R17   R(15,17)                1.0967                                         !
 ! R18   R(15,18)                1.0939                                         !
 ! R19   R(19,20)                1.0148                                         !
 ! R20   R(19,21)                1.4694                                         !
 ! R21   R(21,22)                1.0923                                         !
 ! R22   R(21,23)                1.5352                                         !
 ! R23   R(21,24)                1.5533                                         !
 ! R24   R(23,26)                1.2385                                         !
 ! R25   R(23,38)                1.3442                                         !
 ! R26   R(24,25)                1.0992                                         !
 ! R27   R(24,27)                1.5444                                         !
 ! R28   R(24,30)                1.5355                                         !
 ! R29   R(27,28)                1.1003                                         !
 ! R30   R(27,29)                1.0984                                         !
 ! R31   R(27,34)                1.5319                                         !
 ! R32   R(30,31)                1.0938                                         !
 ! R33   R(30,32)                1.096                                          !
 ! R34   R(30,33)                1.0928                                         !
 ! R35   R(34,35)                1.0943                                         !
 ! R36   R(34,36)                1.0963                                         !
 ! R37   R(34,37)                1.0941                                         !
 ! R38   R(38,39)                1.0117                                         !
 ! R39   R(38,40)                1.4668                                         !
 ! R40   R(40,41)                1.0943                                         !
 ! R41   R(40,42)                1.5434                                         !
 ! R42   R(40,43)                1.534                                          !
 ! R43   R(42,46)                1.2307                                         !
 ! R44   R(42,58)                1.3544                                         !
 ! R45   R(43,44)                1.0948                                         !
 ! R46   R(43,45)                1.0956                                         !
 ! R47   R(43,47)                1.5128                                         !
 ! R48   R(47,48)                1.4018                                         !
 ! R49   R(47,50)                1.4008                                         !
 ! R50   R(48,49)                1.0879                                         !
 ! R51   R(48,52)                1.3952                                         !
 ! R52   R(50,51)                1.0884                                         !
 ! R53   R(50,54)                1.3967                                         !
 ! R54   R(52,53)                1.0868                                         !
 ! R55   R(52,56)                1.3977                                         !
 ! R56   R(54,55)                1.0867                                         !
 ! R57   R(54,56)                1.3962                                         !
 ! R58   R(56,57)                1.0867                                         !
 ! R59   R(58,59)                1.0146                                         !
 ! R60   R(58,60)                1.4662                                         !
 ! R61   R(60,61)                1.0952                                         !
 ! R62   R(60,62)                1.5465                                         !
 ! R63   R(60,63)                1.5289                                         !
 ! R64   R(62,66)                1.2308                                         !
 ! R65   R(62,77)                1.357                                          !
 ! R66   R(63,64)                1.0959                                         !
 ! R67   R(63,65)                1.0987                                         !
 ! R68   R(63,67)                1.5463                                         !
 ! R69   R(67,68)                1.0953                                         !
 ! R70   R(67,69)                1.5346                                         !
 ! R71   R(67,73)                1.5332                                         !
 ! R72   R(69,70)                1.0985                                         !
 ! R73   R(69,71)                1.0967                                         !
 ! R74   R(69,72)                1.0947                                         !
 ! R75   R(73,74)                1.0982                                         !
 ! R76   R(73,75)                1.094                                          !
 ! R77   R(73,76)                1.0976                                         !
 ! R78   R(77,78)                1.0156                                         !
 ! R79   R(77,79)                1.4529                                         !
 ! R80   R(79,80)                1.0958                                         !
 ! R81   R(79,81)                1.55                                           !
 ! R82   R(79,82)                1.5347                                         !
 ! R83   R(81,85)                1.2276                                         !
 ! R84   R(81,92)                1.3556                                         !
 ! R85   R(82,83)                1.0945                                         !
 ! R86   R(82,84)                1.0968                                         !
 ! R87   R(82,86)                1.5297                                         !
 ! R88   R(86,87)                1.0979                                         !
 ! R89   R(86,88)                1.0966                                         !
 ! R90   R(86,89)                1.5136                                         !
 ! R91   R(89,90)                1.21                                           !
 ! R92   R(89,91)                1.3558                                         !
 ! R93   R(91,152)               0.9761                                         !
 ! R94   R(92,93)                1.0165                                         !
 ! R95   R(92,94)                1.4516                                         !
 ! R96   R(94,95)                1.0938                                         !
 ! R97   R(94,96)                1.5391                                         !
 ! R98   R(94,97)                1.5706                                         !
 ! R99   R(96,100)               1.2283                                         !
 ! R100  R(96,106)               1.3636                                         !
 ! R101  R(97,98)                1.0976                                         !
 ! R102  R(97,99)                1.0902                                         !
 ! R103  R(97,101)               1.5221                                         !
 ! R104  R(101,102)              1.3907                                         !
 ! R105  R(101,105)              1.223                                          !
 ! R106  R(102,103)              1.0179                                         !
 ! R107  R(102,104)              1.0142                                         !
 ! R108  R(106,107)              1.0184                                         !
 ! R109  R(106,108)              1.4755                                         !
 ! R110  R(108,109)              1.0912                                         !
 ! R111  R(108,110)              1.5531                                         !
 ! R112  R(108,111)              1.5465                                         !
 ! R113  R(110,114)              1.2377                                         !
 ! R114  R(110,127)              1.3482                                         !
 ! R115  R(111,112)              1.0959                                         !
 ! R116  R(111,113)              1.0953                                         !
 ! R117  R(111,115)              1.5153                                         !
 ! R118  R(115,116)              1.4003                                         !
 ! R119  R(115,118)              1.4047                                         !
 ! R120  R(116,117)              1.0872                                         !
 ! R121  R(116,120)              1.3955                                         !
 ! R122  R(118,119)              1.089                                          !
 ! R123  R(118,122)              1.3908                                         !
 ! R124  R(120,121)              1.0856                                         !
 ! R125  R(120,126)              1.3967                                         !
 ! R126  R(122,123)              1.0855                                         !
 ! R127  R(122,126)              1.4028                                         !
 ! R128  R(124,125)              0.9838                                         !
 ! R129  R(124,126)              1.3668                                         !
 ! R130  R(127,128)              1.017                                          !
 ! R131  R(127,129)              1.4723                                         !
 ! R132  R(129,130)              1.1003                                         !
 ! R133  R(129,131)              1.5764                                         !
 ! R134  R(129,132)              1.5357                                         !
 ! R135  R(131,135)              1.2712                                         !
 ! R136  R(131,151)              1.2478                                         !
 ! R137  R(132,133)              1.0895                                         !
 ! R138  R(132,134)              1.0959                                         !
 ! R139  R(132,136)              1.5427                                         !
 ! R140  R(136,137)              1.0958                                         !
 ! R141  R(136,138)              1.0961                                         !
 ! R142  R(136,139)              1.5367                                         !
 ! R143  R(139,140)              1.0945                                         !
 ! R144  R(139,141)              1.096                                          !
 ! R145  R(139,142)              1.4748                                         !
 ! R146  R(142,143)              1.0327                                         !
 ! R147  R(142,150)              1.3382                                         !
 ! R148  R(144,145)              1.0211                                         !
 ! R149  R(144,146)              1.0114                                         !
 ! R150  R(144,150)              1.3536                                         !
 ! R151  R(147,148)              1.0083                                         !
 ! R152  R(147,149)              1.0314                                         !
 ! R153  R(147,150)              1.3391                                         !
 ! A1    A(2,1,3)              108.6473                                         !
 ! A2    A(2,1,4)              108.7428                                         !
 ! A3    A(2,1,5)              113.1005                                         !
 ! A4    A(3,1,4)              111.0542                                         !
 ! A5    A(3,1,5)              102.1514                                         !
 ! A6    A(4,1,5)              112.958                                          !
 ! A7    A(1,5,6)              108.0799                                         !
 ! A8    A(1,5,7)              102.2133                                         !
 ! A9    A(1,5,8)              109.9926                                         !
 ! A10   A(6,5,7)              112.3513                                         !
 ! A11   A(6,5,8)              110.7246                                         !
 ! A12   A(7,5,8)              113.0431                                         !
 ! A13   A(5,7,10)             117.4567                                         !
 ! A14   A(5,7,19)             116.9043                                         !
 ! A15   A(10,7,19)            125.6042                                         !
 ! A16   A(5,8,9)              105.1832                                         !
 ! A17   A(5,8,11)             112.3116                                         !
 ! A18   A(5,8,15)             111.5623                                         !
 ! A19   A(9,8,11)             109.1727                                         !
 ! A20   A(9,8,15)             106.9708                                         !
 ! A21   A(11,8,15)            111.2901                                         !
 ! A22   A(8,11,12)            111.8194                                         !
 ! A23   A(8,11,13)            109.8499                                         !
 ! A24   A(8,11,14)            113.4219                                         !
 ! A25   A(12,11,13)           107.0123                                         !
 ! A26   A(12,11,14)           107.2874                                         !
 ! A27   A(13,11,14)           107.1388                                         !
 ! A28   A(8,15,16)            112.394                                          !
 ! A29   A(8,15,17)            111.9743                                         !
 ! A30   A(8,15,18)            108.9496                                         !
 ! A31   A(16,15,17)           108.9496                                         !
 ! A32   A(16,15,18)           107.019                                          !
 ! A33   A(17,15,18)           107.3092                                         !
 ! A34   A(7,19,20)            119.2004                                         !
 ! A35   A(7,19,21)            122.5787                                         !
 ! A36   A(20,19,21)           114.0949                                         !
 ! A37   A(19,21,22)           106.5053                                         !
 ! A38   A(19,21,23)           105.0405                                         !
 ! A39   A(19,21,24)           112.7877                                         !
 ! A40   A(22,21,23)           110.9035                                         !
 ! A41   A(22,21,24)           109.0422                                         !
 ! A42   A(23,21,24)           112.3782                                         !
 ! A43   A(21,23,26)           119.9353                                         !
 ! A44   A(21,23,38)           116.5595                                         !
 ! A45   A(26,23,38)           123.5029                                         !
 ! A46   A(21,24,25)           105.1977                                         !
 ! A47   A(21,24,27)           109.6294                                         !
 ! A48   A(21,24,30)           112.7785                                         !
 ! A49   A(25,24,27)           108.1025                                         !
 ! A50   A(25,24,30)           108.37                                           !
 ! A51   A(27,24,30)           112.3993                                         !
 ! A52   A(24,27,28)           109.063                                          !
 ! A53   A(24,27,29)           109.308                                          !
 ! A54   A(24,27,34)           113.8615                                         !
 ! A55   A(28,27,29)           106.3083                                         !
 ! A56   A(28,27,34)           108.4969                                         !
 ! A57   A(29,27,34)           109.5254                                         !
 ! A58   A(24,30,31)           111.4603                                         !
 ! A59   A(24,30,32)           111.6834                                         !
 ! A60   A(24,30,33)           110.3299                                         !
 ! A61   A(31,30,32)           108.0891                                         !
 ! A62   A(31,30,33)           108.3109                                         !
 ! A63   A(32,30,33)           106.7872                                         !
 ! A64   A(27,34,35)           110.4763                                         !
 ! A65   A(27,34,36)           111.1424                                         !
 ! A66   A(27,34,37)           111.8949                                         !
 ! A67   A(35,34,36)           107.9337                                         !
 ! A68   A(35,34,37)           107.1792                                         !
 ! A69   A(36,34,37)           108.0383                                         !
 ! A70   A(23,38,39)           119.4626                                         !
 ! A71   A(23,38,40)           122.6174                                         !
 ! A72   A(39,38,40)           117.5688                                         !
 ! A73   A(38,40,41)           105.9448                                         !
 ! A74   A(38,40,42)           108.2347                                         !
 ! A75   A(38,40,43)           110.4391                                         !
 ! A76   A(41,40,42)           109.5576                                         !
 ! A77   A(41,40,43)           110.0615                                         !
 ! A78   A(42,40,43)           112.3839                                         !
 ! A79   A(40,42,46)           121.6631                                         !
 ! A80   A(40,42,58)           114.1683                                         !
 ! A81   A(46,42,58)           124.082                                          !
 ! A82   A(40,43,44)           107.5434                                         !
 ! A83   A(40,43,45)           108.8326                                         !
 ! A84   A(40,43,47)           111.7705                                         !
 ! A85   A(44,43,45)           105.8452                                         !
 ! A86   A(44,43,47)           111.0649                                         !
 ! A87   A(45,43,47)           111.5271                                         !
 ! A88   A(43,47,48)           120.4514                                         !
 ! A89   A(43,47,50)           121.009                                          !
 ! A90   A(48,47,50)           118.515                                          !
 ! A91   A(47,48,49)           119.4296                                         !
 ! A92   A(47,48,52)           120.8355                                         !
 ! A93   A(49,48,52)           119.7239                                         !
 ! A94   A(47,50,51)           119.5416                                         !
 ! A95   A(47,50,54)           120.9114                                         !
 ! A96   A(51,50,54)           119.5224                                         !
 ! A97   A(48,52,53)           119.7684                                         !
 ! A98   A(48,52,56)           120.0954                                         !
 ! A99   A(53,52,56)           120.1262                                         !
 ! A100  A(50,54,55)           119.7672                                         !
 ! A101  A(50,54,56)           120.0058                                         !
 ! A102  A(55,54,56)           120.2144                                         !
 ! A103  A(52,56,54)           119.6336                                         !
 ! A104  A(52,56,57)           120.1561                                         !
 ! A105  A(54,56,57)           120.2012                                         !
 ! A106  A(42,58,59)           118.9725                                         !
 ! A107  A(42,58,60)           122.0762                                         !
 ! A108  A(59,58,60)           118.7423                                         !
 ! A109  A(58,60,61)           106.6163                                         !
 ! A110  A(58,60,62)           110.7069                                         !
 ! A111  A(58,60,63)           111.662                                          !
 ! A112  A(61,60,62)           107.1501                                         !
 ! A113  A(61,60,63)           110.0808                                         !
 ! A114  A(62,60,63)           110.4547                                         !
 ! A115  A(60,62,66)           122.3259                                         !
 ! A116  A(60,62,77)           114.7796                                         !
 ! A117  A(66,62,77)           122.8893                                         !
 ! A118  A(60,63,64)           108.0944                                         !
 ! A119  A(60,63,65)           109.0882                                         !
 ! A120  A(60,63,67)           112.2268                                         !
 ! A121  A(64,63,65)           107.6574                                         !
 ! A122  A(64,63,67)           110.1581                                         !
 ! A123  A(65,63,67)           109.4971                                         !
 ! A124  A(63,67,68)           108.5669                                         !
 ! A125  A(63,67,69)           111.6427                                         !
 ! A126  A(63,67,73)           110.9871                                         !
 ! A127  A(68,67,69)           106.9034                                         !
 ! A128  A(68,67,73)           107.734                                          !
 ! A129  A(69,67,73)           110.8154                                         !
 ! A130  A(67,69,70)           110.8854                                         !
 ! A131  A(67,69,71)           112.0354                                         !
 ! A132  A(67,69,72)           110.4377                                         !
 ! A133  A(70,69,71)           107.9411                                         !
 ! A134  A(70,69,72)           108.0877                                         !
 ! A135  A(71,69,72)           107.2904                                         !
 ! A136  A(67,73,74)           111.2064                                         !
 ! A137  A(67,73,75)           110.1016                                         !
 ! A138  A(67,73,76)           111.1785                                         !
 ! A139  A(74,73,75)           108.616                                          !
 ! A140  A(74,73,76)           107.6134                                         !
 ! A141  A(75,73,76)           108.013                                          !
 ! A142  A(62,77,78)           115.8805                                         !
 ! A143  A(62,77,79)           119.2571                                         !
 ! A144  A(78,77,79)           117.331                                          !
 ! A145  A(77,79,80)           108.4198                                         !
 ! A146  A(77,79,81)           107.8416                                         !
 ! A147  A(77,79,82)           110.4178                                         !
 ! A148  A(80,79,81)           109.0846                                         !
 ! A149  A(80,79,82)           110.2023                                         !
 ! A150  A(81,79,82)           110.8044                                         !
 ! A151  A(79,81,85)           121.3648                                         !
 ! A152  A(79,81,92)           116.0872                                         !
 ! A153  A(85,81,92)           122.5393                                         !
 ! A154  A(79,82,83)           109.3287                                         !
 ! A155  A(79,82,84)           109.3968                                         !
 ! A156  A(79,82,86)           112.5352                                         !
 ! A157  A(83,82,84)           105.9093                                         !
 ! A158  A(83,82,86)           109.7184                                         !
 ! A159  A(84,82,86)           109.7352                                         !
 ! A160  A(82,86,87)           111.2785                                         !
 ! A161  A(82,86,88)           111.4506                                         !
 ! A162  A(82,86,89)           111.8473                                         !
 ! A163  A(87,86,88)           105.7322                                         !
 ! A164  A(87,86,89)           108.1086                                         !
 ! A165  A(88,86,89)           108.1576                                         !
 ! A166  A(86,89,90)           125.6383                                         !
 ! A167  A(86,89,91)           111.1824                                         !
 ! A168  A(90,89,91)           123.1793                                         !
 ! A169  A(89,91,152)          106.422                                          !
 ! A170  A(81,92,93)           123.1155                                         !
 ! A171  A(81,92,94)           121.2765                                         !
 ! A172  A(93,92,94)           114.8278                                         !
 ! A173  A(92,94,95)           108.8008                                         !
 ! A174  A(92,94,96)           107.4028                                         !
 ! A175  A(92,94,97)           114.7062                                         !
 ! A176  A(95,94,96)           113.5029                                         !
 ! A177  A(95,94,97)           108.6063                                         !
 ! A178  A(96,94,97)           103.8944                                         !
 ! A179  A(94,96,100)          119.1633                                         !
 ! A180  A(94,96,106)          115.8532                                         !
 ! A181  A(100,96,106)         124.4544                                         !
 ! A182  A(94,97,98)           108.1616                                         !
 ! A183  A(94,97,99)           108.4437                                         !
 ! A184  A(94,97,101)          117.4465                                         !
 ! A185  A(98,97,99)           107.3966                                         !
 ! A186  A(98,97,101)          107.1954                                         !
 ! A187  A(99,97,101)          107.7955                                         !
 ! A188  A(97,101,102)         114.7216                                         !
 ! A189  A(97,101,105)         123.4881                                         !
 ! A190  A(102,101,105)        121.3504                                         !
 ! A191  A(101,102,103)        115.0759                                         !
 ! A192  A(101,102,104)        115.4654                                         !
 ! A193  A(103,102,104)        109.9445                                         !
 ! A194  A(96,106,107)         115.8904                                         !
 ! A195  A(96,106,108)         118.3043                                         !
 ! A196  A(107,106,108)        109.7514                                         !
 ! A197  A(106,108,109)        106.8223                                         !
 ! A198  A(106,108,110)        103.6843                                         !
 ! A199  A(106,108,111)        115.8805                                         !
 ! A200  A(109,108,110)        111.194                                          !
 ! A201  A(109,108,111)        108.8458                                         !
 ! A202  A(110,108,111)        110.3108                                         !
 ! A203  A(108,110,114)        117.795                                          !
 ! A204  A(108,110,127)        116.7508                                         !
 ! A205  A(114,110,127)        125.17                                           !
 ! A206  A(108,111,112)        109.0231                                         !
 ! A207  A(108,111,113)        109.4571                                         !
 ! A208  A(108,111,115)        104.6847                                         !
 ! A209  A(112,111,113)        108.3603                                         !
 ! A210  A(112,111,115)        113.7435                                         !
 ! A211  A(113,111,115)        111.4579                                         !
 ! A212  A(111,115,116)        120.3026                                         !
 ! A213  A(111,115,118)        118.9562                                         !
 ! A214  A(116,115,118)        118.1658                                         !
 ! A215  A(115,116,117)        119.3594                                         !
 ! A216  A(115,116,120)        121.0111                                         !
 ! A217  A(117,116,120)        119.2739                                         !
 ! A218  A(115,118,119)        119.471                                          !
 ! A219  A(115,118,122)        120.8535                                         !
 ! A220  A(119,118,122)        119.4622                                         !
 ! A221  A(116,120,121)        121.2222                                         !
 ! A222  A(116,120,126)        119.7242                                         !
 ! A223  A(121,120,126)        118.724                                          !
 ! A224  A(118,122,123)        121.1279                                         !
 ! A225  A(118,122,126)        119.8603                                         !
 ! A226  A(123,122,126)        118.8124                                         !
 ! A227  A(125,124,126)        104.7001                                         !
 ! A228  A(120,126,122)        119.374                                          !
 ! A229  A(120,126,124)        119.7025                                         !
 ! A230  A(122,126,124)        120.8653                                         !
 ! A231  A(110,127,128)        118.5517                                         !
 ! A232  A(110,127,129)        124.8884                                         !
 ! A233  A(128,127,129)        113.0683                                         !
 ! A234  A(127,129,130)        108.6679                                         !
 ! A235  A(127,129,131)        105.3951                                         !
 ! A236  A(127,129,132)        109.8757                                         !
 ! A237  A(130,129,131)        107.3767                                         !
 ! A238  A(130,129,132)        109.7904                                         !
 ! A239  A(131,129,132)        115.4734                                         !
 ! A240  A(129,131,135)        118.2954                                         !
 ! A241  A(129,131,151)        115.5                                            !
 ! A242  A(135,131,151)        126.1847                                         !
 ! A243  A(129,132,133)        107.9745                                         !
 ! A244  A(129,132,134)        107.0242                                         !
 ! A245  A(129,132,136)        115.752                                          !
 ! A246  A(133,132,134)        106.4967                                         !
 ! A247  A(133,132,136)        108.6769                                         !
 ! A248  A(134,132,136)        110.5057                                         !
 ! A249  A(132,136,137)        110.912                                          !
 ! A250  A(132,136,138)        110.775                                          !
 ! A251  A(132,136,139)        111.2177                                         !
 ! A252  A(137,136,138)        106.7466                                         !
 ! A253  A(137,136,139)        108.5295                                         !
 ! A254  A(138,136,139)        108.5112                                         !
 ! A255  A(136,139,140)        111.6706                                         !
 ! A256  A(136,139,141)        109.9589                                         !
 ! A257  A(136,139,142)        108.0809                                         !
 ! A258  A(140,139,141)        108.1244                                         !
 ! A259  A(140,139,142)        108.912                                          !
 ! A260  A(141,139,142)        110.0876                                         !
 ! A261  A(139,142,143)        110.0787                                         !
 ! A262  A(139,142,150)        124.2562                                         !
 ! A263  A(143,142,150)        109.7972                                         !
 ! A264  A(145,144,146)        112.2694                                         !
 ! A265  A(145,144,150)        116.2325                                         !
 ! A266  A(146,144,150)        117.2236                                         !
 ! A267  A(148,147,149)        121.4348                                         !
 ! A268  A(148,147,150)        121.0064                                         !
 ! A269  A(149,147,150)        116.9284                                         !
 ! A270  A(142,150,144)        122.6971                                         !
 ! A271  A(142,150,147)        117.8337                                         !
 ! A272  A(144,150,147)        119.4058                                         !
 ! D1    D(2,1,5,6)             19.0418                                         !
 ! D2    D(2,1,5,7)            -99.6413                                         !
 ! D3    D(2,1,5,8)            140.0327                                         !
 ! D4    D(3,1,5,6)            135.6204                                         !
 ! D5    D(3,1,5,7)             16.9373                                         !
 ! D6    D(3,1,5,8)           -103.3887                                         !
 ! D7    D(4,1,5,6)           -105.0189                                         !
 ! D8    D(4,1,5,7)            136.2981                                         !
 ! D9    D(4,1,5,8)             15.9721                                         !
 ! D10   D(1,5,7,10)           -17.4024                                         !
 ! D11   D(1,5,7,19)           164.6241                                         !
 ! D12   D(6,5,7,10)          -133.0175                                         !
 ! D13   D(6,5,7,19)            49.009                                          !
 ! D14   D(8,5,7,10)           100.776                                          !
 ! D15   D(8,5,7,19)           -77.1976                                         !
 ! D16   D(1,5,8,9)            -52.4248                                         !
 ! D17   D(1,5,8,11)            66.2083                                         !
 ! D18   D(1,5,8,15)          -168.0473                                         !
 ! D19   D(6,5,8,9)             66.965                                          !
 ! D20   D(6,5,8,11)          -174.402                                          !
 ! D21   D(6,5,8,15)           -48.6576                                         !
 ! D22   D(7,5,8,9)           -165.9651                                         !
 ! D23   D(7,5,8,11)           -47.332                                          !
 ! D24   D(7,5,8,15)            78.4124                                         !
 ! D25   D(5,7,19,20)            5.2932                                         !
 ! D26   D(5,7,19,21)          161.0967                                         !
 ! D27   D(10,7,19,20)        -172.4951                                         !
 ! D28   D(10,7,19,21)         -16.6916                                         !
 ! D29   D(5,8,11,12)           66.1564                                         !
 ! D30   D(5,8,11,13)         -175.1845                                         !
 ! D31   D(5,8,11,14)          -55.3286                                         !
 ! D32   D(9,8,11,12)         -177.5857                                         !
 ! D33   D(9,8,11,13)          -58.9266                                         !
 ! D34   D(9,8,11,14)           60.9293                                         !
 ! D35   D(15,8,11,12)         -59.736                                          !
 ! D36   D(15,8,11,13)          58.9231                                         !
 ! D37   D(15,8,11,14)         178.779                                          !
 ! D38   D(5,8,15,16)          -72.9997                                         !
 ! D39   D(5,8,15,17)           50.0251                                         !
 ! D40   D(5,8,15,18)          168.5644                                         !
 ! D41   D(9,8,15,16)          172.479                                          !
 ! D42   D(9,8,15,17)          -64.4962                                         !
 ! D43   D(9,8,15,18)           54.0431                                         !
 ! D44   D(11,8,15,16)          53.3066                                         !
 ! D45   D(11,8,15,17)         176.3314                                         !
 ! D46   D(11,8,15,18)         -65.1294                                         !
 ! D47   D(7,19,21,22)           7.2306                                         !
 ! D48   D(7,19,21,23)        -110.4764                                         !
 ! D49   D(7,19,21,24)         126.8068                                         !
 ! D50   D(20,19,21,22)        164.1561                                         !
 ! D51   D(20,19,21,23)         46.449                                          !
 ! D52   D(20,19,21,24)        -76.2677                                         !
 ! D53   D(19,21,23,26)        -43.4626                                         !
 ! D54   D(19,21,23,38)        136.0092                                         !
 ! D55   D(22,21,23,26)       -158.1418                                         !
 ! D56   D(22,21,23,38)         21.33                                           !
 ! D57   D(24,21,23,26)         79.5179                                         !
 ! D58   D(24,21,23,38)       -101.0103                                         !
 ! D59   D(19,21,24,25)        -65.7075                                         !
 ! D60   D(19,21,24,27)        178.2695                                         !
 ! D61   D(19,21,24,30)         52.2144                                         !
 ! D62   D(22,21,24,25)         52.3916                                         !
 ! D63   D(22,21,24,27)        -63.6314                                         !
 ! D64   D(22,21,24,30)        170.3135                                         !
 ! D65   D(23,21,24,25)        175.779                                          !
 ! D66   D(23,21,24,27)         59.756                                          !
 ! D67   D(23,21,24,30)        -66.299                                          !
 ! D68   D(21,23,38,39)          4.1838                                         !
 ! D69   D(21,23,38,40)        177.2107                                         !
 ! D70   D(26,23,38,39)       -176.3652                                         !
 ! D71   D(26,23,38,40)         -3.3382                                         !
 ! D72   D(21,24,27,28)         44.6827                                         !
 ! D73   D(21,24,27,29)        -71.1581                                         !
 ! D74   D(21,24,27,34)        166.0072                                         !
 ! D75   D(25,24,27,28)        -69.4851                                         !
 ! D76   D(25,24,27,29)        174.6741                                         !
 ! D77   D(25,24,27,34)         51.8394                                         !
 ! D78   D(30,24,27,28)        170.9536                                         !
 ! D79   D(30,24,27,29)         55.1128                                         !
 ! D80   D(30,24,27,34)        -67.7218                                         !
 ! D81   D(21,24,30,31)         61.3303                                         !
 ! D82   D(21,24,30,32)        -59.6897                                         !
 ! D83   D(21,24,30,33)       -178.2951                                         !
 ! D84   D(25,24,30,31)        177.3727                                         !
 ! D85   D(25,24,30,32)         56.3527                                         !
 ! D86   D(25,24,30,33)        -62.2527                                         !
 ! D87   D(27,24,30,31)        -63.2219                                         !
 ! D88   D(27,24,30,32)        175.7581                                         !
 ! D89   D(27,24,30,33)         57.1527                                         !
 ! D90   D(24,27,34,35)       -177.408                                          !
 ! D91   D(24,27,34,36)        -57.6188                                         !
 ! D92   D(24,27,34,37)         63.2604                                         !
 ! D93   D(28,27,34,35)        -55.7691                                         !
 ! D94   D(28,27,34,36)         64.0201                                         !
 ! D95   D(28,27,34,37)       -175.1007                                         !
 ! D96   D(29,27,34,35)         59.8764                                         !
 ! D97   D(29,27,34,36)        179.6656                                         !
 ! D98   D(29,27,34,37)        -59.4552                                         !
 ! D99   D(23,38,40,41)         29.246                                          !
 ! D100  D(23,38,40,42)        -88.1851                                         !
 ! D101  D(23,38,40,43)        148.4026                                         !
 ! D102  D(39,38,40,41)       -157.6023                                         !
 ! D103  D(39,38,40,42)         84.9666                                         !
 ! D104  D(39,38,40,43)        -38.4457                                         !
 ! D105  D(38,40,42,46)       -105.1806                                         !
 ! D106  D(38,40,42,58)         71.5673                                         !
 ! D107  D(41,40,42,46)        139.7331                                         !
 ! D108  D(41,40,42,58)        -43.5191                                         !
 ! D109  D(43,40,42,46)         17.0494                                         !
 ! D110  D(43,40,42,58)       -166.2028                                         !
 ! D111  D(38,40,43,44)        178.8579                                         !
 ! D112  D(38,40,43,45)         64.6295                                         !
 ! D113  D(38,40,43,47)        -58.9904                                         !
 ! D114  D(41,40,43,44)        -64.5138                                         !
 ! D115  D(41,40,43,45)       -178.7421                                         !
 ! D116  D(41,40,43,47)         57.6379                                         !
 ! D117  D(42,40,43,44)         57.8855                                         !
 ! D118  D(42,40,43,45)        -56.3429                                         !
 ! D119  D(42,40,43,47)       -179.9629                                         !
 ! D120  D(40,42,58,59)          4.0638                                         !
 ! D121  D(40,42,58,60)       -170.6144                                         !
 ! D122  D(46,42,58,59)       -179.2784                                         !
 ! D123  D(46,42,58,60)          6.0434                                         !
 ! D124  D(40,43,47,48)        -80.1766                                         !
 ! D125  D(40,43,47,50)         97.9914                                         !
 ! D126  D(44,43,47,48)         39.9323                                         !
 ! D127  D(44,43,47,50)       -141.8997                                         !
 ! D128  D(45,43,47,48)        157.7372                                         !
 ! D129  D(45,43,47,50)        -24.0948                                         !
 ! D130  D(43,47,48,49)         -2.3564                                         !
 ! D131  D(43,47,48,52)        178.8527                                         !
 ! D132  D(50,47,48,49)        179.4306                                         !
 ! D133  D(50,47,48,52)          0.6397                                         !
 ! D134  D(43,47,50,51)          3.2053                                         !
 ! D135  D(43,47,50,54)       -178.6076                                         !
 ! D136  D(48,47,50,51)       -178.5921                                         !
 ! D137  D(48,47,50,54)         -0.4049                                         !
 ! D138  D(47,48,52,53)        178.4954                                         !
 ! D139  D(47,48,52,56)         -0.3574                                         !
 ! D140  D(49,48,52,53)         -0.2921                                         !
 ! D141  D(49,48,52,56)       -179.1448                                         !
 ! D142  D(47,50,54,55)       -178.8227                                         !
 ! D143  D(47,50,54,56)         -0.1127                                         !
 ! D144  D(51,50,54,55)         -0.6352                                         !
 ! D145  D(51,50,54,56)        178.0748                                         !
 ! D146  D(48,52,56,54)         -0.1716                                         !
 ! D147  D(48,52,56,57)        178.731                                          !
 ! D148  D(53,52,56,54)       -179.0201                                         !
 ! D149  D(53,52,56,57)         -0.1175                                         !
 ! D150  D(50,54,56,52)          0.4038                                         !
 ! D151  D(50,54,56,57)       -178.4982                                         !
 ! D152  D(55,54,56,52)        179.1081                                         !
 ! D153  D(55,54,56,57)          0.206                                          !
 ! D154  D(42,58,60,61)         33.7407                                         !
 ! D155  D(42,58,60,62)        -82.4771                                         !
 ! D156  D(42,58,60,63)        154.0099                                         !
 ! D157  D(59,58,60,61)       -140.9493                                         !
 ! D158  D(59,58,60,62)        102.8329                                         !
 ! D159  D(59,58,60,63)        -20.6801                                         !
 ! D160  D(58,60,62,66)       -107.2409                                         !
 ! D161  D(58,60,62,77)         73.5695                                         !
 ! D162  D(61,60,62,66)        136.8727                                         !
 ! D163  D(61,60,62,77)        -42.3169                                         !
 ! D164  D(63,60,62,66)         16.9649                                         !
 ! D165  D(63,60,62,77)       -162.2246                                         !
 ! D166  D(58,60,63,64)         72.6                                            !
 ! D167  D(58,60,63,65)        -44.1913                                         !
 ! D168  D(58,60,63,67)       -165.7208                                         !
 ! D169  D(61,60,63,64)       -169.1835                                         !
 ! D170  D(61,60,63,65)         74.0252                                         !
 ! D171  D(61,60,63,67)        -47.5044                                         !
 ! D172  D(62,60,63,64)        -51.0556                                         !
 ! D173  D(62,60,63,65)       -167.8469                                         !
 ! D174  D(62,60,63,67)         70.6236                                         !
 ! D175  D(60,62,77,78)          6.041                                          !
 ! D176  D(60,62,77,79)        154.9894                                         !
 ! D177  D(66,62,77,78)       -173.1435                                         !
 ! D178  D(66,62,77,79)        -24.1951                                         !
 ! D179  D(60,63,67,68)        -37.8096                                         !
 ! D180  D(60,63,67,69)         79.7884                                         !
 ! D181  D(60,63,67,73)       -156.0391                                         !
 ! D182  D(64,63,67,68)         82.6824                                         !
 ! D183  D(64,63,67,69)       -159.7196                                         !
 ! D184  D(64,63,67,73)        -35.5471                                         !
 ! D185  D(65,63,67,68)       -159.1048                                         !
 ! D186  D(65,63,67,69)        -41.5067                                         !
 ! D187  D(65,63,67,73)         82.6657                                         !
 ! D188  D(63,67,69,70)         65.8056                                         !
 ! D189  D(63,67,69,71)        -54.8664                                         !
 ! D190  D(63,67,69,72)       -174.4045                                         !
 ! D191  D(68,67,69,70)       -175.5998                                         !
 ! D192  D(68,67,69,71)         63.7282                                         !
 ! D193  D(68,67,69,72)        -55.81                                           !
 ! D194  D(73,67,69,70)        -58.4633                                         !
 ! D195  D(73,67,69,71)       -179.1353                                         !
 ! D196  D(73,67,69,72)         61.3266                                         !
 ! D197  D(63,67,73,74)        -62.2922                                         !
 ! D198  D(63,67,73,75)        177.2685                                         !
 ! D199  D(63,67,73,76)         57.6027                                         !
 ! D200  D(68,67,73,74)        178.975                                          !
 ! D201  D(68,67,73,75)         58.5358                                         !
 ! D202  D(68,67,73,76)        -61.13                                           !
 ! D203  D(69,67,73,74)         62.3495                                         !
 ! D204  D(69,67,73,75)        -58.0898                                         !
 ! D205  D(69,67,73,76)       -177.7556                                         !
 ! D206  D(62,77,79,80)         58.3139                                         !
 ! D207  D(62,77,79,81)        -59.67                                           !
 ! D208  D(62,77,79,82)        179.135                                          !
 ! D209  D(78,77,79,80)       -153.1789                                         !
 ! D210  D(78,77,79,81)         88.8371                                         !
 ! D211  D(78,77,79,82)        -32.3579                                         !
 ! D212  D(77,79,81,85)        -20.1646                                         !
 ! D213  D(77,79,81,92)        158.786                                          !
 ! D214  D(80,79,81,85)       -137.72                                           !
 ! D215  D(80,79,81,92)         41.2306                                         !
 ! D216  D(82,79,81,85)        100.7891                                         !
 ! D217  D(82,79,81,92)        -80.2603                                         !
 ! D218  D(77,79,82,83)        179.5816                                         !
 ! D219  D(77,79,82,84)         64.0208                                         !
 ! D220  D(77,79,82,86)        -58.2337                                         !
 ! D221  D(80,79,82,83)        -60.6669                                         !
 ! D222  D(80,79,82,84)       -176.2277                                         !
 ! D223  D(80,79,82,86)         61.5178                                         !
 ! D224  D(81,79,82,83)         60.1643                                         !
 ! D225  D(81,79,82,84)        -55.3965                                         !
 ! D226  D(81,79,82,86)       -177.651                                          !
 ! D227  D(79,81,92,93)          5.1608                                         !
 ! D228  D(79,81,92,94)        174.5155                                         !
 ! D229  D(85,81,92,93)       -175.9021                                         !
 ! D230  D(85,81,92,94)         -6.5473                                         !
 ! D231  D(79,82,86,87)        -57.4234                                         !
 ! D232  D(79,82,86,88)         60.3292                                         !
 ! D233  D(79,82,86,89)       -178.4551                                         !
 ! D234  D(83,82,86,87)         64.5408                                         !
 ! D235  D(83,82,86,88)       -177.7066                                         !
 ! D236  D(83,82,86,89)        -56.4909                                         !
 ! D237  D(84,82,86,87)       -179.4866                                         !
 ! D238  D(84,82,86,88)        -61.7341                                         !
 ! D239  D(84,82,86,89)         59.4817                                         !
 ! D240  D(82,86,89,90)          1.0924                                         !
 ! D241  D(82,86,89,91)       -178.8631                                         !
 ! D242  D(87,86,89,90)       -121.7594                                         !
 ! D243  D(87,86,89,91)         58.2852                                         !
 ! D244  D(88,86,89,90)        124.1945                                         !
 ! D245  D(88,86,89,91)        -55.7609                                         !
 ! D246  D(86,89,91,152)      -179.3114                                         !
 ! D247  D(90,89,91,152)         0.7319                                         !
 ! D248  D(81,92,94,95)        -37.0298                                         !
 ! D249  D(81,92,94,96)       -160.2726                                         !
 ! D250  D(81,92,94,97)         84.8163                                         !
 ! D251  D(93,92,94,95)        133.1546                                         !
 ! D252  D(93,92,94,96)          9.9118                                         !
 ! D253  D(93,92,94,97)       -104.9994                                         !
 ! D254  D(92,94,96,100)       -24.7878                                         !
 ! D255  D(92,94,96,106)       163.1816                                         !
 ! D256  D(95,94,96,100)      -145.0924                                         !
 ! D257  D(95,94,96,106)        42.877                                          !
 ! D258  D(97,94,96,100)        97.1333                                         !
 ! D259  D(97,94,96,106)       -74.8972                                         !
 ! D260  D(92,94,97,98)         80.9811                                         !
 ! D261  D(92,94,97,99)       -162.8449                                         !
 ! D262  D(92,94,97,101)       -40.4165                                         !
 ! D263  D(95,94,97,98)       -157.0671                                         !
 ! D264  D(95,94,97,99)        -40.8931                                         !
 ! D265  D(95,94,97,101)        81.5353                                         !
 ! D266  D(96,94,97,98)        -35.9525                                         !
 ! D267  D(96,94,97,99)         80.2215                                         !
 ! D268  D(96,94,97,101)      -157.35                                           !
 ! D269  D(94,96,106,107)       -4.2763                                         !
 ! D270  D(94,96,106,108)      129.1992                                         !
 ! D271  D(100,96,106,107)    -175.8332                                         !
 ! D272  D(100,96,106,108)     -42.3577                                         !
 ! D273  D(94,97,101,102)       74.4803                                         !
 ! D274  D(94,97,101,105)     -113.0544                                         !
 ! D275  D(98,97,101,102)      -47.4168                                         !
 ! D276  D(98,97,101,105)      125.0484                                         !
 ! D277  D(99,97,101,102)     -162.7595                                         !
 ! D278  D(99,97,101,105)        9.7057                                         !
 ! D279  D(97,101,102,103)    -151.6605                                         !
 ! D280  D(97,101,102,104)     -21.8707                                         !
 ! D281  D(105,101,102,103)     35.6969                                         !
 ! D282  D(105,101,102,104)    165.4867                                         !
 ! D283  D(96,106,108,109)      18.8015                                         !
 ! D284  D(96,106,108,110)     -98.7367                                         !
 ! D285  D(96,106,108,111)     140.2521                                         !
 ! D286  D(107,106,108,109)    154.8823                                         !
 ! D287  D(107,106,108,110)     37.3441                                         !
 ! D288  D(107,106,108,111)    -83.667                                          !
 ! D289  D(106,108,110,114)    -46.7687                                         !
 ! D290  D(106,108,110,127)    127.4289                                         !
 ! D291  D(109,108,110,114)   -161.2175                                         !
 ! D292  D(109,108,110,127)     12.9802                                         !
 ! D293  D(111,108,110,114)     77.9224                                         !
 ! D294  D(111,108,110,127)   -107.8799                                         !
 ! D295  D(106,108,111,112)    -67.0539                                         !
 ! D296  D(106,108,111,113)     51.3166                                         !
 ! D297  D(106,108,111,115)    170.8976                                         !
 ! D298  D(109,108,111,112)     53.3092                                         !
 ! D299  D(109,108,111,113)    171.6797                                         !
 ! D300  D(109,108,111,115)    -68.7393                                         !
 ! D301  D(110,108,111,112)    175.5625                                         !
 ! D302  D(110,108,111,113)    -66.067                                          !
 ! D303  D(110,108,111,115)     53.5141                                         !
 ! D304  D(108,110,127,128)     23.9721                                         !
 ! D305  D(108,110,127,129)   -178.6235                                         !
 ! D306  D(114,110,127,128)   -162.3089                                         !
 ! D307  D(114,110,127,129)     -4.9045                                         !
 ! D308  D(108,111,115,116)    -95.2645                                         !
 ! D309  D(108,111,115,118)     66.2123                                         !
 ! D310  D(112,111,115,116)    145.8285                                         !
 ! D311  D(112,111,115,118)    -52.6946                                         !
 ! D312  D(113,111,115,116)     22.9646                                         !
 ! D313  D(113,111,115,118)   -175.5585                                         !
 ! D314  D(111,115,116,117)    -18.3489                                         !
 ! D315  D(111,115,116,120)    154.755                                          !
 ! D316  D(118,115,116,117)   -179.9693                                         !
 ! D317  D(118,115,116,120)     -6.8654                                         !
 ! D318  D(111,115,118,119)     20.2424                                         !
 ! D319  D(111,115,118,122)   -154.422                                          !
 ! D320  D(116,115,118,119)   -177.8847                                         !
 ! D321  D(116,115,118,122)      7.4509                                         !
 ! D322  D(115,116,120,121)   -174.7569                                         !
 ! D323  D(115,116,120,126)     -1.4336                                         !
 ! D324  D(117,116,120,121)     -1.6473                                         !
 ! D325  D(117,116,120,126)    171.6761                                         !
 ! D326  D(115,118,122,123)    175.057                                          !
 ! D327  D(115,118,122,126)      0.2488                                         !
 ! D328  D(119,118,122,123)      0.3921                                         !
 ! D329  D(119,118,122,126)   -174.4161                                         !
 ! D330  D(116,120,126,122)      9.2548                                         !
 ! D331  D(116,120,126,124)   -167.994                                          !
 ! D332  D(121,120,126,122)   -177.2553                                         !
 ! D333  D(121,120,126,124)      5.4959                                         !
 ! D334  D(118,122,126,120)     -8.6787                                         !
 ! D335  D(118,122,126,124)    168.5372                                         !
 ! D336  D(123,122,126,120)    176.3932                                         !
 ! D337  D(123,122,126,124)     -6.3909                                         !
 ! D338  D(125,124,126,120)    119.3619                                         !
 ! D339  D(125,124,126,122)    -57.8449                                         !
 ! D340  D(110,127,129,130)    -64.6815                                         !
 ! D341  D(110,127,129,131)   -179.5161                                         !
 ! D342  D(110,127,129,132)     55.4614                                         !
 ! D343  D(128,127,129,130)     93.7982                                         !
 ! D344  D(128,127,129,131)    -21.0363                                         !
 ! D345  D(128,127,129,132)   -146.0589                                         !
 ! D346  D(127,129,131,135)   -136.243                                          !
 ! D347  D(127,129,131,151)     42.2338                                         !
 ! D348  D(130,129,131,135)    108.0329                                         !
 ! D349  D(130,129,131,151)    -73.4903                                         !
 ! D350  D(132,129,131,135)    -14.7909                                         !
 ! D351  D(132,129,131,151)    163.6859                                         !
 ! D352  D(127,129,132,133)    -50.3384                                         !
 ! D353  D(127,129,132,134)     63.9638                                         !
 ! D354  D(127,129,132,136)   -172.363                                          !
 ! D355  D(130,129,132,133)     69.1209                                         !
 ! D356  D(130,129,132,134)   -176.577                                          !
 ! D357  D(130,129,132,136)    -52.9038                                         !
 ! D358  D(131,129,132,133)   -169.3452                                         !
 ! D359  D(131,129,132,134)    -55.0431                                         !
 ! D360  D(131,129,132,136)     68.6301                                         !
 ! D361  D(129,132,136,137)    -12.7197                                         !
 ! D362  D(129,132,136,138)    105.6309                                         !
 ! D363  D(129,132,136,139)   -133.6026                                         !
 ! D364  D(133,132,136,137)   -134.3697                                         !
 ! D365  D(133,132,136,138)    -16.0191                                         !
 ! D366  D(133,132,136,139)    104.7474                                         !
 ! D367  D(134,132,136,137)    109.1144                                         !
 ! D368  D(134,132,136,138)   -132.535                                          !
 ! D369  D(134,132,136,139)    -11.7684                                         !
 ! D370  D(132,136,139,140)   -176.2712                                         !
 ! D371  D(132,136,139,141)    -56.2426                                         !
 ! D372  D(132,136,139,142)     63.9526                                         !
 ! D373  D(137,136,139,140)     61.4564                                         !
 ! D374  D(137,136,139,141)   -178.515                                          !
 ! D375  D(137,136,139,142)    -58.3198                                         !
 ! D376  D(138,136,139,140)    -54.1822                                         !
 ! D377  D(138,136,139,141)     65.8464                                         !
 ! D378  D(138,136,139,142)   -173.9583                                         !
 ! D379  D(136,139,142,143)     28.1494                                         !
 ! D380  D(136,139,142,150)   -105.1043                                         !
 ! D381  D(140,139,142,143)    -93.349                                          !
 ! D382  D(140,139,142,150)    133.3973                                         !
 ! D383  D(141,139,142,143)    148.264                                          !
 ! D384  D(141,139,142,150)     15.0103                                         !
 ! D385  D(139,142,150,144)    -41.0713                                         !
 ! D386  D(139,142,150,147)    141.8448                                         !
 ! D387  D(143,142,150,144)   -174.4333                                         !
 ! D388  D(143,142,150,147)      8.4828                                         !
 ! D389  D(145,144,150,142)    146.2146                                         !
 ! D390  D(145,144,150,147)    -36.7455                                         !
 ! D391  D(146,144,150,142)      9.445                                          !
 ! D392  D(146,144,150,147)   -173.5151                                         !
 ! D393  D(148,147,150,142)    168.1338                                         !
 ! D394  D(148,147,150,144)     -9.0493                                         !
 ! D395  D(149,147,150,142)    -20.8405                                         !
 ! D396  D(149,147,150,144)    161.9764                                         !
 --------------------------------------------------------------------------------
 Symmetry turned off by external request.
 Stoichiometry    C50H77N12O13(1+)
 Framework group  C1[X(C50H77N12O13)]
 Deg. of freedom   450
 Full point group                 C1      NOp   1
                          Input orientation:                          
 ---------------------------------------------------------------------
 Center     Atomic      Atomic             Coordinates (Angstroms)
 Number     Number       Type             X           Y           Z
 ---------------------------------------------------------------------
      1          7           0      -10.309532    4.137759    4.258857
[...]
 Alpha virt. eigenvalues --    1.85223   1.85729   1.85742   1.85954   1.86353
 Alpha virt. eigenvalues --    1.86607   1.86804   1.87141   1.87611   1.87735
 Alpha virt. eigenvalues --    1.88021   1.88392   1.88578   1.88868   1.89023
 Alpha virt. eigenvalues --    1.89152   1.89423   1.89870   1.90144   1.90289
 Alpha virt. eigenvalues --    1.90657   1.90788   1.91427   1.91760   1.91946
 Alpha virt. eigenvalues --    1.92075   1.92321   1.92586   1.92989   1.93486
 Alpha virt. eigenvalues --    1.93865   1.94057   1.94293   1.94669   1.95338
 Alpha virt. eigenvalues --    1.95685   1.95845   1.96257   1.96317   1.96644
 Alpha virt. eigenvalues --    1.96887   1.97141   1.97515   1.97596   1.98427
 Alpha virt. eigenvalues --    1.98591   1.98833   1.98970   1.99276   1.99548
 Alpha virt. eigenvalues --    2.00103   2.00249   2.00628   2.00947   2.01321
 Alpha virt. eigenvalues --    2.01520   2.01892   2.02045   2.02244   2.02521
 Alpha virt. eigenvalues --    2.02765   2.02968   2.03245   2.03988   2.04392
 Alpha virt. eigenvalues --    2.04472   2.04876   2.04975   2.05194   2.05494
 Alpha virt. eigenvalues --    2.06311   2.06688   2.06885   2.07005   2.07512
 Alpha virt. eigenvalues --    2.07830   2.08053   2.08165   2.08700   2.08893
 Alpha virt. eigenvalues --    2.09797   2.10143   2.10220   2.10619   2.10982
 Alpha virt. eigenvalues --    2.11749   2.11846   2.12211   2.12565   2.12703
 Alpha virt. eigenvalues --    2.13860   2.14356   2.14560   2.15399   2.15762
 Alpha virt. eigenvalues --    2.16338   2.16813   2.17205   2.17735   2.18685
 Alpha virt. eigenvalues --    2.18777   2.19210   2.19428   2.19636   2.20415
 Alpha virt. eigenvalues --    2.20546   2.20763   2.21030   2.21662   2.22152
 Alpha virt. eigenvalues --    2.22684   2.22984   2.23340   2.23523   2.24410
 Alpha virt. eigenvalues --    2.24638   2.24931   2.25664   2.25959   2.26165
 Alpha virt. eigenvalues --    2.26561   2.26880   2.27152   2.27647   2.27887
 Alpha virt. eigenvalues --    2.28273   2.28833   2.29156   2.29497   2.29760
 Alpha virt. eigenvalues --    2.29985   2.30647   2.31286   2.31555   2.31838
 Alpha virt. eigenvalues --    2.31931   2.32367   2.33059   2.33852   2.34509
 Alpha virt. eigenvalues --    2.35082   2.35132   2.35513   2.35830   2.35968
 Alpha virt. eigenvalues --    2.36662   2.37887   2.38190   2.38623   2.39214
 Alpha virt. eigenvalues --    2.39554   2.40061   2.40111   2.40838   2.41020
 Alpha virt. eigenvalues --    2.41522   2.42561   2.42689   2.42705   2.43229
 Alpha virt. eigenvalues --    2.43679   2.44313   2.44860   2.45853   2.46411
 Alpha virt. eigenvalues --    2.46564   2.47418   2.47521   2.47757   2.48293
 Alpha virt. eigenvalues --    2.49398   2.49555   2.49887   2.49984   2.50800
 Alpha virt. eigenvalues --    2.51019   2.51636   2.52051   2.52666   2.52913
 Alpha virt. eigenvalues --    2.54101   2.54250   2.54695   2.54924   2.55363
 Alpha virt. eigenvalues --    2.55757   2.56205   2.56487   2.56836   2.56967
 Alpha virt. eigenvalues --    2.57659   2.58455   2.59013   2.59371   2.59571
 Alpha virt. eigenvalues --    2.60197   2.61028   2.61401   2.61674   2.62155
 Alpha virt. eigenvalues --    2.62255   2.63150   2.64365   2.64617   2.64682
 Alpha virt. eigenvalues --    2.64862   2.65420   2.65747   2.66106   2.66332
 Alpha virt. eigenvalues --    2.66887   2.67226   2.67666   2.68015   2.68355
 Alpha virt. eigenvalues --    2.68564   2.68748   2.69329   2.69368   2.70033
 Alpha virt. eigenvalues --    2.70943   2.71384   2.72372   2.73144   2.74702
 Alpha virt. eigenvalues --    2.75373   2.76455   2.76572   2.77338   2.77761
 Alpha virt. eigenvalues --    2.78765   2.80463   2.81628   2.82915   2.83986
 Alpha virt. eigenvalues --    2.84112   2.84672   2.85724   2.86988   2.87197
 Alpha virt. eigenvalues --    2.88122   2.89368   2.90211   2.91339   2.91875
 Alpha virt. eigenvalues --    2.92723   2.93305   2.93905   2.94274   2.94754
 Alpha virt. eigenvalues --    2.95741   2.96107   2.96764   2.97462   2.97525
 Alpha virt. eigenvalues --    2.98594   2.99088   2.99953   2.99966   3.00557
 Alpha virt. eigenvalues --    3.02797   3.05210   3.05772   3.06106   3.08346
 Alpha virt. eigenvalues --    3.10561   3.10843   3.11689   3.13910   3.17295
 Alpha virt. eigenvalues --    3.31584   3.38662   3.61745   3.77640   3.77851
 Alpha virt. eigenvalues --    3.86964   3.89026   3.91835   3.92065   3.93305
 Alpha virt. eigenvalues --    3.95836   3.97634   3.98538   3.98696   3.99134
 Alpha virt. eigenvalues --    4.00459   4.01894   4.02648   4.02998   4.03270
 Alpha virt. eigenvalues --    4.03941   4.04918   4.05987   4.06373   4.08874
 Alpha virt. eigenvalues --    4.09549   4.10976   4.11890   4.12546   4.13328
 Alpha virt. eigenvalues --    4.16440   4.16550   4.16987   4.18233   4.19432
 Alpha virt. eigenvalues --    4.20229   4.20840   4.22444   4.23121   4.24216
 Alpha virt. eigenvalues --    4.24756   4.25984   4.25998   4.26961   4.27916
 Alpha virt. eigenvalues --    4.29619   4.30218   4.30605   4.32920   4.33431
 Alpha virt. eigenvalues --    4.33893   4.34934   4.35869   4.38376   4.39078
 Alpha virt. eigenvalues --    4.41320   4.42573   4.43379   4.44034   4.44797
 Alpha virt. eigenvalues --    4.45339   4.45862   4.47138   4.47670   4.48841
 Alpha virt. eigenvalues --    4.50826   4.52965   4.53518   4.58513   4.61741
 Alpha virt. eigenvalues --    4.62215   4.63170   4.64204   4.65157   4.67417
 Alpha virt. eigenvalues --    4.69701   4.81726
          Condensed to atoms (all electrons):
 Mulliken charges:
               1
     1  N   -0.757221
     2  H    0.420087
     3  H    0.435955
     4  H    0.415262
     5  C   -0.113999
     6  H    0.211109
     7  C    0.655571
     8  C   -0.113976
     9  H    0.158883
    10  O   -0.536374
    11  C   -0.470270
    12  H    0.195031
    13  H    0.192691
    14  H    0.136737
    15  C   -0.495555
    16  H    0.201788
    17  H    0.160039
    18  H    0.191257
    19  N   -0.590950
    20  H    0.372056
    21  C   -0.091777
    22  H    0.190975
    23  C    0.646389
    24  C   -0.071912
    25  H    0.150645
    26  O   -0.561765
    27  C   -0.287002
    28  H    0.128815
    29  H    0.160853
    30  C   -0.480921
    31  H    0.180522
    32  H    0.134751
    33  H    0.177083
    34  C   -0.456443
    35  H    0.171537
    36  H    0.154228
    37  H    0.165760
    38  N   -0.582825
    39  H    0.349410
    40  C   -0.073381
    41  H    0.191815
    42  C    0.645983
    43  C   -0.392626
    44  H    0.187996
    45  H    0.180096
    46  O   -0.534424
    47  C    0.185014
    48  C   -0.183191
    49  H    0.139948
    50  C   -0.197066
    51  H    0.127170
    52  C   -0.135228
    53  H    0.145538
    54  C   -0.133344
    55  H    0.142241
    56  C   -0.136781
    57  H    0.139467
    58  N   -0.627949
    59  H    0.361422
    60  C   -0.062316
    61  H    0.188245
    62  C    0.650708
    63  C   -0.301381
    64  H    0.157344
    65  H    0.132059
    66  O   -0.556804
    67  C   -0.092468
    68  H    0.179762
    69  C   -0.458998
    70  H    0.129077
    71  H    0.142514
    72  H    0.173630
    73  C   -0.460034
    74  H    0.129467
    75  H    0.168152
    76  H    0.134266
    77  N   -0.598043
    78  H    0.369677
    79  C   -0.055350
    80  H    0.168189
    81  C    0.627008
    82  C   -0.295977
    83  H    0.179176
    84  H    0.177301
    85  O   -0.532012
    86  C   -0.358349
    87  H    0.181829
    88  H    0.187843
    89  C    0.585695
    90  O   -0.451181
    91  O   -0.572793
    92  N   -0.640699
    93  H    0.355252
    94  C   -0.021326
    95  H    0.191833
    96  C    0.575547
    97  C   -0.395634
    98  H    0.181506
    99  H    0.213363
   100  O   -0.516430
   101  C    0.595251
   102  N   -0.793756
   103  H    0.389978
   104  H    0.338950
   105  O   -0.513595
   106  N   -0.581796
   107  H    0.345141
   108  C   -0.058614
   109  H    0.177374
   110  C    0.623599
   111  C   -0.339166
   112  H    0.158019
   113  H    0.156504
   114  O   -0.571571
   115  C    0.122105
   116  C   -0.183121
   117  H    0.134926
   118  C   -0.213333
   119  H    0.127213
   120  C   -0.158189
   121  H    0.137048
   122  C   -0.161591
   123  H    0.138716
   124  O   -0.690932
   125  H    0.442362
   126  C    0.355482
   127  N   -0.623746
   128  H    0.369228
   129  C   -0.023982
   130  H    0.169325
   131  C    0.573702
   132  C   -0.291586
   133  H    0.195662
   134  H    0.119049
   135  O   -0.624978
   136  C   -0.290489
   137  H    0.171642
   138  H    0.155410
   139  C   -0.180772
   140  H    0.168939
   141  H    0.165672
   142  N   -0.567991
   143  H    0.398564
   144  N   -0.757686
   145  H    0.382048
   146  H    0.365742
   147  N   -0.766287
   148  H    0.350462
   149  H    0.414464
   150  C    0.714921
   151  O   -0.568564
   152  H    0.415453
 Sum of Mulliken charges =   1.00000
 Mulliken charges with hydrogens summed into heavy atoms:
               1
     1  N    0.514083
     5  C    0.097110
     7  C    0.655571
     8  C    0.044908
    10  O   -0.536374
    11  C    0.054189
    15  C    0.057530
    19  N   -0.218894
    21  C    0.099197
    23  C    0.646389
    24  C    0.078733
    26  O   -0.561765
    27  C    0.002666
    30  C    0.011435
    34  C    0.035082
    38  N   -0.233416
    40  C    0.118435
    42  C    0.645983
    43  C   -0.024535
    46  O   -0.534424
    47  C    0.185014
    48  C   -0.043242
    50  C   -0.069896
    52  C    0.010310
    54  C    0.008898
    56  C    0.002686
    58  N   -0.266527
    60  C    0.125929
    62  C    0.650708
    63  C   -0.011978
    66  O   -0.556804
    67  C    0.087295
    69  C   -0.013776
    73  C   -0.028150
    77  N   -0.228366
    79  C    0.112839
    81  C    0.627008
    82  C    0.060500
    85  O   -0.532012
    86  C    0.011324
    89  C    0.585695
    90  O   -0.451181
    91  O   -0.157340
    92  N   -0.285447
    94  C    0.170507
    96  C    0.575547
    97  C   -0.000764
   100  O   -0.516430
   101  C    0.595251
   102  N   -0.064829
   105  O   -0.513595
   106  N   -0.236655
   108  C    0.118760
   110  C    0.623599
   111  C   -0.024642
   114  O   -0.571571
   115  C    0.122105
   116  C   -0.048195
   118  C   -0.086120
   120  C   -0.021141
   122  C   -0.022875
   124  O   -0.248570
   126  C    0.355482
   127  N   -0.254519
   129  C    0.145343
   131  C    0.573702
   132  C    0.023124
   135  O   -0.624978
   136  C    0.036562
   139  C    0.153839
   142  N   -0.169428
   144  N   -0.009895
   147  N   -0.001361
   150  C    0.714921
   151  O   -0.568564
 Electronic spatial extent (au):  <R**2>=         119082.9835
 Charge=              1.0000 electrons
 Dipole moment (field-independent basis, Debye):
    X=            -50.6047    Y=             18.5090    Z=             24.5856  Tot=             59.2273
 Quadrupole moment (field-independent basis, Debye-Ang):
   XX=           -166.4471   YY=           -361.1375   ZZ=           -341.0051
   XY=           -197.1108   XZ=           -123.9393   YZ=             76.7732
 Traceless Quadrupole moment (field-independent basis, Debye-Ang):
   XX=            123.0828   YY=            -71.6076   ZZ=            -51.4752
   XY=           -197.1108   XZ=           -123.9393   YZ=             76.7732
 Octapole moment (field-independent basis, Debye-Ang**2):
  XXX=          -6408.1005  YYY=          -1806.4395  ZZZ=            405.6621  XYY=          -1291.6539
  XXY=            490.6606  XXZ=           2224.0375  XZZ=          -1417.3732  YZZ=           -413.3750
  YYZ=            292.7015  XYZ=           -537.2907
 Hexadecapole moment (field-independent basis, Debye-Ang**3):
 XXXX=         -79318.3385 YYYY=         -19926.3300 ZZZZ=         -30521.5329 XXXY=         -22759.2153
 XXXZ=          13021.7493 YYYX=          -4999.3246 YYYZ=           4643.4333 ZZZX=          18717.0485
 ZZZY=           4402.3523 XXYY=         -14769.8672 XXZZ=         -16823.0887 YYZZ=          -7468.6668
 XXYZ=          10462.6316 YYXZ=           5107.9647 ZZXY=          -4384.7548
 N-N= 1.301534282216D+04 E-N=-3.434662121426D+04  KE= 3.553580980027D+03
 Unable to Open any file for archive entry.
 1\1\GINC-QML-002\SP\RB3LYP\6-31G(d)\C50H77N12O13(1+)\KENGMITH\13-Aug-2
 022\0\\# B3LYP/6-31G* empiricaldispersion=gd3 guess=read geom=check no
 symm integral(ultrafinegrid)\\Candidate Structure: Conf:156 Charge cal
 c in gas phase\\1,1\N,0,-10.3095320717,4.1377585258,4.2588569038\H,0,-
 10.9474477311,4.7160452864,3.7044522285\H,0,-10.3901512695,3.133323422
 4,3.929954934\H,0,-10.5633385545,4.2226935842,5.2472546858\C,0,-8.8449
 470909,4.4442760716,3.9945756512\H,0,-8.7834069009,5.4321721123,3.5316
 640445\C,0,-8.4438625659,3.3105709479,3.0186923213\C,0,-8.0466221402,4
 .4107059772,5.3265267644\H,0,-8.5936899231,5.0813451471,6.0077056178\O
 ,0,-9.1859241957,2.3207138903,2.9573016754\C,0,-7.9935229919,3.0027778
 488,5.9394368931\H,0,-7.4211168875,2.3089614846,5.315849648\H,0,-7.498
 7866721,3.0403277891,6.9128287764\H,0,-8.9838805071,2.5582229489,6.097
 1163433\C,0,-6.6364394853,4.9983618206,5.1549774709\H,0,-5.9717037145,
 4.3312013998,4.5975788835\H,0,-6.6569396027,5.976397234,4.6591536887\H
 ,0,-6.1894993055,5.1435571835,6.1428411595\N,0,-7.3026730444,3.4686679
 049,2.346029964\H,0,-6.711822303,4.2669913937,2.5541851044\C,0,-6.5944
 929403,2.3466501686,1.7145379319\H,0,-7.2478663783,1.4761224537,1.8064
 302951\C,0,-5.3171789593,2.1630540487,2.5461606162\C,0,-6.2909801813,2
 .5961140601,0.2117664234\H,0,-7.2741037852,2.632354322,-0.2786288246\O
 ,0,-4.6620257017,3.1530026241,2.8994027676\C,0,-5.5104250192,1.3953559
 2,-0.3661588811\H,0,-5.9795942492,0.4619335886,-0.0207830896\H,0,-4.48
 98912932,1.3962213265,0.0399134216\C,0,-5.5767329119,3.9325345663,-0.0
 366228768\H,0,-4.6081850181,3.9689103521,0.4703133736\H,0,-6.175102723
 ,4.7822964062,0.3113724494\H,0,-5.4101053321,4.0808842736,-1.106419013
 7\C,0,-5.4524060932,1.3727364754,-1.8968116513\H,0,-4.9281933165,0.478
 2346078,-2.246841873\H,0,-6.4591703657,1.3654302044,-2.33060054\H,0,-4
 .9170742832,2.2386372275,-2.2976446743\N,0,-4.9809337333,0.9000973427,
 2.8604034759\H,0,-5.5292390996,0.1331548949,2.4933327212\C,0,-3.757303
 4073,0.5678623973,3.5978173102\H,0,-3.5450179935,1.4330331726,4.233284
 8101\C,0,-2.6138751909,0.3830467415,2.5778011014\C,0,-3.9754576105,-0.
 6798013943,4.4632304916\H,0,-3.0316391395,-0.8961849873,4.9741657074\H
 ,0,-4.1637702713,-1.5368016046,3.8071319587\O,0,-2.1847059092,-0.73220
 38954,2.2834817847\C,0,-5.0991910351,-0.4839366126,5.4568781052\C,0,-4
 .8779062374,0.2168040328,6.6505844204\H,0,-3.8799789899,0.5868105131,6
 .876128083\C,0,-6.3887342788,-0.9622300164,5.1914391741\H,0,-6.5741822
 307,-1.528367806,4.2805608283\C,0,-5.9142894293,0.4226682791,7.5616186
 188\H,0,-5.7177547822,0.9470298616,8.4930146918\C,0,-7.4314333538,-0.7
 550595316,6.0973380217\H,0,-8.4201933565,-1.1507990505,5.8815610547\C,
 0,-7.1952555295,-0.0649614991,7.2878984342\H,0,-7.9983492519,0.0768441
 538,8.0060850695\N,0,-2.1917971773,1.534625683,2.0032628708\H,0,-2.591
 5511657,2.4140060274,2.313617584\C,0,-1.2612763084,1.5440281493,0.8702
 006455\H,0,-1.4865174174,0.6542796886,0.2725498994\C,0,0.198917423,1.4
 063049649,1.3606304389\C,0,-1.4222175185,2.8032532155,0.0181845413\H,0
 ,-1.0068573666,3.6486206306,0.5783646711\H,0,-2.4924378456,2.998816704
 5,-0.1353816746\O,0,0.9904113105,2.3487684751,1.3441701518\C,0,-0.7189
 773394,2.6755480778,-1.3529807841\H,0,0.2191956931,2.1276753928,-1.214
 070756\C,0,-1.5631968585,1.8693548254,-2.3491419617\H,0,-2.4914260229,
 2.4019696544,-2.5968062413\H,0,-1.8347866427,0.8828185164,-1.954444163
 \H,0,-1.0067807528,1.7063822213,-3.2776466548\C,0,-0.3735395122,4.0559
 847511,-1.9236173105\H,0,-1.2797866169,4.6498477752,-2.1029367543\H,0,
 0.1658195602,3.9477106075,-2.8692128923\H,0,0.2635376152,4.6226775456,
 -1.2324498489\N,0,0.5394904867,0.1654973874,1.7916105336\H,0,-0.161239
 2715,-0.5576554407,1.6591723735\C,0,1.9336748987,-0.2416094792,1.75351
 88238\H,0,2.5169404448,0.4637495009,2.3560766955\C,0,2.4106493691,-0.1
 651980736,0.2807113138\C,0,2.0909095409,-1.6654480952,2.3042351141\H,0
 ,3.1451140256,-1.956444105,2.2604468346\H,0,1.5575868085,-2.3687681801
 ,1.6531968248\O,0,1.6112735542,-0.1714979206,-0.6509328533\C,0,1.57776
 79969,-1.7990443218,3.7391468776\H,0,2.0893467447,-1.0984696837,4.4120
 776479\H,0,0.5113892477,-1.5527217187,3.808276475\C,0,1.7744704748,-3.
 1990654803,4.2796145941\O,0,2.2895504342,-4.1184451117,3.6850114199\O,
 0,1.2928735013,-3.3089392996,5.5422702026\N,0,3.7496688811,-0.06965777
 32,0.0919484231\H,0,4.4229016953,-0.1241815256,0.8516335368\C,0,4.3278
 973913,-0.1096295414,-1.2389613628\H,0,3.762959609,-0.8215609238,-1.84
 74957764\C,0,5.8142036996,-0.4782970354,-1.0842453251\C,0,4.3577815602
 ,1.2729515466,-1.9835044876\H,0,5.223931114,1.8396140608,-1.6181834598
 \H,0,4.5135931717,1.0888492804,-3.0467075235\O,0,6.3852665491,-0.23056
 12931,-0.0253367622\C,0,3.1386373809,2.1729816337,-1.8410253812\N,0,3.
 0224177009,2.8037652745,-0.6070949762\H,0,2.0697401028,3.0195730935,-0
 .3209579238\H,0,3.5215101488,2.3619018381,0.1572479329\O,0,2.389288108
 1,2.4458617277,-2.7681954938\N,0,6.4404741371,-0.9107644946,-2.2156995
 844\H,0,5.850142468,-1.0133537755,-3.0391612104\C,0,7.7180992586,-0.27
 69891363,-2.5939195381\H,0,8.1042098616,0.2138590223,-1.6990999685\C,0
 ,7.3074399975,0.7629392846,-3.6718780067\C,0,8.8040989722,-1.226921148
 8,-3.15063614\H,0,9.1347531091,-1.8992254965,-2.3507903868\H,0,8.37934
 66053,-1.8335277946,-3.9576461326\O,0,6.5420806885,0.3910331167,-4.570
 6049017\C,0,9.8932647938,-0.3066362809,-3.66332511\C,0,9.9300139187,0.
 0607066333,-5.0140638684\H,0,9.3807489512,-0.5307522626,-5.7424690464\
 C,0,10.6114195568,0.4755044051,-2.7437022859\H,0,10.6259141989,0.18918
 07884,-1.6931482886\C,0,10.5392559373,1.2488842075,-5.4197050812\H,0,1
 0.496873229,1.578756519,-6.4531468314\C,0,11.2109141015,1.6675503838,-
 3.1361793733\H,0,11.6987586713,2.3147390928,-2.4139872639\O,0,11.46971
 31261,3.3676716491,-4.8231505481\H,0,10.9223157171,3.9588738936,-4.258
 5869272\C,0,11.0963071972,2.1026266828,-4.4648722752\N,0,7.7217176381,
 2.0314879089,-3.4802078184\H,0,8.5433827146,2.1925288754,-2.9028858274
 \C,0,7.4116747424,3.1622821998,-4.3706623871\H,0,7.8842321777,2.981043
 196,-5.3477036557\C,0,8.1266491849,4.4106577122,-3.7262261858\C,0,5.89
 10020398,3.2886507592,-4.5440055348\H,0,5.5007425993,2.3079356072,-4.8
 140277887\H,0,5.4746821568,3.5288623449,-3.5591731926\O,0,7.4857510974
 ,5.5066851398,-3.6644448967\C,0,5.4191643292,4.3146207977,-5.595050998
 \H,0,6.2452045763,4.964022927,-5.9060639892\H,0,5.0582511823,3.8084374
 415,-6.4977811241\C,0,4.2868384596,5.1950030391,-5.0436306167\H,0,3.90
 17267583,5.8815165063,-5.8041704372\H,0,3.4573600484,4.5662198897,-4.7
 005339691\N,0,4.8252629972,5.9815880652,-3.9183333664\H,0,5.8378454393
 ,6.1378986741,-4.0474588965\N,0,3.3367457112,5.3764808664,-2.186767121
 5\H,0,3.309485198,4.7238835424,-1.4019400297\H,0,2.6359243969,5.165800
 7166,-2.8849719866\N,0,5.5618816163,5.888961331,-1.7489626608\H,0,5.38
 27708041,5.8859235826,-0.7566931479\H,0,6.523259387,5.8718565563,-2.12
 20707484\C,0,4.5664380127,5.7280940419,-2.6301097596\O,0,9.2792226029,
 4.2058306842,-3.294097303\H,0,1.4642524653,-4.2276305427,5.8240077058\
 \Version=ES64L-G16RevC.01\HF=-3586.8198881\RMSD=5.584e-10\Dipole=-21.4
 202616,4.141198,9.2891156\Quadrupole=91.5090591,-53.2385082,-38.270550
 9,-146.5470435,-92.145823,57.0790058\PG=C01 [X(C50H77N12O13)]\\@
 The archive entry for this job was punched.


 A FOOL CAN ASK MORE QUESTIONS THAN
 A WISE MAN CAN ANSWER.
 Job cpu time:       0 days  0 hours  9 minutes 13.6 seconds.
 Elapsed time:       0 days  0 hours  2 minutes 19.5 seconds.
 File lengths (MBytes):  RWF=   1072 Int=      0 D2E=      0 Chk=    160 Scr=     32
 Normal termination of Gaussian 16 at Sat Aug 13 18:47:15 2022.
