 Entering Gaussian System, Link 0=/opt/software/Gaussian/g16-AVX2-C.01/g16/g16
 Input=charge-conf-981.com
 Output=charge-conf-981.log
 Initial command:
 /opt/software/Gaussian/g16-AVX2-C.01/g16/l1.exe "/mnt/gs21/scratch/kengmith/Gau-6062.inp" -scrdir="/mnt/gs21/scratch/kengmith/"
 Entering Link 1 = /opt/software/Gaussian/g16-AVX2-C.01/g16/l1.exe PID=      6073.
  
 Copyright (c) 1988-2019, Gaussian, Inc.  All Rights Reserved.
  
 This is part of the Gaussian(R) 16 program.  It is based on
 the Gaussian(R) 09 system (copyright 2009, Gaussian, Inc.),
 the Gaussian(R) 03 system (copyright 2003, Gaussian, Inc.),
 the Gaussian(R) 98 system (copyright 1998, Gaussian, Inc.),
 the Gaussian(R) 94 system (copyright 1995, Gaussian, Inc.),
 the Gaussian 92(TM) system (copyright 1992, Gaussian, Inc.),
 the Gaussian 90(TM) system (copyright 1990, Gaussian, Inc.),
 the Gaussian 88(TM) system (copyright 1988, Gaussian, Inc.),
 the Gaussian 86(TM) system (copyright 1986, Carnegie Mellon
 University), and the Gaussian 82(TM) system (copyright 1983,
 Carnegie Mellon University). Gaussian is a federally registered
 trademark of Gaussian, Inc.
  
 This software contains proprietary and confidential information,
 including trade secrets, belonging to Gaussian, Inc.
  
 This software is provided under written license and may be
 used, copied, transmitted, or stored only in accord with that
 written license.
  
 The following legend is applicable only to US Government
 contracts under FAR:
  
                    RESTRICTED RIGHTS LEGEND
  
 Use, reproduction and disclosure by the US Government is
 subject to restrictions as set forth in subparagraphs (a)
 and (c) of the Commercial Computer Software - Restricted
 Rights clause in FAR 52.227-19.
  
 Gaussian, Inc.
 340 Quinnipiac St., Bldg. 40, Wallingford CT 06492
  
  
 ---------------------------------------------------------------
 Warning -- This program may not be used in any manner that
 competes with the business of Gaussian, Inc. or will provide
 assistance to any competitor of Gaussian, Inc.  The licensee
 of this program is prohibited from giving any competitor of
 Gaussian, Inc. access to this program.  By using this program,
 the user acknowledges that Gaussian, Inc. is engaged in the
 business of creating and licensing software in the field of
 computational chemistry and represents and warrants to the
 licensee that it is not a competitor of Gaussian, Inc. and that
 it will not use this program in any manner prohibited above.
 ---------------------------------------------------------------
  

 Cite this work as:
 Gaussian 16, Revision C.01,
 M. J. Frisch, G. W. Trucks, H. B. Schlegel, G. E. Scuseria, 
 M. A. Robb, J. R. Cheeseman, G. Scalmani, V. Barone, 
 G. A. Petersson, H. Nakatsuji, X. Li, M. Caricato, A. V. Marenich, 
 J. Bloino, B. G. Janesko, R. Gomperts, B. Mennucci, H. P. Hratchian, 
 J. V. Ortiz, A. F. Izmaylov, J. L. Sonnenberg, D. Williams-Young, 
 F. Ding, F. Lipparini, F. Egidi, J. Goings, B. Peng, A. Petrone, 
 T. Henderson, D. Ranasinghe, V. G. Zakrzewski, J. Gao, N. Rega, 
 G. Zheng, W. Liang, M. Hada, M. Ehara, K. Toyota, R. Fukuda, 
 J. Hasegawa, M. Ishida, T. Nakajima, Y. Honda, O. Kitao, H. Nakai, 
 T. Vreven, K. Throssell, J. A. Montgomery, Jr., J. E. Peralta, 
 F. Ogliaro, M. J. Bearpark, J. J. Heyd, E. N. Brothers, K. N. Kudin, 
 V. N. Staroverov, T. A. Keith, R. Kobayashi, J. Normand, 
 K. Raghavachari, A. P. Rendell, J. C. Burant, S. S. Iyengar, 
 J. Tomasi, M. Cossi, J. M. Millam, M. Klene, C. Adamo, R. Cammi, 
 J. W. Ochterski, R. L. Martin, K. Morokuma, O. Farkas, 
 J. B. Foresman, and D. J. Fox, Gaussian, Inc., Wallingford CT, 2019.
 
 ******************************************
 Gaussian 16:  ES64L-G16RevC.01  3-Jul-2019
                13-Aug-2022 
 ******************************************
 %mem=8gb
 %nproc=4
 Will use up to    4 processors via shared memory.
 %chk=conf-981.chk
 ----------------------------------------------------------------------
 # B3LYP/6-31G* empiricaldispersion=gd3 guess=read geom=check nosymm in
 tegral(ultrafinegrid)
 ----------------------------------------------------------------------
 1/29=2,38=1,172=1/1;
 2/12=2,15=1,40=1/2;
 3/5=1,6=6,7=1,11=2,14=-4,25=1,30=1,74=-5,75=-5,116=-2,124=31/1,2,3;
 4/5=1/1;
 5/5=2,38=6/2;
 6/7=2,8=2,9=2,10=2,28=1/1;
 99/5=1,9=1/99;
 ------------------------------------------------------
 Candidate Structure: Conf:981 Charge calc in gas phase
 ------------------------------------------------------
 Structure from the checkpoint file:  "conf-981.chk"
 Charge =  1 Multiplicity = 1
 Redundant internal coordinates found in file.  (old form).
 N,0,-10.9818690255,3.7433471143,5.2541639601
 H,0,-11.18279442,4.7376268167,5.1274228601
 H,0,-11.1184376112,3.2186441637,4.3292519779
 H,0,-11.6098640719,3.3717758944,5.9713445869
 C,0,-9.5202724216,3.4514229364,5.5378729517
 H,0,-8.9976907879,4.4098288444,5.5972722086
 C,0,-9.0850707187,2.6764172842,4.2628449053
 C,0,-9.3292696994,2.656760492,6.8476604354
 H,0,-8.2477898562,2.4816764317,6.9128418658
 O,0,-9.9660938489,2.3989361278,3.4295057485
 C,0,-9.7447944537,3.487598122,8.0709476094
 H,0,-10.8264499438,3.6794496202,8.0946706073
 H,0,-9.5034685729,2.9469157205,8.9905773319
 H,0,-9.2275583913,4.4528888723,8.1028201011
 C,0,-10.0273582592,1.2880677541,6.8112215635
 H,0,-11.1220258398,1.3761851489,6.7743634891
 H,0,-9.7082615807,0.6851369408,5.9555270487
 H,0,-9.7920634232,0.7303939824,7.7218592539
 N,0,-7.8067513612,2.3543048171,4.1781775744
 H,0,-7.1218648057,2.5862276001,4.9006544426
 C,0,-7.2081648459,1.5885625559,3.0823805879
 H,0,-7.88346692,0.7657949383,2.8328987048
 C,0,-5.8855890344,1.0676702305,3.6760287276
 C,0,-6.9936866365,2.4910360148,1.82555847
 H,0,-7.9768624076,2.9519460138,1.6564191073
 O,0,-5.4041052039,1.6245386239,4.6676426034
 C,0,-6.6332297525,1.7081622302,0.5466279469
 H,0,-5.6183243168,1.3025858785,0.6137858361
 H,0,-6.5980033369,2.4434233724,-0.2671640657
 C,0,-5.9646311984,3.5983269593,2.0938562234
 H,0,-4.9604371908,3.1847664442,2.2384301293
 H,0,-6.2129898581,4.1867489212,2.9839938878
 H,0,-5.9176286296,4.2823664484,1.2406994123
 C,0,-7.6137552241,0.5950243173,0.1597512312
 H,0,-7.3658775988,0.1973891369,-0.8288286178
 H,0,-7.58867642,-0.2550517716,0.8541108562
 H,0,-8.6467758902,0.9625784008,0.1305320356
 N,0,-5.31748715,0.0303127114,3.0328454975
 H,0,-5.7174247609,-0.2861254997,2.154441841
 C,0,-3.8981775954,-0.2945620324,3.1632911661
 H,0,-3.4690109148,0.3940829912,3.8940848493
 C,0,-3.2928190489,-0.0888149233,1.7653369021
 C,0,-3.6686298397,-1.7562216863,3.620406413
 H,0,-4.2255051462,-2.4163483032,2.9460358339
 H,0,-4.0928021167,-1.8684979523,4.6245036236
 O,0,-3.9332145429,-0.4535470687,0.7739275536
 C,0,-2.1932170165,-2.0917763224,3.5964560984
 C,0,-1.6257696165,-2.7216961532,2.4808419976
 H,0,-2.2691643728,-3.0412031693,1.6644086866
 C,0,-1.3510174945,-1.6649201499,4.6312806629
 H,0,-1.7797164787,-1.1779538063,5.5053407395
 C,0,-0.2463874883,-2.9141709835,2.3966223423
 H,0,0.1793095613,-3.3954585961,1.5207599995
 C,0,0.0293578172,-1.8549470653,4.54887709
 H,0,0.6704775033,-1.5166877153,5.358229639
 C,0,0.5847021258,-2.4755838171,3.4287273935
 H,0,1.6595133462,-2.6157811026,3.3599781579
 N,0,-2.0808847485,0.488353104,1.7278247648
 H,0,-1.5507438769,0.604114546,2.5858590781
 C,0,-1.2910996568,0.5985910282,0.5097368453
 H,0,-1.6862666983,-0.1200057832,-0.2136865144
 C,0,0.1582107102,0.286928242,0.8801141202
 C,0,-1.3067023949,2.0383624377,-0.0644795876
 H,0,-0.659231283,2.0672025897,-0.9517729872
 H,0,-0.8344303938,2.6969249778,0.6736198439
 O,0,0.5965335839,0.5708112386,1.9964508149
 C,0,-2.6991920454,2.5868467572,-0.4196073893
 H,0,-3.3381854614,2.4752808605,0.4690880512
 C,0,-2.5851814831,4.0868223195,-0.7309879063
 H,0,-1.9726943586,4.2506621086,-1.6264790991
 H,0,-2.1139612772,4.6325018146,0.0939160543
 H,0,-3.5739470846,4.5232690343,-0.9199953809
 C,0,-3.3567949745,1.8289701345,-1.5805229019
 H,0,-2.7289638697,1.8797529569,-2.4797167449
 H,0,-4.3274835342,2.2746247705,-1.8314438246
 H,0,-3.5324626692,0.7789611195,-1.3300679581
 N,0,0.9326541648,-0.223911659,-0.120689782
 H,0,0.526795338,-0.2025663031,-1.0505261576
 C,0,2.3710901516,0.0629576221,-0.1016757024
 H,0,2.723218986,-0.1547593387,0.9103721237
 C,0,2.5052464451,1.5574948481,-0.4364137779
 C,0,3.148707447,-0.7536209734,-1.1401870159
 H,0,2.8196337078,-0.4666603054,-2.1442495538
 H,0,2.9304241004,-1.8188639573,-1.0121268759
 O,0,2.0325775464,1.9996366893,-1.4827718285
 C,0,4.6514628703,-0.4883772997,-1.0141076079
 H,0,4.8518178628,0.5850205771,-0.9133181213
 H,0,5.0684847078,-0.9558199083,-0.1129103522
 C,0,5.4620460024,-0.9524323075,-2.2149622675
 O,0,4.9881735522,-1.4939086512,-3.194068546
 O,0,6.7510451804,-0.6485785082,-2.047598622
 N,0,3.1488046038,2.330962413,0.4688595339
 H,0,3.5518082949,1.8947495026,1.2864149528
 C,0,3.3312112807,3.7689687082,0.2767227377
 H,0,2.5739781502,4.0606765397,-0.457580367
 C,0,4.7379038908,4.042220866,-0.304609511
 C,0,3.0535554724,4.5107361571,1.5900942361
 H,0,3.8351946719,4.2925783688,2.3265379006
 H,0,3.0697655678,5.5869216122,1.404732596
 O,0,5.5440689666,4.7943618675,0.2356405178
 C,0,1.6576491039,4.0814442951,2.0422984748
 N,0,1.6037675973,3.2563926324,3.1341858541
 H,0,0.7869171923,2.6591907696,3.1929118502
 H,0,2.455660705,2.840880872,3.4834606007
 O,0,0.6567803473,4.4131190636,1.4185247021
 N,0,4.9800711406,3.319538425,-1.4259961185
 H,0,4.224138508,2.8163994197,-1.8887685787
 C,0,6.2659581407,3.2166099376,-2.0884604128
 H,0,6.5856607777,4.2080424067,-2.4381301833
 C,0,6.0170440134,2.3139581024,-3.3209946763
 C,0,7.3760192096,2.6567068038,-1.1374620009
 H,0,7.2313677803,3.1528240471,-0.1742598961
 H,0,7.2203277443,1.5818258534,-1.0048937562
 O,0,4.8956739115,1.8854798584,-3.5716414306
 C,0,8.7699382025,2.9380469479,-1.6540877244
 C,0,9.5940119472,1.9153356049,-2.1475262355
 H,0,9.2662794272,0.8802211105,-2.0953418566
 C,0,9.2258769817,4.2620281807,-1.7519139164
 H,0,8.6159518329,5.066633512,-1.3468586646
 C,0,10.8016198947,2.2025306908,-2.7837371906
 H,0,11.3892114259,1.4082028852,-3.2291147307
 C,0,10.4315876315,4.5621537009,-2.3812705145
 H,0,10.7576767595,5.5967296726,-2.4751826369
 O,0,12.3313129394,3.7760842286,-3.6808571836
 H,0,12.6122049175,4.6933180334,-3.5357570959
 C,0,11.2033553194,3.5299023873,-2.9264158374
 N,0,7.1038040334,2.0427557123,-4.1149771295
 H,0,8.0023148141,2.2219673725,-3.6706295611
 C,0,7.0955296536,0.8311676547,-4.9877785672
 H,0,6.2753926261,0.2010487635,-4.6433803934
 C,0,8.4662300399,0.1460703431,-4.693896682
 C,0,6.9046828648,1.1176661081,-6.4978162386
 H,0,7.8913795764,1.2630422132,-6.9517676869
 H,0,6.5052433295,0.1957930589,-6.9331525037
 O,0,8.4683598121,-0.8702745097,-3.9615388543
 C,0,5.9792279333,2.3051715937,-6.85317042
 H,0,5.3274896525,2.0478445199,-7.6957026957
 H,0,5.3138826587,2.5297119427,-6.012415488
 C,0,6.7601196581,3.5729502304,-7.2580212707
 H,0,7.2284414167,3.4339364228,-8.238876471
 H,0,6.0896442012,4.4376665261,-7.3232872213
 N,0,7.8291615886,3.8298851515,-6.2746444005
 H,0,7.6304786858,3.4087649151,-5.3627820207
 N,0,9.5324684137,4.7078295792,-7.5889929131
 H,0,10.435499098,4.5818315227,-8.0209261327
 H,0,8.8913896067,5.3699297428,-7.9997888593
 N,0,10.0163231605,3.2535490564,-5.8262786101
 H,0,10.9926185825,3.522175836,-5.7884725001
 H,0,9.7540027392,2.2902612349,-5.4633016702
 C,0,9.1388350653,3.9181298037,-6.5653791202
 O,0,9.4861507006,0.7313463918,-5.1600957941
 H,0,7.3161264878,-0.8929353793,-2.8642791007
 Recover connectivity data from disk.
                           ----------------------------
                           !    Current Parameters    !
                           ! (Angstroms and Degrees)  !
 --------------------------                            --------------------------
 ! Name  Definition              Value                                          !
 --------------------------------------------------------------------------------
 ! R1    R(1,2)                  1.0223                                         !
 ! R2    R(1,3)                  1.0721                                         !
 ! R3    R(1,4)                  1.0231                                         !
 ! R4    R(1,5)                  1.5172                                         !
 ! R5    R(5,6)                  1.0932                                         !
 ! R6    R(5,7)                  1.5543                                         !
 ! R7    R(5,8)                  1.5439                                         !
 ! R8    R(7,10)                 1.244                                          !
 ! R9    R(7,19)                 1.321                                          !
 ! R10   R(8,9)                  1.0975                                         !
 ! R11   R(8,11)                 1.536                                          !
 ! R12   R(8,15)                 1.5369                                         !
 ! R13   R(11,12)                1.0988                                         !
 ! R14   R(11,13)                1.0938                                         !
 ! R15   R(11,14)                1.0956                                         !
 ! R16   R(15,16)                1.0988                                         !
 ! R17   R(15,17)                1.0943                                         !
 ! R18   R(15,18)                1.0934                                         !
 ! R19   R(19,20)                1.0222                                         !
 ! R20   R(19,21)                1.4647                                         !
 ! R21   R(21,22)                1.0933                                         !
 ! R22   R(21,23)                1.5404                                         !
 ! R23   R(21,24)                1.5621                                         !
 ! R24   R(23,26)                1.235                                          !
 ! R25   R(23,38)                1.3463                                         !
 ! R26   R(24,25)                1.0989                                         !
 ! R27   R(24,27)                1.5422                                         !
 ! R28   R(24,30)                1.5353                                         !
 ! R29   R(27,28)                1.095                                          !
 ! R30   R(27,29)                1.0973                                         !
 ! R31   R(27,34)                1.533                                          !
 ! R32   R(30,31)                1.0956                                         !
 ! R33   R(30,32)                1.0956                                         !
 ! R34   R(30,33)                1.0945                                         !
 ! R35   R(34,35)                1.094                                          !
 ! R36   R(34,36)                1.0979                                         !
 ! R37   R(34,37)                1.0969                                         !
 ! R38   R(38,39)                1.0157                                         !
 ! R39   R(38,40)                1.4618                                         !
 ! R40   R(40,41)                1.092                                          !
 ! R41   R(40,42)                1.5372                                         !
 ! R42   R(40,43)                1.5486                                         !
 ! R43   R(42,46)                1.2353                                         !
 ! R44   R(42,58)                1.3429                                         !
 ! R45   R(43,44)                1.0957                                         !
 ! R46   R(43,45)                1.0958                                         !
 ! R47   R(43,47)                1.5133                                         !
 ! R48   R(47,48)                1.4012                                         !
 ! R49   R(47,50)                1.4008                                         !
 ! R50   R(48,49)                1.0875                                         !
 ! R51   R(48,52)                1.3953                                         !
 ! R52   R(50,51)                1.0885                                         !
 ! R53   R(50,54)                1.3958                                         !
 ! R54   R(52,53)                1.0863                                         !
 ! R55   R(52,56)                1.3958                                         !
 ! R56   R(54,55)                1.0865                                         !
 ! R57   R(54,56)                1.3958                                         !
 ! R58   R(56,57)                1.0861                                         !
 ! R59   R(58,59)                1.0152                                         !
 ! R60   R(58,60)                1.4559                                         !
 ! R61   R(60,61)                1.0936                                         !
 ! R62   R(60,62)                1.528                                          !
 ! R63   R(60,63)                1.5501                                         !
 ! R64   R(62,66)                1.2324                                         !
 ! R65   R(62,77)                1.3647                                         !
 ! R66   R(63,64)                1.0988                                         !
 ! R67   R(63,65)                1.0961                                         !
 ! R68   R(63,67)                1.5382                                         !
 ! R69   R(67,68)                1.1002                                         !
 ! R70   R(67,69)                1.5362                                         !
 ! R71   R(67,73)                1.5345                                         !
 ! R72   R(69,70)                1.0972                                         !
 ! R73   R(69,71)                1.0956                                         !
 ! R74   R(69,72)                1.0972                                         !
 ! R75   R(73,74)                1.0979                                         !
 ! R76   R(73,75)                1.0972                                         !
 ! R77   R(73,76)                1.0937                                         !
 ! R78   R(77,78)                1.0148                                         !
 ! R79   R(77,79)                1.4669                                         !
 ! R80   R(79,80)                1.0935                                         !
 ! R81   R(79,81)                1.5374                                         !
 ! R82   R(79,82)                1.533                                          !
 ! R83   R(81,85)                1.2304                                         !
 ! R84   R(81,92)                1.3535                                         !
 ! R85   R(82,83)                1.0949                                         !
 ! R86   R(82,84)                1.0949                                         !
 ! R87   R(82,86)                1.5312                                         !
 ! R88   R(86,87)                1.0966                                         !
 ! R89   R(86,88)                1.0975                                         !
 ! R90   R(86,89)                1.5213                                         !
 ! R91   R(89,90)                1.2151                                         !
 ! R92   R(89,91)                1.3349                                         !
 ! R93   R(91,152)               1.0227                                         !
 ! R94   R(92,93)                1.0105                                         !
 ! R95   R(92,94)                1.4622                                         !
 ! R96   R(94,95)                1.0944                                         !
 ! R97   R(94,96)                1.5464                                         !
 ! R98   R(94,97)                1.5337                                         !
 ! R99   R(96,100)               1.2278                                         !
 ! R100  R(96,106)               1.3559                                         !
 ! R101  R(97,98)                1.0959                                         !
 ! R102  R(97,99)                1.0922                                         !
 ! R103  R(97,101)               1.5288                                         !
 ! R104  R(101,102)              1.3696                                         !
 ! R105  R(101,105)              1.2251                                         !
 ! R106  R(102,103)              1.0136                                         !
 ! R107  R(102,104)              1.0101                                         !
 ! R108  R(106,107)              1.0192                                         !
 ! R109  R(106,108)              1.4502                                         !
 ! R110  R(108,109)              1.0988                                         !
 ! R111  R(108,110)              1.5479                                         !
 ! R112  R(108,111)              1.5653                                         !
 ! R113  R(110,114)              1.2263                                         !
 ! R114  R(110,127)              1.373                                          !
 ! R115  R(111,112)              1.0931                                         !
 ! R116  R(111,113)              1.0942                                         !
 ! R117  R(111,115)              1.513                                          !
 ! R118  R(115,116)              1.403                                          !
 ! R119  R(115,118)              1.4037                                         !
 ! R120  R(116,117)              1.087                                          !
 ! R121  R(116,120)              1.3948                                         !
 ! R122  R(118,119)              1.0879                                         !
 ! R123  R(118,122)              1.3928                                         !
 ! R124  R(120,121)              1.0838                                         !
 ! R125  R(120,126)              1.3942                                         !
 ! R126  R(122,123)              1.0888                                         !
 ! R127  R(122,126)              1.3994                                         !
 ! R128  R(124,125)              0.9702                                         !
 ! R129  R(124,126)              1.3792                                         !
 ! R130  R(127,128)              1.0183                                         !
 ! R131  R(127,129)              1.4933                                         !
 ! R132  R(129,130)              1.0901                                         !
 ! R133  R(129,131)              1.5603                                         !
 ! R134  R(129,132)              1.5488                                         !
 ! R135  R(131,135)              1.2527                                         !
 ! R136  R(131,151)              1.265                                          !
 ! R137  R(132,133)              1.0958                                         !
 ! R138  R(132,134)              1.095                                          !
 ! R139  R(132,136)              1.5469                                         !
 ! R140  R(136,137)              1.0958                                         !
 ! R141  R(136,138)              1.0954                                         !
 ! R142  R(136,139)              1.543                                          !
 ! R143  R(139,140)              1.0958                                         !
 ! R144  R(139,141)              1.0961                                         !
 ! R145  R(139,142)              1.4751                                         !
 ! R146  R(142,143)              1.0239                                         !
 ! R147  R(142,150)              1.3445                                         !
 ! R148  R(144,145)              1.0089                                         !
 ! R149  R(144,146)              1.009                                          !
 ! R150  R(144,150)              1.3514                                         !
 ! R151  R(147,148)              1.0133                                         !
 ! R152  R(147,149)              1.0623                                         !
 ! R153  R(147,150)              1.3259                                         !
 ! A1    A(2,1,3)              110.1218                                         !
 ! A2    A(2,1,4)              108.6323                                         !
 ! A3    A(2,1,5)              113.5572                                         !
 ! A4    A(3,1,4)              110.4138                                         !
 ! A5    A(3,1,5)              100.9449                                         !
 ! A6    A(4,1,5)              112.9758                                         !
 ! A7    A(1,5,6)              107.576                                          !
 ! A8    A(1,5,7)              102.2561                                         !
 ! A9    A(1,5,8)              112.1392                                         !
 ! A10   A(6,5,7)              110.3566                                         !
 ! A11   A(6,5,8)              110.2434                                         !
 ! A12   A(7,5,8)              113.8702                                         !
 ! A13   A(5,7,10)             117.5445                                         !
 ! A14   A(5,7,19)             116.4314                                         !
 ! A15   A(10,7,19)            126.0146                                         !
 ! A16   A(5,8,9)              104.7387                                         !
 ! A17   A(5,8,11)             111.3317                                         !
 ! A18   A(5,8,15)             112.463                                          !
 ! A19   A(9,8,11)             107.792                                          !
 ! A20   A(9,8,15)             107.8745                                         !
 ! A21   A(11,8,15)            112.1922                                         !
 ! A22   A(8,11,12)            112.2059                                         !
 ! A23   A(8,11,13)            110.0316                                         !
 ! A24   A(8,11,14)            111.8404                                         !
 ! A25   A(12,11,13)           106.5803                                         !
 ! A26   A(12,11,14)           108.0759                                         !
 ! A27   A(13,11,14)           107.8735                                         !
 ! A28   A(8,15,16)            112.4506                                         !
 ! A29   A(8,15,17)            112.133                                          !
 ! A30   A(8,15,18)            109.6768                                         !
 ! A31   A(16,15,17)           107.9653                                         !
 ! A32   A(16,15,18)           106.4517                                         !
 ! A33   A(17,15,18)           107.9064                                         !
 ! A34   A(7,19,20)            123.2134                                         !
 ! A35   A(7,19,21)            124.8124                                         !
 ! A36   A(20,19,21)           111.9362                                         !
 ! A37   A(19,21,22)           108.1635                                         !
 ! A38   A(19,21,23)           103.8475                                         !
 ! A39   A(19,21,24)           110.855                                          !
 ! A40   A(22,21,23)           111.3335                                         !
 ! A41   A(22,21,24)           109.6335                                         !
 ! A42   A(23,21,24)           112.8018                                         !
 ! A43   A(21,23,26)           119.4513                                         !
 ! A44   A(21,23,38)           116.023                                          !
 ! A45   A(26,23,38)           124.5072                                         !
 ! A46   A(21,24,25)           104.0818                                         !
 ! A47   A(21,24,27)           113.9562                                         !
 ! A48   A(21,24,30)           111.5994                                         !
 ! A49   A(25,24,27)           107.1198                                         !
 ! A50   A(25,24,30)           108.9092                                         !
 ! A51   A(27,24,30)           110.7553                                         !
 ! A52   A(24,27,28)           110.719                                          !
 ! A53   A(24,27,29)           106.4018                                         !
 ! A54   A(24,27,34)           115.3644                                         !
 ! A55   A(28,27,29)           105.3022                                         !
 ! A56   A(28,27,34)           109.8373                                         !
 ! A57   A(29,27,34)           108.6572                                         !
 ! A58   A(24,30,31)           111.418                                          !
 ! A59   A(24,30,32)           112.1735                                         !
 ! A60   A(24,30,33)           110.0788                                         !
 ! A61   A(31,30,32)           107.6562                                         !
 ! A62   A(31,30,33)           107.4219                                         !
 ! A63   A(32,30,33)           107.9018                                         !
 ! A64   A(27,34,35)           110.3062                                         !
 ! A65   A(27,34,36)           112.8294                                         !
 ! A66   A(27,34,37)           111.4559                                         !
 ! A67   A(35,34,36)           106.5527                                         !
 ! A68   A(35,34,37)           108.1266                                         !
 ! A69   A(36,34,37)           107.3266                                         !
 ! A70   A(23,38,39)           119.1472                                         !
 ! A71   A(23,38,40)           122.568                                          !
 ! A72   A(39,38,40)           112.9686                                         !
 ! A73   A(38,40,41)           107.5262                                         !
 ! A74   A(38,40,42)           105.7503                                         !
 ! A75   A(38,40,43)           112.3349                                         !
 ! A76   A(41,40,42)           111.6798                                         !
 ! A77   A(41,40,43)           109.8421                                         !
 ! A78   A(42,40,43)           109.6575                                         !
 ! A79   A(40,42,46)           119.0895                                         !
 ! A80   A(40,42,58)           115.9973                                         !
 ! A81   A(46,42,58)           124.9132                                         !
 ! A82   A(40,43,44)           108.1574                                         !
 ! A83   A(40,43,45)           108.0482                                         !
 ! A84   A(40,43,47)           110.435                                          !
 ! A85   A(44,43,45)           107.7879                                         !
 ! A86   A(44,43,47)           110.6203                                         !
 ! A87   A(45,43,47)           111.6658                                         !
 ! A88   A(43,47,48)           120.4723                                         !
 ! A89   A(43,47,50)           120.4579                                         !
 ! A90   A(48,47,50)           118.7941                                         !
 ! A91   A(47,48,49)           119.3553                                         !
 ! A92   A(47,48,52)           120.6921                                         !
 ! A93   A(49,48,52)           119.9371                                         !
 ! A94   A(47,50,51)           119.5188                                         !
 ! A95   A(47,50,54)           120.6278                                         !
 ! A96   A(51,50,54)           119.8532                                         !
 ! A97   A(48,52,53)           119.8154                                         !
 ! A98   A(48,52,56)           120.0429                                         !
 ! A99   A(53,52,56)           120.1378                                         !
 ! A100  A(50,54,55)           119.8136                                         !
 ! A101  A(50,54,56)           120.0903                                         !
 ! A102  A(55,54,56)           120.096                                          !
 ! A103  A(52,56,54)           119.7495                                         !
 ! A104  A(52,56,57)           120.1233                                         !
 ! A105  A(54,56,57)           120.1271                                         !
 ! A106  A(42,58,59)           119.7802                                         !
 ! A107  A(42,58,60)           123.0582                                         !
 ! A108  A(59,58,60)           114.5324                                         !
 ! A109  A(58,60,61)           107.9201                                         !
 ! A110  A(58,60,62)           107.2349                                         !
 ! A111  A(58,60,63)           112.0113                                         !
 ! A112  A(61,60,62)           111.658                                          !
 ! A113  A(61,60,63)           111.2012                                         !
 ! A114  A(62,60,63)           106.785                                          !
 ! A115  A(60,62,66)           120.6578                                         !
 ! A116  A(60,62,77)           115.9034                                         !
 ! A117  A(66,62,77)           123.2757                                         !
 ! A118  A(60,63,64)           108.5165                                         !
 ! A119  A(60,63,65)           107.7134                                         !
 ! A120  A(60,63,67)           115.2033                                         !
 ! A121  A(64,63,65)           105.9084                                         !
 ! A122  A(64,63,67)           109.7339                                         !
 ! A123  A(65,63,67)           109.3459                                         !
 ! A124  A(63,67,68)           107.6454                                         !
 ! A125  A(63,67,69)           109.1344                                         !
 ! A126  A(63,67,73)           112.7384                                         !
 ! A127  A(68,67,69)           107.8085                                         !
 ! A128  A(68,67,73)           108.187                                          !
 ! A129  A(69,67,73)           111.1442                                         !
 ! A130  A(67,69,70)           110.6502                                         !
 ! A131  A(67,69,71)           111.4468                                         !
 ! A132  A(67,69,72)           110.8816                                         !
 ! A133  A(70,69,71)           107.46                                           !
 ! A134  A(70,69,72)           107.6413                                         !
 ! A135  A(71,69,72)           108.6134                                         !
 ! A136  A(67,73,74)           110.5934                                         !
 ! A137  A(67,73,75)           110.5827                                         !
 ! A138  A(67,73,76)           111.7014                                         !
 ! A139  A(74,73,75)           107.4479                                         !
 ! A140  A(74,73,76)           108.8946                                         !
 ! A141  A(75,73,76)           107.4717                                         !
 ! A142  A(62,77,78)           115.9214                                         !
 ! A143  A(62,77,79)           118.2797                                         !
 ! A144  A(78,77,79)           113.5754                                         !
 ! A145  A(77,79,80)           106.7889                                         !
 ! A146  A(77,79,81)           105.8341                                         !
 ! A147  A(77,79,82)           112.6109                                         !
 ! A148  A(80,79,81)           111.5289                                         !
 ! A149  A(80,79,82)           110.9529                                         !
 ! A150  A(81,79,82)           109.0295                                         !
 ! A151  A(79,81,85)           120.0648                                         !
 ! A152  A(79,81,92)           116.8325                                         !
 ! A153  A(85,81,92)           123.1016                                         !
 ! A154  A(79,82,83)           109.2192                                         !
 ! A155  A(79,82,84)           109.7482                                         !
 ! A156  A(79,82,86)           110.4743                                         !
 ! A157  A(83,82,84)           107.5978                                         !
 ! A158  A(83,82,86)           108.9707                                         !
 ! A159  A(84,82,86)           110.7671                                         !
 ! A160  A(82,86,87)           110.8824                                         !
 ! A161  A(82,86,88)           111.5149                                         !
 ! A162  A(82,86,89)           113.8964                                         !
 ! A163  A(87,86,88)           105.7838                                         !
 ! A164  A(87,86,89)           105.8897                                         !
 ! A165  A(88,86,89)           108.4079                                         !
 ! A166  A(86,89,90)           124.3463                                         !
 ! A167  A(86,89,91)           110.2492                                         !
 ! A168  A(90,89,91)           125.3848                                         !
 ! A169  A(89,91,152)          112.2736                                         !
 ! A170  A(81,92,93)           118.9522                                         !
 ! A171  A(81,92,94)           122.2375                                         !
 ! A172  A(93,92,94)           118.7573                                         !
 ! A173  A(92,94,95)           105.3068                                         !
 ! A174  A(92,94,96)           109.6728                                         !
 ! A175  A(92,94,97)           109.9092                                         !
 ! A176  A(95,94,96)           109.2732                                         !
 ! A177  A(95,94,97)           108.6871                                         !
 ! A178  A(96,94,97)           113.6492                                         !
 ! A179  A(94,96,100)          122.6907                                         !
 ! A180  A(94,96,106)          112.2838                                         !
 ! A181  A(100,96,106)         124.9705                                         !
 ! A182  A(94,97,98)           110.4918                                         !
 ! A183  A(94,97,99)           109.1806                                         !
 ! A184  A(94,97,101)          106.4262                                         !
 ! A185  A(98,97,99)           107.4357                                         !
 ! A186  A(98,97,101)          113.3644                                         !
 ! A187  A(99,97,101)          109.9039                                         !
 ! A188  A(97,101,102)         116.1599                                         !
 ! A189  A(97,101,105)         121.2865                                         !
 ! A190  A(102,101,105)        122.4709                                         !
 ! A191  A(101,102,103)        115.6473                                         !
 ! A192  A(101,102,104)        119.3585                                         !
 ! A193  A(103,102,104)        114.6619                                         !
 ! A194  A(96,106,107)         120.4099                                         !
 ! A195  A(96,106,108)         125.031                                          !
 ! A196  A(107,106,108)        114.5331                                         !
 ! A197  A(106,108,109)        109.8355                                         !
 ! A198  A(106,108,110)        105.2217                                         !
 ! A199  A(106,108,111)        112.1284                                         !
 ! A200  A(109,108,110)        108.6363                                         !
 ! A201  A(109,108,111)        108.0438                                         !
 ! A202  A(110,108,111)        112.9067                                         !
 ! A203  A(108,110,114)        120.9008                                         !
 ! A204  A(108,110,127)        116.6407                                         !
 ! A205  A(114,110,127)        122.4515                                         !
 ! A206  A(108,111,112)        106.2107                                         !
 ! A207  A(108,111,113)        108.911                                          !
 ! A208  A(108,111,115)        112.2964                                         !
 ! A209  A(112,111,113)        108.6799                                         !
 ! A210  A(112,111,115)        109.7805                                         !
 ! A211  A(113,111,115)        110.8024                                         !
 ! A212  A(111,115,116)        121.714                                          !
 ! A213  A(111,115,118)        119.8971                                         !
 ! A214  A(116,115,118)        118.1798                                         !
 ! A215  A(115,116,117)        120.0103                                         !
 ! A216  A(115,116,120)        121.2544                                         !
 ! A217  A(117,116,120)        118.6198                                         !
 ! A218  A(115,118,119)        119.3111                                         !
 ! A219  A(115,118,122)        121.0587                                         !
 ! A220  A(119,118,122)        119.6181                                         !
 ! A221  A(116,120,121)        120.3929                                         !
 ! A222  A(116,120,126)        119.4849                                         !
 ! A223  A(121,120,126)        119.9688                                         !
 ! A224  A(118,122,123)        120.1978                                         !
 ! A225  A(118,122,126)        119.6362                                         !
 ! A226  A(123,122,126)        120.1407                                         !
 ! A227  A(125,124,126)        108.8889                                         !
 ! A228  A(120,126,122)        120.2328                                         !
 ! A229  A(120,126,124)        117.4908                                         !
 ! A230  A(122,126,124)        122.1728                                         !
 ! A231  A(110,127,128)        114.2884                                         !
 ! A232  A(110,127,129)        119.5974                                         !
 ! A233  A(128,127,129)        113.75                                           !
 ! A234  A(127,129,130)        106.7692                                         !
 ! A235  A(127,129,131)        103.9634                                         !
 ! A236  A(127,129,132)        114.8642                                         !
 ! A237  A(130,129,131)        110.3419                                         !
 ! A238  A(130,129,132)        108.7993                                         !
 ! A239  A(131,129,132)        111.9076                                         !
 ! A240  A(129,131,135)        117.8938                                         !
 ! A241  A(129,131,151)        115.8323                                         !
 ! A242  A(135,131,151)        126.1192                                         !
 ! A243  A(129,132,133)        108.5111                                         !
 ! A244  A(129,132,134)        106.0722                                         !
 ! A245  A(129,132,136)        116.0847                                         !
 ! A246  A(133,132,134)        105.99                                           !
 ! A247  A(133,132,136)        109.9798                                         !
 ! A248  A(134,132,136)        109.6785                                         !
 ! A249  A(132,136,137)        110.62                                           !
 ! A250  A(132,136,138)        110.1462                                         !
 ! A251  A(132,136,139)        112.8445                                         !
 ! A252  A(137,136,138)        106.0812                                         !
 ! A253  A(137,136,139)        106.9893                                         !
 ! A254  A(138,136,139)        109.8977                                         !
 ! A255  A(136,139,140)        110.2987                                         !
 ! A256  A(136,139,141)        110.7456                                         !
 ! A257  A(136,139,142)        109.5704                                         !
 ! A258  A(140,139,141)        107.9509                                         !
 ! A259  A(140,139,142)        108.0047                                         !
 ! A260  A(141,139,142)        110.2172                                         !
 ! A261  A(139,142,143)        112.4235                                         !
 ! A262  A(139,142,150)        124.9772                                         !
 ! A263  A(143,142,150)        114.118                                          !
 ! A264  A(145,144,146)        118.4455                                         !
 ! A265  A(145,144,150)        120.797                                          !
 ! A266  A(146,144,150)        120.4474                                         !
 ! A267  A(148,147,149)        117.747                                          !
 ! A268  A(148,147,150)        121.7073                                         !
 ! A269  A(149,147,150)        118.7879                                         !
 ! A270  A(142,150,144)        119.0704                                         !
 ! A271  A(142,150,147)        119.4231                                         !
 ! A272  A(144,150,147)        121.4904                                         !
 ! D1    D(2,1,5,6)              3.0045                                         !
 ! D2    D(2,1,5,7)           -113.2409                                         !
 ! D3    D(2,1,5,8)            124.3848                                         !
 ! D4    D(3,1,5,6)            120.8158                                         !
 ! D5    D(3,1,5,7)              4.5704                                         !
 ! D6    D(3,1,5,8)           -117.8039                                         !
 ! D7    D(4,1,5,6)           -121.2887                                         !
 ! D8    D(4,1,5,7)            122.4659                                         !
 ! D9    D(4,1,5,8)              0.0917                                         !
 ! D10   D(1,5,7,10)            -5.3029                                         !
 ! D11   D(1,5,7,19)           175.7508                                         !
 ! D12   D(6,5,7,10)          -119.5203                                         !
 ! D13   D(6,5,7,19)            61.5335                                         !
 ! D14   D(8,5,7,10)           115.8851                                         !
 ! D15   D(8,5,7,19)           -63.0611                                         !
 ! D16   D(1,5,8,9)            177.9114                                         !
 ! D17   D(1,5,8,11)           -65.8615                                         !
 ! D18   D(1,5,8,15)            61.0265                                         !
 ! D19   D(6,5,8,9)            -62.253                                          !
 ! D20   D(6,5,8,11)            53.9741                                         !
 ! D21   D(6,5,8,15)          -179.138                                          !
 ! D22   D(7,5,8,9)             62.4023                                         !
 ! D23   D(7,5,8,11)           178.6294                                         !
 ! D24   D(7,5,8,15)           -54.4827                                         !
 ! D25   D(5,7,19,20)            0.3161                                         !
 ! D26   D(5,7,19,21)          177.8927                                         !
 ! D27   D(10,7,19,20)        -178.5288                                         !
 ! D28   D(10,7,19,21)          -0.9522                                         !
 ! D29   D(5,8,11,12)           67.4427                                         !
 ! D30   D(5,8,11,13)         -174.0744                                         !
 ! D31   D(5,8,11,14)          -54.2023                                         !
 ! D32   D(9,8,11,12)         -178.2163                                         !
 ! D33   D(9,8,11,13)          -59.7334                                         !
 ! D34   D(9,8,11,14)           60.1387                                         !
 ! D35   D(15,8,11,12)         -59.593                                          !
 ! D36   D(15,8,11,13)          58.8899                                         !
 ! D37   D(15,8,11,14)         178.762                                          !
 ! D38   D(5,8,15,16)          -66.6221                                         !
 ! D39   D(5,8,15,17)           55.2717                                         !
 ! D40   D(5,8,15,18)          175.1361                                         !
 ! D41   D(9,8,15,16)          178.379                                          !
 ! D42   D(9,8,15,17)          -59.7273                                         !
 ! D43   D(9,8,15,18)           60.1372                                         !
 ! D44   D(11,8,15,16)          59.8043                                         !
 ! D45   D(11,8,15,17)        -178.3019                                         !
 ! D46   D(11,8,15,18)         -58.4375                                         !
 ! D47   D(7,19,21,22)         -42.2377                                         !
 ! D48   D(7,19,21,23)        -160.6105                                         !
 ! D49   D(7,19,21,24)          77.9876                                         !
 ! D50   D(20,19,21,22)        135.5766                                         !
 ! D51   D(20,19,21,23)         17.2038                                         !
 ! D52   D(20,19,21,24)       -104.1981                                         !
 ! D53   D(19,21,23,26)        -19.9426                                         !
 ! D54   D(19,21,23,38)        161.5525                                         !
 ! D55   D(22,21,23,26)       -136.1072                                         !
 ! D56   D(22,21,23,38)         45.3878                                         !
 ! D57   D(24,21,23,26)        100.1484                                         !
 ! D58   D(24,21,23,38)        -78.3566                                         !
 ! D59   D(19,21,24,25)        -52.135                                          !
 ! D60   D(19,21,24,27)       -168.4658                                         !
 ! D61   D(19,21,24,30)         65.1654                                         !
 ! D62   D(22,21,24,25)         67.211                                          !
 ! D63   D(22,21,24,27)        -49.1198                                         !
 ! D64   D(22,21,24,30)       -175.4886                                         !
 ! D65   D(23,21,24,25)       -168.1106                                         !
 ! D66   D(23,21,24,27)         75.5586                                         !
 ! D67   D(23,21,24,30)        -50.8101                                         !
 ! D68   D(21,23,38,39)          6.5657                                         !
 ! D69   D(21,23,38,40)        158.9876                                         !
 ! D70   D(26,23,38,39)       -171.8544                                         !
 ! D71   D(26,23,38,40)        -19.4326                                         !
 ! D72   D(21,24,27,28)        -70.8976                                         !
 ! D73   D(21,24,27,29)        175.1821                                         !
 ! D74   D(21,24,27,34)         54.6119                                         !
 ! D75   D(25,24,27,28)        174.5552                                         !
 ! D76   D(25,24,27,29)         60.635                                          !
 ! D77   D(25,24,27,34)        -59.9353                                         !
 ! D78   D(30,24,27,28)         55.9116                                         !
 ! D79   D(30,24,27,29)        -58.0086                                         !
 ! D80   D(30,24,27,34)       -178.5789                                         !
 ! D81   D(21,24,30,31)         67.3859                                         !
 ! D82   D(21,24,30,32)        -53.3905                                         !
 ! D83   D(21,24,30,33)       -173.5485                                         !
 ! D84   D(25,24,30,31)       -178.2689                                         !
 ! D85   D(25,24,30,32)         60.9547                                         !
 ! D86   D(25,24,30,33)        -59.2034                                         !
 ! D87   D(27,24,30,31)        -60.7152                                         !
 ! D88   D(27,24,30,32)        178.5083                                         !
 ! D89   D(27,24,30,33)         58.3503                                         !
 ! D90   D(24,27,34,35)        171.51                                           !
 ! D91   D(24,27,34,36)        -69.4535                                         !
 ! D92   D(24,27,34,37)         51.3863                                         !
 ! D93   D(28,27,34,35)        -62.5278                                         !
 ! D94   D(28,27,34,36)         56.5087                                         !
 ! D95   D(28,27,34,37)        177.3485                                         !
 ! D96   D(29,27,34,35)         52.1761                                         !
 ! D97   D(29,27,34,36)        171.2126                                         !
 ! D98   D(29,27,34,37)        -67.9476                                         !
 ! D99   D(23,38,40,41)          3.7734                                         !
 ! D100  D(23,38,40,42)       -115.6713                                         !
 ! D101  D(23,38,40,43)        124.7419                                         !
 ! D102  D(39,38,40,41)        157.7236                                         !
 ! D103  D(39,38,40,42)         38.2789                                         !
 ! D104  D(39,38,40,43)        -81.3078                                         !
 ! D105  D(38,40,42,46)        -40.3165                                         !
 ! D106  D(38,40,42,58)        139.6466                                         !
 ! D107  D(41,40,42,46)       -156.985                                          !
 ! D108  D(41,40,42,58)         22.9781                                         !
 ! D109  D(43,40,42,46)         81.0176                                         !
 ! D110  D(43,40,42,58)        -99.0192                                         !
 ! D111  D(38,40,43,44)         52.6776                                         !
 ! D112  D(38,40,43,45)        -63.7462                                         !
 ! D113  D(38,40,43,47)        173.8567                                         !
 ! D114  D(41,40,43,44)        172.3057                                         !
 ! D115  D(41,40,43,45)         55.8819                                         !
 ! D116  D(41,40,43,47)        -66.5152                                         !
 ! D117  D(42,40,43,44)        -64.6052                                         !
 ! D118  D(42,40,43,45)        178.971                                          !
 ! D119  D(42,40,43,47)         56.5739                                         !
 ! D120  D(40,42,58,59)         11.1443                                         !
 ! D121  D(40,42,58,60)        171.7461                                         !
 ! D122  D(46,42,58,59)       -168.8949                                         !
 ! D123  D(46,42,58,60)         -8.2931                                         !
 ! D124  D(40,43,47,48)        -95.1341                                         !
 ! D125  D(40,43,47,50)         78.762                                          !
 ! D126  D(44,43,47,48)         24.5699                                         !
 ! D127  D(44,43,47,50)       -161.534                                          !
 ! D128  D(45,43,47,48)        144.6161                                         !
 ! D129  D(45,43,47,50)        -41.4878                                         !
 ! D130  D(43,47,48,49)         -4.9472                                         !
 ! D131  D(43,47,48,52)        173.6216                                         !
 ! D132  D(50,47,48,49)       -178.9436                                         !
 ! D133  D(50,47,48,52)         -0.3748                                         !
 ! D134  D(43,47,50,51)          6.2569                                         !
 ! D135  D(43,47,50,54)       -173.5534                                         !
 ! D136  D(48,47,50,51)       -179.7458                                         !
 ! D137  D(48,47,50,54)          0.444                                          !
 ! D138  D(47,48,52,53)       -179.4009                                         !
 ! D139  D(47,48,52,56)         -0.1202                                         !
 ! D140  D(49,48,52,53)         -0.8404                                         !
 ! D141  D(49,48,52,56)        178.4404                                         !
 ! D142  D(47,50,54,55)        179.864                                          !
 ! D143  D(47,50,54,56)         -0.0186                                         !
 ! D144  D(51,50,54,55)          0.0544                                         !
 ! D145  D(51,50,54,56)       -179.8282                                         !
 ! D146  D(48,52,56,54)          0.5507                                         !
 ! D147  D(48,52,56,57)       -179.3851                                         !
 ! D148  D(53,52,56,54)        179.8291                                         !
 ! D149  D(53,52,56,57)         -0.1067                                         !
 ! D150  D(50,54,56,52)         -0.482                                          !
 ! D151  D(50,54,56,57)        179.4538                                         !
 ! D152  D(55,54,56,52)        179.6357                                         !
 ! D153  D(55,54,56,57)         -0.4285                                         !
 ! D154  D(42,58,60,61)        -18.119                                          !
 ! D155  D(42,58,60,62)       -138.5458                                         !
 ! D156  D(42,58,60,63)        104.6119                                         !
 ! D157  D(59,58,60,61)        143.407                                          !
 ! D158  D(59,58,60,62)         22.9802                                         !
 ! D159  D(59,58,60,63)        -93.8622                                         !
 ! D160  D(58,60,62,66)        -31.7646                                         !
 ! D161  D(58,60,62,77)        152.7287                                         !
 ! D162  D(61,60,62,66)       -149.7868                                         !
 ! D163  D(61,60,62,77)         34.7065                                         !
 ! D164  D(63,60,62,66)         88.4635                                         !
 ! D165  D(63,60,62,77)        -87.0432                                         !
 ! D166  D(58,60,63,64)        177.4319                                         !
 ! D167  D(58,60,63,65)         63.2006                                         !
 ! D168  D(58,60,63,67)        -59.1206                                         !
 ! D169  D(61,60,63,64)        -61.7186                                         !
 ! D170  D(61,60,63,65)       -175.9499                                         !
 ! D171  D(61,60,63,67)         61.7289                                         !
 ! D172  D(62,60,63,64)         60.3192                                         !
 ! D173  D(62,60,63,65)        -53.9121                                         !
 ! D174  D(62,60,63,67)       -176.2333                                         !
 ! D175  D(60,62,77,78)         10.014                                          !
 ! D176  D(60,62,77,79)        150.0498                                         !
 ! D177  D(66,62,77,78)       -165.3625                                         !
 ! D178  D(66,62,77,79)        -25.3267                                         !
 ! D179  D(60,63,67,68)         53.1897                                         !
 ! D180  D(60,63,67,69)        169.9377                                         !
 ! D181  D(60,63,67,73)        -66.0485                                         !
 ! D182  D(64,63,67,68)        175.9901                                         !
 ! D183  D(64,63,67,69)        -67.2619                                         !
 ! D184  D(64,63,67,73)         56.7519                                         !
 ! D185  D(65,63,67,68)        -68.2518                                         !
 ! D186  D(65,63,67,69)         48.4962                                         !
 ! D187  D(65,63,67,73)        172.51                                           !
 ! D188  D(63,67,69,70)         64.595                                          !
 ! D189  D(63,67,69,71)        -54.9131                                         !
 ! D190  D(63,67,69,72)       -176.0375                                         !
 ! D191  D(68,67,69,70)       -178.7607                                         !
 ! D192  D(68,67,69,71)         61.7313                                         !
 ! D193  D(68,67,69,72)        -59.3932                                         !
 ! D194  D(73,67,69,70)        -60.3539                                         !
 ! D195  D(73,67,69,71)       -179.862                                          !
 ! D196  D(73,67,69,72)         59.0135                                         !
 ! D197  D(63,67,73,74)        -58.7355                                         !
 ! D198  D(63,67,73,75)       -177.6334                                         !
 ! D199  D(63,67,73,76)         62.7216                                         !
 ! D200  D(68,67,73,74)       -177.6589                                         !
 ! D201  D(68,67,73,75)         63.4433                                         !
 ! D202  D(68,67,73,76)        -56.2017                                         !
 ! D203  D(69,67,73,74)         64.1628                                         !
 ! D204  D(69,67,73,75)        -54.735                                          !
 ! D205  D(69,67,73,76)       -174.38                                           !
 ! D206  D(62,77,79,80)         48.5297                                         !
 ! D207  D(62,77,79,81)        -70.417                                          !
 ! D208  D(62,77,79,82)        170.5539                                         !
 ! D209  D(78,77,79,80)       -170.5424                                         !
 ! D210  D(78,77,79,81)         70.5109                                         !
 ! D211  D(78,77,79,82)        -48.5182                                         !
 ! D212  D(77,79,81,85)        -56.9439                                         !
 ! D213  D(77,79,81,92)        122.6796                                         !
 ! D214  D(80,79,81,85)       -172.7064                                         !
 ! D215  D(80,79,81,92)          6.9171                                         !
 ! D216  D(82,79,81,85)         64.4257                                         !
 ! D217  D(82,79,81,92)       -115.9509                                         !
 ! D218  D(77,79,82,83)         64.0149                                         !
 ! D219  D(77,79,82,84)        -53.7172                                         !
 ! D220  D(77,79,82,86)       -176.1405                                         !
 ! D221  D(80,79,82,83)       -176.3462                                         !
 ! D222  D(80,79,82,84)         65.9217                                         !
 ! D223  D(80,79,82,86)        -56.5016                                         !
 ! D224  D(81,79,82,83)        -53.134                                          !
 ! D225  D(81,79,82,84)       -170.866                                          !
 ! D226  D(81,79,82,86)         66.7106                                         !
 ! D227  D(79,81,92,93)          3.3182                                         !
 ! D228  D(79,81,92,94)       -179.3627                                         !
 ! D229  D(85,81,92,93)       -177.0708                                         !
 ! D230  D(85,81,92,94)          0.2483                                         !
 ! D231  D(79,82,86,87)        -45.2992                                         !
 ! D232  D(79,82,86,88)         72.3031                                         !
 ! D233  D(79,82,86,89)       -164.6097                                         !
 ! D234  D(83,82,86,87)         74.6949                                         !
 ! D235  D(83,82,86,88)       -167.7028                                         !
 ! D236  D(83,82,86,89)        -44.6156                                         !
 ! D237  D(84,82,86,87)       -167.1236                                         !
 ! D238  D(84,82,86,88)        -49.5213                                         !
 ! D239  D(84,82,86,89)         73.5659                                         !
 ! D240  D(82,86,89,90)         -0.4282                                         !
 ! D241  D(82,86,89,91)        178.0333                                         !
 ! D242  D(87,86,89,90)       -122.5339                                         !
 ! D243  D(87,86,89,91)         55.9276                                         !
 ! D244  D(88,86,89,90)        124.337                                          !
 ! D245  D(88,86,89,91)        -57.2014                                         !
 ! D246  D(86,89,91,152)      -176.3126                                         !
 ! D247  D(90,89,91,152)         2.1293                                         !
 ! D248  D(81,92,94,95)         20.0766                                         !
 ! D249  D(81,92,94,96)        -97.3929                                         !
 ! D250  D(81,92,94,97)        136.9759                                         !
 ! D251  D(93,92,94,95)       -162.5993                                         !
 ! D252  D(93,92,94,96)         79.9312                                         !
 ! D253  D(93,92,94,97)        -45.7                                            !
 ! D254  D(92,94,96,100)      -124.1372                                         !
 ! D255  D(92,94,96,106)        53.2869                                         !
 ! D256  D(95,94,96,100)       120.9013                                         !
 ! D257  D(95,94,96,106)       -61.6746                                         !
 ! D258  D(97,94,96,100)        -0.6771                                         !
 ! D259  D(97,94,96,106)       176.747                                          !
 ! D260  D(92,94,97,98)         69.0913                                         !
 ! D261  D(92,94,97,99)       -172.9602                                         !
 ! D262  D(92,94,97,101)       -54.3828                                         !
 ! D263  D(95,94,97,98)       -176.1441                                         !
 ! D264  D(95,94,97,99)        -58.1955                                         !
 ! D265  D(95,94,97,101)        60.3818                                         !
 ! D266  D(96,94,97,98)        -54.2398                                         !
 ! D267  D(96,94,97,99)         63.7088                                         !
 ! D268  D(96,94,97,101)      -177.7139                                         !
 ! D269  D(94,96,106,107)       11.0701                                         !
 ! D270  D(94,96,106,108)     -170.8885                                         !
 ! D271  D(100,96,106,107)    -171.5754                                         !
 ! D272  D(100,96,106,108)       6.466                                          !
 ! D273  D(94,97,101,102)      108.5435                                         !
 ! D274  D(94,97,101,105)      -68.2286                                         !
 ! D275  D(98,97,101,102)      -13.1199                                         !
 ! D276  D(98,97,101,105)      170.1079                                         !
 ! D277  D(99,97,101,102)     -133.3552                                         !
 ! D278  D(99,97,101,105)       49.8727                                         !
 ! D279  D(97,101,102,103)    -154.0562                                         !
 ! D280  D(97,101,102,104)     -10.8155                                         !
 ! D281  D(105,101,102,103)     22.6741                                         !
 ! D282  D(105,101,102,104)    165.9148                                         !
 ! D283  D(96,106,108,109)     -62.0913                                         !
 ! D284  D(96,106,108,110)    -178.849                                          !
 ! D285  D(96,106,108,111)      58.0507                                         !
 ! D286  D(107,106,108,109)    116.0519                                         !
 ! D287  D(107,106,108,110)     -0.7058                                         !
 ! D288  D(107,106,108,111)   -123.806                                          !
 ! D289  D(106,108,110,114)      1.9082                                         !
 ! D290  D(106,108,110,127)   -179.0383                                         !
 ! D291  D(109,108,110,114)   -115.665                                          !
 ! D292  D(109,108,110,127)     63.3884                                         !
 ! D293  D(111,108,110,114)    124.5087                                         !
 ! D294  D(111,108,110,127)    -56.4378                                         !
 ! D295  D(106,108,111,112)    -42.362                                          !
 ! D296  D(106,108,111,113)     74.5212                                         !
 ! D297  D(106,108,111,115)   -162.3702                                         !
 ! D298  D(109,108,111,112)     78.8172                                         !
 ! D299  D(109,108,111,113)   -164.2995                                         !
 ! D300  D(109,108,111,115)    -41.191                                          !
 ! D301  D(110,108,111,112)   -161.0163                                         !
 ! D302  D(110,108,111,113)    -44.133                                          !
 ! D303  D(110,108,111,115)     78.9755                                         !
 ! D304  D(108,110,127,128)     17.6321                                         !
 ! D305  D(108,110,127,129)    157.4943                                         !
 ! D306  D(114,110,127,128)   -163.3304                                         !
 ! D307  D(114,110,127,129)    -23.4681                                         !
 ! D308  D(108,111,115,116)   -109.6099                                         !
 ! D309  D(108,111,115,118)     65.0392                                         !
 ! D310  D(112,111,115,116)    132.4778                                         !
 ! D311  D(112,111,115,118)    -52.8732                                         !
 ! D312  D(113,111,115,116)     12.4295                                         !
 ! D313  D(113,111,115,118)   -172.9215                                         !
 ! D314  D(111,115,116,117)     -4.6945                                         !
 ! D315  D(111,115,116,120)    171.3446                                         !
 ! D316  D(118,115,116,117)   -179.4321                                         !
 ! D317  D(118,115,116,120)     -3.393                                          !
 ! D318  D(111,115,118,119)      7.0835                                         !
 ! D319  D(111,115,118,122)   -171.65                                           !
 ! D320  D(116,115,118,119)   -178.0801                                         !
 ! D321  D(116,115,118,122)      3.1864                                         !
 ! D322  D(115,116,120,121)   -175.1217                                         !
 ! D323  D(115,116,120,126)      0.3756                                         !
 ! D324  D(117,116,120,121)      0.9712                                         !
 ! D325  D(117,116,120,126)    176.4684                                         !
 ! D326  D(115,118,122,123)    178.1906                                         !
 ! D327  D(115,118,122,126)      0.0217                                         !
 ! D328  D(119,118,122,123)     -0.5391                                         !
 ! D329  D(119,118,122,126)   -178.708                                          !
 ! D330  D(116,120,126,122)      2.9363                                         !
 ! D331  D(116,120,126,124)   -173.4438                                         !
 ! D332  D(121,120,126,122)    178.4529                                         !
 ! D333  D(121,120,126,124)      2.0729                                         !
 ! D334  D(118,122,126,120)     -3.1363                                         !
 ! D335  D(118,122,126,124)    173.0697                                         !
 ! D336  D(123,122,126,120)    178.6937                                         !
 ! D337  D(123,122,126,124)     -5.1003                                         !
 ! D338  D(125,124,126,120)   -167.3103                                         !
 ! D339  D(125,124,126,122)     16.3848                                         !
 ! D340  D(110,127,129,130)    -14.3532                                         !
 ! D341  D(110,127,129,131)   -131.0355                                         !
 ! D342  D(110,127,129,132)    106.3503                                         !
 ! D343  D(128,127,129,130)    125.7106                                         !
 ! D344  D(128,127,129,131)      9.0284                                         !
 ! D345  D(128,127,129,132)   -113.5859                                         !
 ! D346  D(127,129,131,135)    103.737                                          !
 ! D347  D(127,129,131,151)    -72.0216                                         !
 ! D348  D(130,129,131,135)    -10.4215                                         !
 ! D349  D(130,129,131,151)    173.82                                           !
 ! D350  D(132,129,131,135)   -131.7225                                         !
 ! D351  D(132,129,131,151)     52.519                                          !
 ! D352  D(127,129,132,133)     89.7344                                         !
 ! D353  D(127,129,132,134)   -156.7638                                         !
 ! D354  D(127,129,132,136)    -34.6753                                         !
 ! D355  D(130,129,132,133)   -150.6836                                         !
 ! D356  D(130,129,132,134)    -37.1818                                         !
 ! D357  D(130,129,132,136)     84.9067                                         !
 ! D358  D(131,129,132,133)    -28.4962                                         !
 ! D359  D(131,129,132,134)     85.0057                                         !
 ! D360  D(131,129,132,136)   -152.9058                                         !
 ! D361  D(129,132,136,137)   -137.9928                                         !
 ! D362  D(129,132,136,138)    -21.0379                                         !
 ! D363  D(129,132,136,139)    102.187                                          !
 ! D364  D(133,132,136,137)     98.3569                                         !
 ! D365  D(133,132,136,138)   -144.6882                                         !
 ! D366  D(133,132,136,139)    -21.4633                                         !
 ! D367  D(134,132,136,137)    -17.8309                                         !
 ! D368  D(134,132,136,138)     99.124                                          !
 ! D369  D(134,132,136,139)   -137.6511                                         !
 ! D370  D(132,136,139,140)     70.9484                                         !
 ! D371  D(132,136,139,141)   -169.6126                                         !
 ! D372  D(132,136,139,142)    -47.8195                                         !
 ! D373  D(137,136,139,140)    -50.9417                                         !
 ! D374  D(137,136,139,141)     68.4974                                         !
 ! D375  D(137,136,139,142)   -169.7096                                         !
 ! D376  D(138,136,139,140)   -165.6888                                         !
 ! D377  D(138,136,139,141)    -46.2498                                         !
 ! D378  D(138,136,139,142)     75.5433                                         !
 ! D379  D(136,139,142,143)    -23.6923                                         !
 ! D380  D(136,139,142,150)    122.2197                                         !
 ! D381  D(140,139,142,143)   -143.87                                           !
 ! D382  D(140,139,142,150)      2.0419                                         !
 ! D383  D(141,139,142,143)     98.4173                                         !
 ! D384  D(141,139,142,150)   -115.6708                                         !
 ! D385  D(139,142,150,144)     48.9193                                         !
 ! D386  D(139,142,150,147)   -132.5199                                         !
 ! D387  D(143,142,150,144)   -165.6666                                         !
 ! D388  D(143,142,150,147)     12.8942                                         !
 ! D389  D(145,144,150,142)   -160.4537                                         !
 ! D390  D(145,144,150,147)     21.0164                                         !
 ! D391  D(146,144,150,142)     13.0519                                         !
 ! D392  D(146,144,150,147)   -165.478                                          !
 ! D393  D(148,147,150,142)   -158.5548                                         !
 ! D394  D(148,147,150,144)     19.97                                           !
 ! D395  D(149,147,150,142)     36.8905                                         !
 ! D396  D(149,147,150,144)   -144.5847                                         !
 --------------------------------------------------------------------------------
 Symmetry turned off by external request.
 Stoichiometry    C50H77N12O13(1+)
 Framework group  C1[X(C50H77N12O13)]
 Deg. of freedom   450
 Full point group                 C1      NOp   1
                          Input orientation:                          
 ---------------------------------------------------------------------
 Center     Atomic      Atomic             Coordinates (Angstroms)
 Number     Number       Type             X           Y           Z
 ---------------------------------------------------------------------
      1          7           0      -10.981869    3.743347    5.254164
[...]
 Alpha virt. eigenvalues --    2.04060   2.04143   2.04843   2.05144   2.05672
 Alpha virt. eigenvalues --    2.06015   2.06462   2.07588   2.07751   2.08208
 Alpha virt. eigenvalues --    2.08672   2.08829   2.08928   2.09265   2.09558
 Alpha virt. eigenvalues --    2.10049   2.10265   2.10536   2.10939   2.11362
 Alpha virt. eigenvalues --    2.11459   2.11924   2.12242   2.12439   2.12655
 Alpha virt. eigenvalues --    2.12873   2.13229   2.14060   2.14363   2.14890
 Alpha virt. eigenvalues --    2.15139   2.15431   2.15670   2.16070   2.16107
 Alpha virt. eigenvalues --    2.16616   2.16945   2.17411   2.17712   2.18364
 Alpha virt. eigenvalues --    2.18928   2.19662   2.19842   2.20260   2.20311
 Alpha virt. eigenvalues --    2.20717   2.21688   2.22412   2.22584   2.23209
 Alpha virt. eigenvalues --    2.23249   2.23403   2.24011   2.24224   2.24403
 Alpha virt. eigenvalues --    2.24976   2.25052   2.25576   2.25647   2.26025
 Alpha virt. eigenvalues --    2.26739   2.27408   2.27786   2.27911   2.28385
 Alpha virt. eigenvalues --    2.28497   2.29109   2.30014   2.30522   2.31047
 Alpha virt. eigenvalues --    2.31197   2.31904   2.32196   2.32388   2.32996
 Alpha virt. eigenvalues --    2.33523   2.33788   2.33957   2.34092   2.35649
 Alpha virt. eigenvalues --    2.35728   2.35837   2.36268   2.36803   2.37232
 Alpha virt. eigenvalues --    2.37626   2.38203   2.38749   2.39770   2.40054
 Alpha virt. eigenvalues --    2.40437   2.40628   2.40853   2.41842   2.42728
 Alpha virt. eigenvalues --    2.43052   2.43810   2.43939   2.44829   2.45034
 Alpha virt. eigenvalues --    2.45643   2.45851   2.46001   2.47092   2.47308
 Alpha virt. eigenvalues --    2.47829   2.48130   2.48456   2.49298   2.49915
 Alpha virt. eigenvalues --    2.50086   2.50387   2.50711   2.51392   2.51888
 Alpha virt. eigenvalues --    2.52553   2.53133   2.53257   2.53731   2.54442
 Alpha virt. eigenvalues --    2.54569   2.55109   2.55494   2.56003   2.56254
 Alpha virt. eigenvalues --    2.56455   2.56981   2.57845   2.58237   2.58608
 Alpha virt. eigenvalues --    2.58947   2.59846   2.60009   2.60275   2.61575
 Alpha virt. eigenvalues --    2.62031   2.62402   2.62617   2.63387   2.63952
 Alpha virt. eigenvalues --    2.64118   2.64438   2.64850   2.65360   2.66062
 Alpha virt. eigenvalues --    2.66400   2.66760   2.66942   2.67145   2.67876
 Alpha virt. eigenvalues --    2.68032   2.68505   2.68953   2.69454   2.69946
 Alpha virt. eigenvalues --    2.70398   2.71287   2.71563   2.71685   2.72266
 Alpha virt. eigenvalues --    2.73235   2.73676   2.74261   2.75199   2.76469
 Alpha virt. eigenvalues --    2.76701   2.77858   2.78168   2.78542   2.79293
 Alpha virt. eigenvalues --    2.81762   2.82313   2.82768   2.82946   2.83827
 Alpha virt. eigenvalues --    2.84963   2.85342   2.86025   2.87532   2.87880
 Alpha virt. eigenvalues --    2.88742   2.90097   2.90792   2.91976   2.92421
 Alpha virt. eigenvalues --    2.92662   2.94296   2.95442   2.96036   2.96520
 Alpha virt. eigenvalues --    2.97535   2.97568   2.98406   2.98854   2.99074
 Alpha virt. eigenvalues --    2.99613   3.00738   3.01449   3.01848   3.02390
 Alpha virt. eigenvalues --    3.04310   3.06918   3.07651   3.08654   3.10399
 Alpha virt. eigenvalues --    3.11094   3.11668   3.12191   3.13885   3.18444
 Alpha virt. eigenvalues --    3.35656   3.37654   3.64710   3.72854   3.76886
 Alpha virt. eigenvalues --    3.88115   3.92876   3.94719   3.94953   3.96394
 Alpha virt. eigenvalues --    3.96702   3.98697   3.99337   4.00533   4.01532
 Alpha virt. eigenvalues --    4.03254   4.05678   4.06075   4.06374   4.07007
 Alpha virt. eigenvalues --    4.07899   4.08196   4.08904   4.09343   4.10346
 Alpha virt. eigenvalues --    4.12148   4.12947   4.14121   4.14419   4.14504
 Alpha virt. eigenvalues --    4.15799   4.16319   4.16491   4.16623   4.19063
 Alpha virt. eigenvalues --    4.21560   4.21986   4.22825   4.25352   4.25774
 Alpha virt. eigenvalues --    4.26078   4.26946   4.27692   4.29683   4.30601
 Alpha virt. eigenvalues --    4.31272   4.33476   4.33972   4.35044   4.36259
 Alpha virt. eigenvalues --    4.37424   4.37522   4.37749   4.38915   4.40789
 Alpha virt. eigenvalues --    4.41824   4.42204   4.42622   4.43782   4.45540
 Alpha virt. eigenvalues --    4.49499   4.49539   4.51738   4.53517   4.55062
 Alpha virt. eigenvalues --    4.55649   4.56505   4.59306   4.59602   4.61266
 Alpha virt. eigenvalues --    4.62168   4.64894   4.67190   4.68660   4.70527
 Alpha virt. eigenvalues --    4.72746   4.73609
          Condensed to atoms (all electrons):
 Mulliken charges:
               1
     1  N   -0.764701
     2  H    0.415458
     3  H    0.436098
     4  H    0.408935
     5  C   -0.099935
     6  H    0.214761
     7  C    0.657019
     8  C   -0.124806
     9  H    0.190736
    10  O   -0.553294
    11  C   -0.462103
    12  H    0.138809
    13  H    0.199629
    14  H    0.172785
    15  C   -0.476304
    16  H    0.141722
    17  H    0.188149
    18  H    0.199052
    19  N   -0.609640
    20  H    0.375962
    21  C   -0.073450
    22  H    0.189880
    23  C    0.624540
    24  C   -0.084749
    25  H    0.150536
    26  O   -0.549137
    27  C   -0.299547
    28  H    0.186645
    29  H    0.155969
    30  C   -0.466028
    31  H    0.175839
    32  H    0.131313
    33  H    0.168798
    34  C   -0.462372
    35  H    0.176465
    36  H    0.133091
    37  H    0.153135
    38  N   -0.606195
    39  H    0.367674
    40  C   -0.069520
    41  H    0.184844
    42  C    0.632262
    43  C   -0.347382
    44  H    0.163713
    45  H    0.163640
    46  O   -0.554241
    47  C    0.144261
    48  C   -0.182210
    49  H    0.142969
    50  C   -0.196813
    51  H    0.127847
    52  C   -0.131918
    53  H    0.144530
    54  C   -0.118279
    55  H    0.136635
    56  C   -0.112977
    57  H    0.138034
    58  N   -0.582794
    59  H    0.354391
    60  C   -0.076320
    61  H    0.178551
    62  C    0.639617
    63  C   -0.292356
    64  H    0.163037
    65  H    0.186391
    66  O   -0.556551
    67  C   -0.079269
    68  H    0.118853
    69  C   -0.448326
    70  H    0.150482
    71  H    0.166615
    72  H    0.125810
    73  C   -0.465567
    74  H    0.140221
    75  H    0.132304
    76  H    0.173094
    77  N   -0.593443
    78  H    0.347001
    79  C   -0.053335
    80  H    0.157204
    81  C    0.624656
    82  C   -0.279206
    83  H    0.192735
    84  H    0.160993
    85  O   -0.541490
    86  C   -0.378924
    87  H    0.168997
    88  H    0.163986
    89  C    0.621524
    90  O   -0.485902
    91  O   -0.637675
    92  N   -0.592296
    93  H    0.330115
    94  C   -0.083764
    95  H    0.223697
    96  C    0.628644
    97  C   -0.360758
    98  H    0.153902
    99  H    0.196879
   100  O   -0.533199
   101  C    0.590686
   102  N   -0.724770
   103  H    0.351326
   104  H    0.324361
   105  O   -0.509195
   106  N   -0.652974
   107  H    0.391538
   108  C   -0.023900
   109  H    0.171665
   110  C    0.608877
   111  C   -0.391686
   112  H    0.192144
   113  H    0.194172
   114  O   -0.515094
   115  C    0.114442
   116  C   -0.242870
   117  H    0.186156
   118  C   -0.188775
   119  H    0.152965
   120  C   -0.146795
   121  H    0.175429
   122  C   -0.190179
   123  H    0.122369
   124  O   -0.660559
   125  H    0.409082
   126  C    0.341652
   127  N   -0.707003
   128  H    0.377477
   129  C   -0.031544
   130  H    0.208386
   131  C    0.581067
   132  C   -0.307999
   133  H    0.151475
   134  H    0.170238
   135  O   -0.571432
   136  C   -0.305893
   137  H    0.158323
   138  H    0.186841
   139  C   -0.156632
   140  H    0.159615
   141  H    0.163440
   142  N   -0.597513
   143  H    0.390156
   144  N   -0.744567
   145  H    0.366792
   146  H    0.368649
   147  N   -0.787482
   148  H    0.353203
   149  H    0.449030
   150  C    0.731465
   151  O   -0.594717
   152  H    0.463904
 Sum of Mulliken charges =   1.00000
 Mulliken charges with hydrogens summed into heavy atoms:
               1
     1  N    0.495789
     5  C    0.114826
     7  C    0.657019
     8  C    0.065930
    10  O   -0.553294
    11  C    0.049120
    15  C    0.052618
    19  N   -0.233678
    21  C    0.116431
    23  C    0.624540
    24  C    0.065786
    26  O   -0.549137
    27  C    0.043067
    30  C    0.009922
    34  C    0.000319
    38  N   -0.238522
    40  C    0.115324
    42  C    0.632262
    43  C   -0.020029
    46  O   -0.554241
    47  C    0.144261
    48  C   -0.039241
    50  C   -0.068966
    52  C    0.012611
    54  C    0.018356
    56  C    0.025057
    58  N   -0.228403
    60  C    0.102230
    62  C    0.639617
    63  C    0.057071
    66  O   -0.556551
    67  C    0.039584
    69  C   -0.005420
    73  C   -0.019948
    77  N   -0.246441
    79  C    0.103869
    81  C    0.624656
    82  C    0.074522
    85  O   -0.541490
    86  C   -0.045940
    89  C    0.621524
    90  O   -0.485902
    91  O   -0.173772
    92  N   -0.262181
    94  C    0.139934
    96  C    0.628644
    97  C   -0.009976
   100  O   -0.533199
   101  C    0.590686
   102  N   -0.049084
   105  O   -0.509195
   106  N   -0.261436
   108  C    0.147765
   110  C    0.608877
   111  C   -0.005370
   114  O   -0.515094
   115  C    0.114442
   116  C   -0.056714
   118  C   -0.035810
   120  C    0.028634
   122  C   -0.067810
   124  O   -0.251477
   126  C    0.341652
   127  N   -0.329525
   129  C    0.176842
   131  C    0.581067
   132  C    0.013713
   135  O   -0.571432
   136  C    0.039271
   139  C    0.166424
   142  N   -0.207357
   144  N   -0.009126
   147  N    0.014751
   150  C    0.731465
   151  O   -0.594717
 Electronic spatial extent (au):  <R**2>=         128315.6498
 Charge=              1.0000 electrons
 Dipole moment (field-independent basis, Debye):
    X=            -29.2049    Y=             23.1805    Z=             14.7320  Tot=             40.0911
 Quadrupole moment (field-independent basis, Debye-Ang):
   XX=             75.9408   YY=           -353.3176   ZZ=           -204.5837
   XY=            -16.9937   XZ=           -320.0105   YZ=            -15.5629
 Traceless Quadrupole moment (field-independent basis, Debye-Ang):
   XX=            236.5943   YY=           -192.6641   ZZ=            -43.9302
   XY=            -16.9937   XZ=           -320.0105   YZ=            -15.5629
 Octapole moment (field-independent basis, Debye-Ang**2):
  XXX=          -4690.2193  YYY=          -1789.7789  ZZZ=             69.8672  XYY=           -564.9059
  XXY=           2079.0108  XXZ=           1447.7493  XZZ=           -948.3591  YZZ=            344.5698
  YYZ=            -81.6828  XYZ=          -1652.0385
 Hexadecapole moment (field-independent basis, Debye-Ang**3):
 XXXX=         -50996.1323 YYYY=         -16880.5507 ZZZZ=         -23140.4584 XXXY=          -8168.7824
 XXXZ=         -10793.1540 YYYX=          -4787.8556 YYYZ=           1271.3494 ZZZX=           9051.7582
 ZZZY=             -7.8483 XXYY=          -9542.0914 XXZZ=          -1170.1992 YYZZ=          -4758.8903
 XXYZ=           1052.2742 YYXZ=           1550.4414 ZZXY=           -510.6138
 N-N= 1.302113701684D+04 E-N=-3.436405303466D+04  KE= 3.553598018202D+03
 Unable to Open any file for archive entry.
 1\1\GINC-LAC-314\SP\RB3LYP\6-31G(d)\C50H77N12O13(1+)\KENGMITH\13-Aug-2
 022\0\\# B3LYP/6-31G* empiricaldispersion=gd3 guess=read geom=check no
 symm integral(ultrafinegrid)\\Candidate Structure: Conf:981 Charge cal
 c in gas phase\\1,1\N,0,-10.9818690255,3.7433471143,5.2541639601\H,0,-
 11.18279442,4.7376268167,5.1274228601\H,0,-11.1184376112,3.2186441637,
 4.3292519779\H,0,-11.6098640719,3.3717758944,5.9713445869\C,0,-9.52027
 24216,3.4514229364,5.5378729517\H,0,-8.9976907879,4.4098288444,5.59727
 22086\C,0,-9.0850707187,2.6764172842,4.2628449053\C,0,-9.3292696994,2.
 656760492,6.8476604354\H,0,-8.2477898562,2.4816764317,6.9128418658\O,0
 ,-9.9660938489,2.3989361278,3.4295057485\C,0,-9.7447944537,3.487598122
 ,8.0709476094\H,0,-10.8264499438,3.6794496202,8.0946706073\H,0,-9.5034
 685729,2.9469157205,8.9905773319\H,0,-9.2275583913,4.4528888723,8.1028
 201011\C,0,-10.0273582592,1.2880677541,6.8112215635\H,0,-11.1220258398
 ,1.3761851489,6.7743634891\H,0,-9.7082615807,0.6851369408,5.9555270487
 \H,0,-9.7920634232,0.7303939824,7.7218592539\N,0,-7.8067513612,2.35430
 48171,4.1781775744\H,0,-7.1218648057,2.5862276001,4.9006544426\C,0,-7.
 2081648459,1.5885625559,3.0823805879\H,0,-7.88346692,0.7657949383,2.83
 28987048\C,0,-5.8855890344,1.0676702305,3.6760287276\C,0,-6.9936866365
 ,2.4910360148,1.82555847\H,0,-7.9768624076,2.9519460138,1.6564191073\O
 ,0,-5.4041052039,1.6245386239,4.6676426034\C,0,-6.6332297525,1.7081622
 302,0.5466279469\H,0,-5.6183243168,1.3025858785,0.6137858361\H,0,-6.59
 80033369,2.4434233724,-0.2671640657\C,0,-5.9646311984,3.5983269593,2.0
 938562234\H,0,-4.9604371908,3.1847664442,2.2384301293\H,0,-6.212989858
 1,4.1867489212,2.9839938878\H,0,-5.9176286296,4.2823664484,1.240699412
 3\C,0,-7.6137552241,0.5950243173,0.1597512312\H,0,-7.3658775988,0.1973
 891369,-0.8288286178\H,0,-7.58867642,-0.2550517716,0.8541108562\H,0,-8
 .6467758902,0.9625784008,0.1305320356\N,0,-5.31748715,0.0303127114,3.0
 328454975\H,0,-5.7174247609,-0.2861254997,2.154441841\C,0,-3.898177595
 4,-0.2945620324,3.1632911661\H,0,-3.4690109148,0.3940829912,3.89408484
 93\C,0,-3.2928190489,-0.0888149233,1.7653369021\C,0,-3.6686298397,-1.7
 562216863,3.620406413\H,0,-4.2255051462,-2.4163483032,2.9460358339\H,0
 ,-4.0928021167,-1.8684979523,4.6245036236\O,0,-3.9332145429,-0.4535470
 687,0.7739275536\C,0,-2.1932170165,-2.0917763224,3.5964560984\C,0,-1.6
 257696165,-2.7216961532,2.4808419976\H,0,-2.2691643728,-3.0412031693,1
 .6644086866\C,0,-1.3510174945,-1.6649201499,4.6312806629\H,0,-1.779716
 4787,-1.1779538063,5.5053407395\C,0,-0.2463874883,-2.9141709835,2.3966
 223423\H,0,0.1793095613,-3.3954585961,1.5207599995\C,0,0.0293578172,-1
 .8549470653,4.54887709\H,0,0.6704775033,-1.5166877153,5.358229639\C,0,
 0.5847021258,-2.4755838171,3.4287273935\H,0,1.6595133462,-2.6157811026
 ,3.3599781579\N,0,-2.0808847485,0.488353104,1.7278247648\H,0,-1.550743
 8769,0.604114546,2.5858590781\C,0,-1.2910996568,0.5985910282,0.5097368
 453\H,0,-1.6862666983,-0.1200057832,-0.2136865144\C,0,0.1582107102,0.2
 86928242,0.8801141202\C,0,-1.3067023949,2.0383624377,-0.0644795876\H,0
 ,-0.659231283,2.0672025897,-0.9517729872\H,0,-0.8344303938,2.696924977
 8,0.6736198439\O,0,0.5965335839,0.5708112386,1.9964508149\C,0,-2.69919
 20454,2.5868467572,-0.4196073893\H,0,-3.3381854614,2.4752808605,0.4690
 880512\C,0,-2.5851814831,4.0868223195,-0.7309879063\H,0,-1.9726943586,
 4.2506621086,-1.6264790991\H,0,-2.1139612772,4.6325018146,0.0939160543
 \H,0,-3.5739470846,4.5232690343,-0.9199953809\C,0,-3.3567949745,1.8289
 701345,-1.5805229019\H,0,-2.7289638697,1.8797529569,-2.4797167449\H,0,
 -4.3274835342,2.2746247705,-1.8314438246\H,0,-3.5324626692,0.778961119
 5,-1.3300679581\N,0,0.9326541648,-0.223911659,-0.120689782\H,0,0.52679
 5338,-0.2025663031,-1.0505261576\C,0,2.3710901516,0.0629576221,-0.1016
 757024\H,0,2.723218986,-0.1547593387,0.9103721237\C,0,2.5052464451,1.5
 574948481,-0.4364137779\C,0,3.148707447,-0.7536209734,-1.1401870159\H,
 0,2.8196337078,-0.4666603054,-2.1442495538\H,0,2.9304241004,-1.8188639
 573,-1.0121268759\O,0,2.0325775464,1.9996366893,-1.4827718285\C,0,4.65
 14628703,-0.4883772997,-1.0141076079\H,0,4.8518178628,0.5850205771,-0.
 9133181213\H,0,5.0684847078,-0.9558199083,-0.1129103522\C,0,5.46204600
 24,-0.9524323075,-2.2149622675\O,0,4.9881735522,-1.4939086512,-3.19406
 8546\O,0,6.7510451804,-0.6485785082,-2.047598622\N,0,3.1488046038,2.33
 0962413,0.4688595339\H,0,3.5518082949,1.8947495026,1.2864149528\C,0,3.
 3312112807,3.7689687082,0.2767227377\H,0,2.5739781502,4.0606765397,-0.
 457580367\C,0,4.7379038908,4.042220866,-0.304609511\C,0,3.0535554724,4
 .5107361571,1.5900942361\H,0,3.8351946719,4.2925783688,2.3265379006\H,
 0,3.0697655678,5.5869216122,1.404732596\O,0,5.5440689666,4.7943618675,
 0.2356405178\C,0,1.6576491039,4.0814442951,2.0422984748\N,0,1.60376759
 73,3.2563926324,3.1341858541\H,0,0.7869171923,2.6591907696,3.192911850
 2\H,0,2.455660705,2.840880872,3.4834606007\O,0,0.6567803473,4.41311906
 36,1.4185247021\N,0,4.9800711406,3.319538425,-1.4259961185\H,0,4.22413
 8508,2.8163994197,-1.8887685787\C,0,6.2659581407,3.2166099376,-2.08846
 04128\H,0,6.5856607777,4.2080424067,-2.4381301833\C,0,6.0170440134,2.3
 139581024,-3.3209946763\C,0,7.3760192096,2.6567068038,-1.1374620009\H,
 0,7.2313677803,3.1528240471,-0.1742598961\H,0,7.2203277443,1.581825853
 4,-1.0048937562\O,0,4.8956739115,1.8854798584,-3.5716414306\C,0,8.7699
 382025,2.9380469479,-1.6540877244\C,0,9.5940119472,1.9153356049,-2.147
 5262355\H,0,9.2662794272,0.8802211105,-2.0953418566\C,0,9.2258769817,4
 .2620281807,-1.7519139164\H,0,8.6159518329,5.066633512,-1.3468586646\C
 ,0,10.8016198947,2.2025306908,-2.7837371906\H,0,11.3892114259,1.408202
 8852,-3.2291147307\C,0,10.4315876315,4.5621537009,-2.3812705145\H,0,10
 .7576767595,5.5967296726,-2.4751826369\O,0,12.3313129394,3.7760842286,
 -3.6808571836\H,0,12.6122049175,4.6933180334,-3.5357570959\C,0,11.2033
 553194,3.5299023873,-2.9264158374\N,0,7.1038040334,2.0427557123,-4.114
 9771295\H,0,8.0023148141,2.2219673725,-3.6706295611\C,0,7.0955296536,0
 .8311676547,-4.9877785672\H,0,6.2753926261,0.2010487635,-4.6433803934\
 C,0,8.4662300399,0.1460703431,-4.693896682\C,0,6.9046828648,1.11766610
 81,-6.4978162386\H,0,7.8913795764,1.2630422132,-6.9517676869\H,0,6.505
 2433295,0.1957930589,-6.9331525037\O,0,8.4683598121,-0.8702745097,-3.9
 615388543\C,0,5.9792279333,2.3051715937,-6.85317042\H,0,5.3274896525,2
 .0478445199,-7.6957026957\H,0,5.3138826587,2.5297119427,-6.012415488\C
 ,0,6.7601196581,3.5729502304,-7.2580212707\H,0,7.2284414167,3.43393642
 28,-8.238876471\H,0,6.0896442012,4.4376665261,-7.3232872213\N,0,7.8291
 615886,3.8298851515,-6.2746444005\H,0,7.6304786858,3.4087649151,-5.362
 7820207\N,0,9.5324684137,4.7078295792,-7.5889929131\H,0,10.435499098,4
 .5818315227,-8.0209261327\H,0,8.8913896067,5.3699297428,-7.9997888593\
 N,0,10.0163231605,3.2535490564,-5.8262786101\H,0,10.9926185825,3.52217
 5836,-5.7884725001\H,0,9.7540027392,2.2902612349,-5.4633016702\C,0,9.1
 388350653,3.9181298037,-6.5653791202\O,0,9.4861507006,0.7313463918,-5.
 1600957941\H,0,7.3161264878,-0.8929353793,-2.8642791007\\Version=ES64L
 -G16RevC.01\HF=-3586.8449064\RMSD=4.315e-10\Dipole=-13.6763412,5.92953
 8,5.9417807\Quadrupole=175.9020384,-143.2410217,-32.6610167,-12.634394
 9,-237.9199342,-11.5706286\PG=C01 [X(C50H77N12O13)]\\@
 The archive entry for this job was punched.


 I WOULD TAKE COUNSEL OF MYSELF.
 I WOULD STOP AND LOOK WITHIN
 AND LOOKING WITHIN, LOOK BACK, ALSO
 THAT I MAY LOOK AHEAD WITH CLEARER UNDERSTANDING
 OF THE WAY I HAVE BEEN MOVING, AND IN WHAT DIRECTION.
 I NEED TO KNOW IF I AM GOING FORWARD OR RETREATING,
 WHETHER I HAVE BEEN WASTING, OR ENJOYING
 THE PRECIOUS MOMENTS OF LIFE.  THERE HAVE BEEN FRICTIONS,
 ANNOYANCES AND SOMETIMES WRATH,
 BUT WERE THEY BECAUSE I WAS RIGHT AND OTHERS WRONG.....
 HAVE I HAD MY THOUGHTS TOO SHARPLY FOCUSED
 ON THAT WHICH PLEASED ME, SERVED MY SELF-ESTEEM,
 UNDERGIRDED MY SECURITY,
 OF WHICH I DID NOT INQUIRE WHETHER IT SERVED OR HAMPERED OTHERS.....
 HAVE I BEEN TRYING TO STOP THE CLOCK
 TO HOLD THE WORLD
 IN PERPETUATION OF WHAT WAS AN IS ALREADY SLIPPING AWAY.....
 HAVE I BEEN CRITICAL OF OTHERS FOR WHAT REALLY NEEDED CHANGING IN ME...
 LET ME INDEED TAKE COUNSEL OF MYSELF
 AND SET MY DIRECTIONS STRAIGHT.

                          R.T. WESTON AS ADAPTED BY D. OSBORN 1967
 Job cpu time:       0 days  0 hours 14 minutes 37.7 seconds.
 Elapsed time:       0 days  0 hours  3 minutes 40.8 seconds.
 File lengths (MBytes):  RWF=   1088 Int=      0 D2E=      0 Chk=    160 Scr=     32
 Normal termination of Gaussian 16 at Sat Aug 13 18:48:37 2022.
