 Entering Gaussian System, Link 0=/opt/software/Gaussian/g16-AVX-C.01/g16/g16
 Input=charge-conf-34.com
 Output=charge-conf-34.log
 Initial command:
 /opt/software/Gaussian/g16-AVX-C.01/g16/l1.exe "/mnt/gs21/scratch/kengmith/Gau-12006.inp" -scrdir="/mnt/gs21/scratch/kengmith/"
 Entering Link 1 = /opt/software/Gaussian/g16-AVX-C.01/g16/l1.exe PID=     12016.
  
 Copyright (c) 1988-2019, Gaussian, Inc.  All Rights Reserved.
  
 This is part of the Gaussian(R) 16 program.  It is based on
 the Gaussian(R) 09 system (copyright 2009, Gaussian, Inc.),
 the Gaussian(R) 03 system (copyright 2003, Gaussian, Inc.),
 the Gaussian(R) 98 system (copyright 1998, Gaussian, Inc.),
 the Gaussian(R) 94 system (copyright 1995, Gaussian, Inc.),
 the Gaussian 92(TM) system (copyright 1992, Gaussian, Inc.),
 the Gaussian 90(TM) system (copyright 1990, Gaussian, Inc.),
 the Gaussian 88(TM) system (copyright 1988, Gaussian, Inc.),
 the Gaussian 86(TM) system (copyright 1986, Carnegie Mellon
 University), and the Gaussian 82(TM) system (copyright 1983,
 Carnegie Mellon University). Gaussian is a federally registered
 trademark of Gaussian, Inc.
  
 This software contains proprietary and confidential information,
 including trade secrets, belonging to Gaussian, Inc.
  
 This software is provided under written license and may be
 used, copied, transmitted, or stored only in accord with that
 written license.
  
 The following legend is applicable only to US Government
 contracts under FAR:
  
                    RESTRICTED RIGHTS LEGEND
  
 Use, reproduction and disclosure by the US Government is
 subject to restrictions as set forth in subparagraphs (a)
 and (c) of the Commercial Computer Software - Restricted
 Rights clause in FAR 52.227-19.
  
 Gaussian, Inc.
 340 Quinnipiac St., Bldg. 40, Wallingford CT 06492
  
  
 ---------------------------------------------------------------
 Warning -- This program may not be used in any manner that
 competes with the business of Gaussian, Inc. or will provide
 assistance to any competitor of Gaussian, Inc.  The licensee
 of this program is prohibited from giving any competitor of
 Gaussian, Inc. access to this program.  By using this program,
 the user acknowledges that Gaussian, Inc. is engaged in the
 business of creating and licensing software in the field of
 computational chemistry and represents and warrants to the
 licensee that it is not a competitor of Gaussian, Inc. and that
 it will not use this program in any manner prohibited above.
 ---------------------------------------------------------------
  

 Cite this work as:
 Gaussian 16, Revision C.01,
 M. J. Frisch, G. W. Trucks, H. B. Schlegel, G. E. Scuseria, 
 M. A. Robb, J. R. Cheeseman, G. Scalmani, V. Barone, 
 G. A. Petersson, H. Nakatsuji, X. Li, M. Caricato, A. V. Marenich, 
 J. Bloino, B. G. Janesko, R. Gomperts, B. Mennucci, H. P. Hratchian, 
 J. V. Ortiz, A. F. Izmaylov, J. L. Sonnenberg, D. Williams-Young, 
 F. Ding, F. Lipparini, F. Egidi, J. Goings, B. Peng, A. Petrone, 
 T. Henderson, D. Ranasinghe, V. G. Zakrzewski, J. Gao, N. Rega, 
 G. Zheng, W. Liang, M. Hada, M. Ehara, K. Toyota, R. Fukuda, 
 J. Hasegawa, M. Ishida, T. Nakajima, Y. Honda, O. Kitao, H. Nakai, 
 T. Vreven, K. Throssell, J. A. Montgomery, Jr., J. E. Peralta, 
 F. Ogliaro, M. J. Bearpark, J. J. Heyd, E. N. Brothers, K. N. Kudin, 
 V. N. Staroverov, T. A. Keith, R. Kobayashi, J. Normand, 
 K. Raghavachari, A. P. Rendell, J. C. Burant, S. S. Iyengar, 
 J. Tomasi, M. Cossi, J. M. Millam, M. Klene, C. Adamo, R. Cammi, 
 J. W. Ochterski, R. L. Martin, K. Morokuma, O. Farkas, 
 J. B. Foresman, and D. J. Fox, Gaussian, Inc., Wallingford CT, 2019.
 
 ******************************************
 Gaussian 16:  ES64L-G16RevC.01  3-Jul-2019
                13-Aug-2022 
 ******************************************
 %mem=8gb
 %nproc=4
 Will use up to    4 processors via shared memory.
 %chk=conf-34.chk
 ----------------------------------------------------------------------
 # B3LYP/6-31G* empiricaldispersion=gd3 guess=read geom=check nosymm in
 tegral(ultrafinegrid)
 ----------------------------------------------------------------------
 1/29=2,38=1,172=1/1;
 2/12=2,15=1,40=1/2;
 3/5=1,6=6,7=1,11=2,14=-4,25=1,30=1,74=-5,75=-5,116=-2,124=31/1,2,3;
 4/5=1/1;
 5/5=2,38=6/2;
 6/7=2,8=2,9=2,10=2,28=1/1;
 99/5=1,9=1/99;
 -----------------------------------------------------
 Candidate Structure: Conf:34 Charge calc in gas phase
 -----------------------------------------------------
 Structure from the checkpoint file:  "conf-34.chk"
 Charge =  1 Multiplicity = 1
 Redundant internal coordinates found in file.  (old form).
 N,0,-6.2669630975,-2.3200735218,7.7005561294
 H,0,-7.2163377491,-2.0781770423,7.9940794886
 H,0,-6.3068839648,-3.0078916741,6.8853049837
 H,0,-5.7754178387,-2.7342497327,8.4968098519
 C,0,-5.5139861423,-1.1588268442,7.0784632064
 H,0,-6.1337500992,-0.2649307905,7.1865594406
 C,0,-5.4153037159,-1.5840020539,5.5883102137
 C,0,-4.1356525526,-0.9402364115,7.7427687427
 H,0,-3.6825195149,-0.1121315295,7.1826323761
 O,0,-5.7898682438,-2.7279621819,5.2867724678
 C,0,-4.2842065091,-0.4928757159,9.2045858837
 H,0,-4.6988054165,-1.2855057157,9.8429490415
 H,0,-3.3041863604,-0.2403807638,9.6192609531
 H,0,-4.9262963572,0.3898348403,9.2980852178
 C,0,-3.2150472392,-2.1625762042,7.5993678949
 H,0,-3.5873645566,-3.0354834486,8.1529574265
 H,0,-3.0809366371,-2.4584951278,6.5543511731
 H,0,-2.2292362313,-1.9299407358,8.011051979
 N,0,-4.9128681042,-0.6805120318,4.758657179
 H,0,-4.5309792873,0.2001379331,5.101934411
 C,0,-4.5353316829,-0.9310564941,3.3636479602
 H,0,-4.4883889071,-2.0138873784,3.2125920784
 C,0,-3.1533273193,-0.2634007537,3.2389856233
 C,0,-5.5564554587,-0.2991217663,2.3698619691
 H,0,-5.563304579,0.7812781233,2.5756000035
 O,0,-2.9204374887,0.7464984276,3.9142656351
 C,0,-6.9730911075,-0.852019466,2.6287355074
 H,0,-7.2069908513,-0.7539968031,3.69568799
 H,0,-6.9826476361,-1.9287819701,2.4104247618
 C,0,-5.118757385,-0.5140255058,0.9125917752
 H,0,-5.0528840922,-1.5850916971,0.6777657105
 H,0,-4.158252846,-0.051125173,0.6766511824
 H,0,-5.8500276655,-0.0753469395,0.230054265
 C,0,-8.0720401281,-0.1428467907,1.8283064628
 H,0,-9.0599772144,-0.5090023409,2.1267006547
 H,0,-8.0501309138,0.9401069163,2.0006174988
 H,0,-7.9746694962,-0.3107292383,0.7517156454
 N,0,-2.2728642654,-0.8138718599,2.3799033662
 H,0,-2.5985833404,-1.5521541675,1.7665744709
 C,0,-1.0837151965,-0.0661099685,1.9164309661
 H,0,-0.6827323498,0.4597983158,2.7853422842
 C,0,-1.6371845365,0.9202562178,0.8643584673
 C,0,-0.030725575,-1.019063109,1.3298916024
 H,0,-0.3752827332,-1.3311666272,0.3372146372
 H,0,0.0147429465,-1.9077146734,1.9700677189
 O,0,-1.7708094956,0.5748398501,-0.3111975041
 C,0,1.3381812529,-0.371661785,1.2530493023
 C,0,1.6209665209,0.6192100937,0.3006835382
 H,0,0.8814748758,0.8832635962,-0.4510898645
 C,0,2.3324727089,-0.7268734211,2.1751645202
 H,0,2.1267265069,-1.5014759072,2.9121215796
 C,0,2.8624937763,1.2623847356,0.3028411478
 H,0,3.0678402978,2.0333437387,-0.4314022001
 C,0,3.5832361098,-0.106119966,2.1537145064
 H,0,4.3503794187,-0.4012942664,2.8647383026
 C,0,3.8496569067,0.9015198702,1.2244441917
 H,0,4.8253203681,1.3754829956,1.2067529592
 N,0,-2.1019405522,2.0934151268,1.3482466734
 H,0,-2.0131664,2.281392646,2.3390601847
 C,0,-2.9734585059,2.97175969,0.5531076662
 H,0,-3.4665517481,2.3222629692,-0.1770627656
 C,0,-2.1020919163,3.9966599417,-0.2174609011
 C,0,-3.9939528519,3.6571031804,1.4627683844
 H,0,-3.467666008,4.4257081996,2.0402379813
 H,0,-4.3823007878,2.913195646,2.1739988329
 O,0,-2.1056856586,5.1939273937,0.0538122588
 C,0,-5.1725559999,4.3069914972,0.7143125737
 H,0,-4.7511970637,4.956147485,-0.0632467722
 C,0,-6.0826280526,3.2617257881,0.0510338739
 H,0,-6.5146268137,2.5899911948,0.8065355451
 H,0,-5.5504492099,2.6428822922,-0.6802461705
 H,0,-6.9136936006,3.7446434856,-0.4748120301
 C,0,-5.9805791326,5.1860976168,1.6784389522
 H,0,-6.3969954907,4.5854388426,2.4993450443
 H,0,-6.8181671719,5.6704794268,1.1640571249
 H,0,-5.354825959,5.9706890656,2.1179628579
 N,0,-1.3286692617,3.4282621646,-1.1736180828
 H,0,-1.3274637964,2.413218345,-1.2741340444
 C,0,-0.1803781489,4.1063620634,-1.7612708161
 H,0,-0.5078026006,5.0358130995,-2.2423980686
 C,0,0.4057841867,3.1249689526,-2.7811757226
 C,0,0.8669295155,4.4185266057,-0.6599515529
 H,0,1.1770102282,3.4730778242,-0.2074048572
 H,0,0.3510836869,4.9918527229,0.1143514071
 O,0,0.2919126724,1.9109543735,-2.6241294623
 C,0,2.1019000939,5.1889113251,-1.1243497818
 H,0,2.627381315,4.6524043021,-1.9223797785
 H,0,1.8508821177,6.1893070501,-1.4987413166
 C,0,3.1130081558,5.3255055665,-0.0084100631
 O,0,3.0990576437,4.7190180447,1.04039616
 O,0,4.0940099882,6.2023675894,-0.336608131
 N,0,1.1048806369,3.6391117796,-3.8333239149
 H,0,1.3282148886,4.6255501367,-3.8255284771
 C,0,2.0040324382,2.7398216768,-4.5476282362
 H,0,1.4094713773,1.9786786389,-5.0579499005
 C,0,2.953085148,2.0647100782,-3.531289181
 C,0,2.8515808482,3.4913670331,-5.5932536509
 H,0,2.2113467942,3.8540225881,-6.4020605164
 H,0,3.3551561883,4.3443526117,-5.1230471184
 O,0,3.4454535397,2.7149620797,-2.6066893473
 C,0,3.8455162208,2.4635980017,-6.1449761576
 N,0,5.1446325138,2.6285505631,-5.7675397547
 H,0,5.7003213151,1.7767763143,-5.7336089827
 H,0,5.3426989443,3.2690938212,-5.0096239708
 O,0,3.4440615513,1.506404963,-6.7978344358
 N,0,3.2350740104,0.7618904045,-3.7412676938
 H,0,2.9837719657,0.3413519603,-4.6278417961
 C,0,4.1500878788,0.0687399042,-2.8504358951
 H,0,3.8332376926,0.3008735496,-1.8325822255
 C,0,5.6140594366,0.5044103534,-3.0326911436
 C,0,4.0677514595,-1.4588383212,-3.0572939184
 H,0,3.0599377659,-1.7910349673,-2.78078626
 H,0,4.217244532,-1.6780602327,-4.1207835112
 O,0,6.181376615,0.4239544971,-4.1324133231
 C,0,5.1352511932,-2.1520906552,-2.2374196249
 C,0,6.2490759532,-2.7255436924,-2.8615814909
 H,0,6.2965956464,-2.7538817868,-3.9463418719
 C,0,5.112872707,-2.0967412821,-0.8374573138
 H,0,4.2756445615,-1.6318520737,-0.3229026102
 C,0,7.3114590469,-3.2332507095,-2.1166206085
 H,0,8.1646358684,-3.6988905904,-2.6016794676
 C,0,6.1810771654,-2.5727076891,-0.0800857023
 H,0,6.1702575254,-2.4639567542,1.001626058
 O,0,8.388132507,-3.6103860696,-0.0419928973
 H,0,8.2406350117,-3.5069203566,0.9120083753
 C,0,7.2808162223,-3.1408257425,-0.7254933906
 N,0,6.2256661454,0.8655070572,-1.8957783145
 H,0,5.7461631607,0.8139944085,-0.9986760079
 C,0,7.6682808542,0.8951409084,-1.7420262407
 H,0,8.0432875703,-0.0667081982,-2.1196096539
 C,0,7.9755511013,0.893445879,-0.2026962772
 C,0,8.3427631215,2.0363280063,-2.5568180593
 H,0,7.5457437234,2.6492696877,-2.9857303635
 H,0,8.914297934,2.686375894,-1.8828101623
 O,0,7.0156850542,0.7619095365,0.5722199486
 C,0,9.2462415452,1.5278962999,-3.6994437282
 H,0,8.7423380256,0.6817435607,-4.1810384327
 H,0,9.3575845972,2.3037225428,-4.4674770557
 C,0,10.6651655271,1.1449279621,-3.2350198194
 H,0,11.2282256768,0.6301223175,-4.0226181605
 H,0,11.2322829726,2.0515899376,-3.0001834192
 N,0,10.6656654586,0.3480326036,-2.0088877839
 H,0,10.2472574174,0.8239016379,-1.1629904696
 N,0,10.6939985836,-1.7915874472,-2.9807716798
 H,0,10.5155686365,-2.7784035777,-2.8709532023
 H,0,10.6076038408,-1.4210699835,-3.9143641135
 N,0,10.325891199,-1.497955521,-0.6938491616
 H,0,9.8884615728,-2.4126874452,-0.6093750138
 H,0,10.0075203782,-0.8067220698,-0.003422967
 C,0,10.5387194701,-0.9704934756,-1.9149545285
 O,0,9.2140707608,0.9649632702,0.1104775227
 H,0,4.7253201927,6.1964842792,0.4075064197
 Recover connectivity data from disk.
                           ----------------------------
                           !    Current Parameters    !
                           ! (Angstroms and Degrees)  !
 --------------------------                            --------------------------
 ! Name  Definition              Value                                          !
 --------------------------------------------------------------------------------
 ! R1    R(1,2)                  1.0227                                         !
 ! R2    R(1,3)                  1.0674                                         !
 ! R3    R(1,4)                  1.0233                                         !
 ! R4    R(1,5)                  1.5174                                         !
 ! R5    R(5,6)                  1.0931                                         !
 ! R6    R(5,7)                  1.5528                                         !
 ! R7    R(5,8)                  1.5456                                         !
 ! R8    R(7,10)                 1.2409                                         !
 ! R9    R(7,19)                 1.3255                                         !
 ! R10   R(8,9)                  1.0977                                         !
 ! R11   R(8,11)                 1.5359                                         !
 ! R12   R(8,15)                 1.5369                                         !
 ! R13   R(11,12)                1.0989                                         !
 ! R14   R(11,13)                1.0937                                         !
 ! R15   R(11,14)                1.0955                                         !
 ! R16   R(15,16)                1.0987                                         !
 ! R17   R(15,17)                1.0944                                         !
 ! R18   R(15,18)                1.0934                                         !
 ! R19   R(19,20)                1.0194                                         !
 ! R20   R(19,21)                1.4668                                         !
 ! R21   R(21,22)                1.0943                                         !
 ! R22   R(21,23)                1.5399                                         !
 ! R23   R(21,24)                1.5587                                         !
 ! R24   R(23,26)                1.237                                          !
 ! R25   R(23,38)                1.3477                                         !
 ! R26   R(24,25)                1.0998                                         !
 ! R27   R(24,27)                1.5426                                         !
 ! R28   R(24,30)                1.5367                                         !
 ! R29   R(27,28)                1.0967                                         !
 ! R30   R(27,29)                1.0987                                         !
 ! R31   R(27,34)                1.5334                                         !
 ! R32   R(30,31)                1.0985                                         !
 ! R33   R(30,32)                1.092                                          !
 ! R34   R(30,33)                1.0923                                         !
 ! R35   R(34,35)                1.095                                          !
 ! R36   R(34,36)                1.0968                                         !
 ! R37   R(34,37)                1.0939                                         !
 ! R38   R(38,39)                1.0136                                         !
 ! R39   R(38,40)                1.4792                                         !
 ! R40   R(40,41)                1.092                                          !
 ! R41   R(40,42)                1.5447                                         !
 ! R42   R(40,43)                1.5365                                         !
 ! R43   R(42,46)                1.2325                                         !
 ! R44   R(42,58)                1.3515                                         !
 ! R45   R(43,44)                1.0961                                         !
 ! R46   R(43,45)                1.0962                                         !
 ! R47   R(43,47)                1.5162                                         !
 ! R48   R(47,48)                1.4031                                         !
 ! R49   R(47,50)                1.4018                                         !
 ! R50   R(48,49)                1.0871                                         !
 ! R51   R(48,52)                1.3982                                         !
 ! R52   R(50,51)                1.0888                                         !
 ! R53   R(50,54)                1.3965                                         !
 ! R54   R(52,53)                1.0843                                         !
 ! R55   R(52,56)                1.3979                                         !
 ! R56   R(54,55)                1.0868                                         !
 ! R57   R(54,56)                1.3964                                         !
 ! R58   R(56,57)                1.0848                                         !
 ! R59   R(58,59)                1.0124                                         !
 ! R60   R(58,60)                1.4708                                         !
 ! R61   R(60,61)                1.0946                                         !
 ! R62   R(60,62)                1.5503                                         !
 ! R63   R(60,63)                1.5292                                         !
 ! R64   R(62,66)                1.2276                                         !
 ! R65   R(62,77)                1.3548                                         !
 ! R66   R(63,64)                1.096                                          !
 ! R67   R(63,65)                1.1                                            !
 ! R68   R(63,67)                1.54                                           !
 ! R69   R(67,68)                1.0971                                         !
 ! R70   R(67,69)                1.5365                                         !
 ! R71   R(67,73)                1.5347                                         !
 ! R72   R(69,70)                1.0994                                         !
 ! R73   R(69,71)                1.0959                                         !
 ! R74   R(69,72)                1.0956                                         !
 ! R75   R(73,74)                1.0991                                         !
 ! R76   R(73,75)                1.0958                                         !
 ! R77   R(73,76)                1.0956                                         !
 ! R78   R(77,78)                1.02                                           !
 ! R79   R(77,79)                1.4573                                         !
 ! R80   R(79,80)                1.0966                                         !
 ! R81   R(79,81)                1.532                                          !
 ! R82   R(79,82)                1.5515                                         !
 ! R83   R(81,85)                1.2294                                         !
 ! R84   R(81,92)                1.3639                                         !
 ! R85   R(82,83)                1.0931                                         !
 ! R86   R(82,84)                1.0929                                         !
 ! R87   R(82,86)                1.5278                                         !
 ! R88   R(86,87)                1.0958                                         !
 ! R89   R(86,88)                1.0973                                         !
 ! R90   R(86,89)                1.5121                                         !
 ! R91   R(89,90)                1.2116                                         !
 ! R92   R(89,91)                1.3561                                         !
 ! R93   R(91,152)               0.9759                                         !
 ! R94   R(92,93)                1.0114                                         !
 ! R95   R(92,94)                1.4586                                         !
 ! R96   R(94,95)                1.0924                                         !
 ! R97   R(94,96)                1.5458                                         !
 ! R98   R(94,97)                1.5416                                         !
 ! R99   R(96,100)               1.2329                                         !
 ! R100  R(96,106)               1.3494                                         !
 ! R101  R(97,98)                1.0934                                         !
 ! R102  R(97,99)                1.0965                                         !
 ! R103  R(97,101)               1.5325                                         !
 ! R104  R(101,102)              1.3629                                         !
 ! R105  R(101,105)              1.2262                                         !
 ! R106  R(102,103)              1.0176                                         !
 ! R107  R(102,104)              1.0119                                         !
 ! R108  R(106,107)              1.0129                                         !
 ! R109  R(106,108)              1.453                                          !
 ! R110  R(108,109)              1.091                                          !
 ! R111  R(108,110)              1.5383                                         !
 ! R112  R(108,111)              1.5437                                         !
 ! R113  R(110,114)              1.24                                           !
 ! R114  R(110,127)              1.3405                                         !
 ! R115  R(111,112)              1.0966                                         !
 ! R116  R(111,113)              1.0961                                         !
 ! R117  R(111,115)              1.5141                                         !
 ! R118  R(115,116)              1.3997                                         !
 ! R119  R(115,118)              1.4012                                         !
 ! R120  R(116,117)              1.0862                                         !
 ! R121  R(116,120)              1.3933                                         !
 ! R122  R(118,119)              1.0871                                         !
 ! R123  R(118,122)              1.3933                                         !
 ! R124  R(120,121)              1.0863                                         !
 ! R125  R(120,126)              1.3945                                         !
 ! R126  R(122,123)              1.0872                                         !
 ! R127  R(122,126)              1.396                                          !
 ! R128  R(124,125)              0.9709                                         !
 ! R129  R(124,126)              1.3834                                         !
 ! R130  R(127,128)              1.0185                                         !
 ! R131  R(127,129)              1.4511                                         !
 ! R132  R(129,130)              1.0993                                         !
 ! R133  R(129,131)              1.5697                                         !
 ! R134  R(129,132)              1.556                                          !
 ! R135  R(131,135)              1.2406                                         !
 ! R136  R(131,151)              1.2795                                         !
 ! R137  R(132,133)              1.0931                                         !
 ! R138  R(132,134)              1.097                                          !
 ! R139  R(132,136)              1.5428                                         !
 ! R140  R(136,137)              1.0963                                         !
 ! R141  R(136,138)              1.0974                                         !
 ! R142  R(136,139)              1.5413                                         !
 ! R143  R(139,140)              1.0965                                         !
 ! R144  R(139,141)              1.0949                                         !
 ! R145  R(139,142)              1.4623                                         !
 ! R146  R(142,143)              1.0569                                         !
 ! R147  R(142,150)              1.3279                                         !
 ! R148  R(144,145)              1.0088                                         !
 ! R149  R(144,146)              1.0081                                         !
 ! R150  R(144,150)              1.3544                                         !
 ! R151  R(147,148)              1.0175                                         !
 ! R152  R(147,149)              1.0275                                         !
 ! R153  R(147,150)              1.3471                                         !
 ! A1    A(2,1,3)              109.688                                          !
 ! A2    A(2,1,4)              108.5603                                         !
 ! A3    A(2,1,5)              113.4092                                         !
 ! A4    A(3,1,4)              110.5766                                         !
 ! A5    A(3,1,5)              101.4537                                         !
 ! A6    A(4,1,5)              112.9786                                         !
 ! A7    A(1,5,6)              107.6941                                         !
 ! A8    A(1,5,7)              102.4408                                         !
 ! A9    A(1,5,8)              111.9967                                         !
 ! A10   A(6,5,7)              110.7847                                         !
 ! A11   A(6,5,8)              110.3323                                         !
 ! A12   A(7,5,8)              113.2363                                         !
 ! A13   A(5,7,10)             117.8035                                         !
 ! A14   A(5,7,19)             115.9837                                         !
 ! A15   A(10,7,19)            126.2044                                         !
 ! A16   A(5,8,9)              104.8039                                         !
 ! A17   A(5,8,11)             111.3462                                         !
 ! A18   A(5,8,15)             112.4317                                         !
 ! A19   A(9,8,11)             107.8104                                         !
 ! A20   A(9,8,15)             107.7653                                         !
 ! A21   A(11,8,15)            112.2331                                         !
 ! A22   A(8,11,12)            112.2884                                         !
 ! A23   A(8,11,13)            109.9642                                         !
 ! A24   A(8,11,14)            111.8756                                         !
 ! A25   A(12,11,13)           106.519                                          !
 ! A26   A(12,11,14)           108.0868                                         !
 ! A27   A(13,11,14)           107.867                                          !
 ! A28   A(8,15,16)            112.4507                                         !
 ! A29   A(8,15,17)            112.1823                                         !
 ! A30   A(8,15,18)            109.6162                                         !
 ! A31   A(16,15,17)           107.9296                                         !
 ! A32   A(16,15,18)           106.5514                                         !
 ! A33   A(17,15,18)           107.8543                                         !
 ! A34   A(7,19,20)            121.3354                                         !
 ! A35   A(7,19,21)            125.1991                                         !
 ! A36   A(20,19,21)           111.8023                                         !
 ! A37   A(19,21,22)           108.1405                                         !
 ! A38   A(19,21,23)           103.5292                                         !
 ! A39   A(19,21,24)           111.6234                                         !
 ! A40   A(22,21,23)           112.2933                                         !
 ! A41   A(22,21,24)           109.9533                                         !
 ! A42   A(23,21,24)           111.1334                                         !
 ! A43   A(21,23,26)           118.604                                          !
 ! A44   A(21,23,38)           117.4414                                         !
 ! A45   A(26,23,38)           123.9493                                         !
 ! A46   A(21,24,25)           106.4434                                         !
 ! A47   A(21,24,27)           110.4449                                         !
 ! A48   A(21,24,30)           111.1814                                         !
 ! A49   A(25,24,27)           108.3595                                         !
 ! A50   A(25,24,30)           108.4542                                         !
 ! A51   A(27,24,30)           111.7524                                         !
 ! A52   A(24,27,28)           109.0928                                         !
 ! A53   A(24,27,29)           109.0204                                         !
 ! A54   A(24,27,34)           113.8783                                         !
 ! A55   A(28,27,29)           106.2036                                         !
 ! A56   A(28,27,34)           108.2798                                         !
 ! A57   A(29,27,34)           110.0776                                         !
 ! A58   A(24,30,31)           110.8648                                         !
 ! A59   A(24,30,32)           113.3371                                         !
 ! A60   A(24,30,33)           110.2261                                         !
 ! A61   A(31,30,32)           108.3234                                         !
 ! A62   A(31,30,33)           107.3473                                         !
 ! A63   A(32,30,33)           106.4758                                         !
 ! A64   A(27,34,35)           110.4685                                         !
 ! A65   A(27,34,36)           111.1201                                         !
 ! A66   A(27,34,37)           112.2687                                         !
 ! A67   A(35,34,36)           107.7802                                         !
 ! A68   A(35,34,37)           107.2871                                         !
 ! A69   A(36,34,37)           107.7198                                         !
 ! A70   A(23,38,39)           118.2489                                         !
 ! A71   A(23,38,40)           121.2288                                         !
 ! A72   A(39,38,40)           115.9103                                         !
 ! A73   A(38,40,41)           106.8191                                         !
 ! A74   A(38,40,42)           104.3684                                         !
 ! A75   A(38,40,43)           110.9166                                         !
 ! A76   A(41,40,42)           111.4692                                         !
 ! A77   A(41,40,43)           110.5364                                         !
 ! A78   A(42,40,43)           112.4316                                         !
 ! A79   A(40,42,46)           120.6304                                         !
 ! A80   A(40,42,58)           115.6999                                         !
 ! A81   A(46,42,58)           123.1953                                         !
 ! A82   A(40,43,44)           107.8707                                         !
 ! A83   A(40,43,45)           107.9554                                         !
 ! A84   A(40,43,47)           111.9162                                         !
 ! A85   A(44,43,45)           108.1254                                         !
 ! A86   A(44,43,47)           111.0677                                         !
 ! A87   A(45,43,47)           109.7731                                         !
 ! A88   A(43,47,48)           121.1903                                         !
 ! A89   A(43,47,50)           119.9233                                         !
 ! A90   A(48,47,50)           118.8468                                         !
 ! A91   A(47,48,49)           120.2532                                         !
 ! A92   A(47,48,52)           120.1814                                         !
 ! A93   A(49,48,52)           119.561                                          !
 ! A94   A(47,50,51)           119.4381                                         !
 ! A95   A(47,50,54)           120.8325                                         !
 ! A96   A(51,50,54)           119.7282                                         !
 ! A97   A(48,52,53)           119.6159                                         !
 ! A98   A(48,52,56)           120.6178                                         !
 ! A99   A(53,52,56)           119.7531                                         !
 ! A100  A(50,54,55)           120.0941                                         !
 ! A101  A(50,54,56)           120.1236                                         !
 ! A102  A(55,54,56)           119.781                                          !
 ! A103  A(52,56,54)           119.36                                           !
 ! A104  A(52,56,57)           120.7692                                         !
 ! A105  A(54,56,57)           119.8491                                         !
 ! A106  A(42,58,59)           118.7797                                         !
 ! A107  A(42,58,60)           121.911                                          !
 ! A108  A(59,58,60)           118.0452                                         !
 ! A109  A(58,60,61)           105.8551                                         !
 ! A110  A(58,60,62)           109.2965                                         !
 ! A111  A(58,60,63)           109.9664                                         !
 ! A112  A(61,60,62)           108.2948                                         !
 ! A113  A(61,60,63)           111.2299                                         !
 ! A114  A(62,60,63)           111.9909                                         !
 ! A115  A(60,62,66)           122.2265                                         !
 ! A116  A(60,62,77)           113.2221                                         !
 ! A117  A(66,62,77)           124.527                                          !
 ! A118  A(60,63,64)           107.8944                                         !
 ! A119  A(60,63,65)           108.4885                                         !
 ! A120  A(60,63,67)           114.2512                                         !
 ! A121  A(64,63,65)           107.6446                                         !
 ! A122  A(64,63,67)           109.1249                                         !
 ! A123  A(65,63,67)           109.2342                                         !
 ! A124  A(63,67,68)           107.4713                                         !
 ! A125  A(63,67,69)           112.0876                                         !
 ! A126  A(63,67,73)           109.8378                                         !
 ! A127  A(68,67,69)           108.9098                                         !
 ! A128  A(68,67,73)           107.9707                                         !
 ! A129  A(69,67,73)           110.4282                                         !
 ! A130  A(67,69,70)           110.5951                                         !
 ! A131  A(67,69,71)           112.6186                                         !
 ! A132  A(67,69,72)           110.8928                                         !
 ! A133  A(70,69,71)           107.7195                                         !
 ! A134  A(70,69,72)           107.5224                                         !
 ! A135  A(71,69,72)           107.2768                                         !
 ! A136  A(67,73,74)           110.8323                                         !
 ! A137  A(67,73,75)           111.1466                                         !
 ! A138  A(67,73,76)           111.1941                                         !
 ! A139  A(74,73,75)           107.6121                                         !
 ! A140  A(74,73,76)           107.946                                          !
 ! A141  A(75,73,76)           107.9586                                         !
 ! A142  A(62,77,78)           119.191                                          !
 ! A143  A(62,77,79)           122.6291                                         !
 ! A144  A(78,77,79)           114.9848                                         !
 ! A145  A(77,79,80)           109.6355                                         !
 ! A146  A(77,79,81)           105.7754                                         !
 ! A147  A(77,79,82)           109.8324                                         !
 ! A148  A(80,79,81)           111.4143                                         !
 ! A149  A(80,79,82)           110.0261                                         !
 ! A150  A(81,79,82)           110.071                                          !
 ! A151  A(79,81,85)           120.804                                          !
 ! A152  A(79,81,92)           117.9191                                         !
 ! A153  A(85,81,92)           121.2169                                         !
 ! A154  A(79,82,83)           108.1401                                         !
 ! A155  A(79,82,84)           106.8493                                         !
 ! A156  A(79,82,86)           115.5513                                         !
 ! A157  A(83,82,84)           107.1171                                         !
 ! A158  A(83,82,86)           109.431                                          !
 ! A159  A(84,82,86)           109.4124                                         !
 ! A160  A(82,86,87)           111.2291                                         !
 ! A161  A(82,86,88)           112.2417                                         !
 ! A162  A(82,86,89)           111.2068                                         !
 ! A163  A(87,86,88)           107.9143                                         !
 ! A164  A(87,86,89)           105.1314                                         !
 ! A165  A(88,86,89)           108.8102                                         !
 ! A166  A(86,89,90)           125.8692                                         !
 ! A167  A(86,89,91)           111.3175                                         !
 ! A168  A(90,89,91)           122.7855                                         !
 ! A169  A(89,91,152)          106.2334                                         !
 ! A170  A(81,92,93)           118.3529                                         !
 ! A171  A(81,92,94)           117.4753                                         !
 ! A172  A(93,92,94)           117.9676                                         !
 ! A173  A(92,94,95)           108.836                                          !
 ! A174  A(92,94,96)           109.0122                                         !
 ! A175  A(92,94,97)           111.7475                                         !
 ! A176  A(95,94,96)           109.6953                                         !
 ! A177  A(95,94,97)           108.7877                                         !
 ! A178  A(96,94,97)           108.7435                                         !
 ! A179  A(94,96,100)          120.5247                                         !
 ! A180  A(94,96,106)          116.5932                                         !
 ! A181  A(100,96,106)         122.8489                                         !
 ! A182  A(94,97,98)           109.9681                                         !
 ! A183  A(94,97,99)           109.9307                                         !
 ! A184  A(94,97,101)          105.8913                                         !
 ! A185  A(98,97,99)           109.1538                                         !
 ! A186  A(98,97,101)          109.6263                                         !
 ! A187  A(99,97,101)          112.2243                                         !
 ! A188  A(97,101,102)         115.9354                                         !
 ! A189  A(97,101,105)         120.1885                                         !
 ! A190  A(102,101,105)        123.6427                                         !
 ! A191  A(101,102,103)        115.3707                                         !
 ! A192  A(101,102,104)        118.075                                          !
 ! A193  A(103,102,104)        113.4532                                         !
 ! A194  A(96,106,107)         119.0246                                         !
 ! A195  A(96,106,108)         119.7857                                         !
 ! A196  A(107,106,108)        119.6559                                         !
 ! A197  A(106,108,109)        106.7138                                         !
 ! A198  A(106,108,110)        113.0522                                         !
 ! A199  A(106,108,111)        110.8738                                         !
 ! A200  A(109,108,110)        109.0667                                         !
 ! A201  A(109,108,111)        108.6671                                         !
 ! A202  A(110,108,111)        108.3696                                         !
 ! A203  A(108,110,114)        121.4734                                         !
 ! A204  A(108,110,127)        114.2058                                         !
 ! A205  A(114,110,127)        124.1169                                         !
 ! A206  A(108,111,112)        108.3608                                         !
 ! A207  A(108,111,113)        108.7024                                         !
 ! A208  A(108,111,115)        110.0551                                         !
 ! A209  A(112,111,113)        108.0238                                         !
 ! A210  A(112,111,115)        111.8843                                         !
 ! A211  A(113,111,115)        109.7347                                         !
 ! A212  A(111,115,116)        120.4772                                         !
 ! A213  A(111,115,118)        120.7753                                         !
 ! A214  A(116,115,118)        118.3221                                         !
 ! A215  A(115,116,117)        119.3975                                         !
 ! A216  A(115,116,120)        121.1734                                         !
 ! A217  A(117,116,120)        119.4129                                         !
 ! A218  A(115,118,119)        120.1376                                         !
 ! A219  A(115,118,122)        121.1552                                         !
 ! A220  A(119,118,122)        118.636                                          !
 ! A221  A(116,120,121)        121.0847                                         !
 ! A222  A(116,120,126)        119.5017                                         !
 ! A223  A(121,120,126)        119.4135                                         !
 ! A224  A(118,122,123)        119.9363                                         !
 ! A225  A(118,122,126)        119.4522                                         !
 ! A226  A(123,122,126)        120.5668                                         !
 ! A227  A(125,124,126)        109.13                                           !
 ! A228  A(120,126,122)        120.3639                                         !
 ! A229  A(120,126,124)        116.9223                                         !
 ! A230  A(122,126,124)        122.7028                                         !
 ! A231  A(110,127,128)        121.2378                                         !
 ! A232  A(110,127,129)        123.2944                                         !
 ! A233  A(128,127,129)        112.0704                                         !
 ! A234  A(127,129,130)        106.5523                                         !
 ! A235  A(127,129,131)        107.3671                                         !
 ! A236  A(127,129,132)        112.9816                                         !
 ! A237  A(130,129,131)        105.612                                          !
 ! A238  A(130,129,132)        108.3                                            !
 ! A239  A(131,129,132)        115.433                                          !
 ! A240  A(129,131,135)        117.4644                                         !
 ! A241  A(129,131,151)        115.4325                                         !
 ! A242  A(135,131,151)        127.0104                                         !
 ! A243  A(129,132,133)        107.497                                          !
 ! A244  A(129,132,134)        109.7971                                         !
 ! A245  A(129,132,136)        113.5757                                         !
 ! A246  A(133,132,134)        106.7784                                         !
 ! A247  A(133,132,136)        108.7332                                         !
 ! A248  A(134,132,136)        110.194                                          !
 ! A249  A(132,136,137)        108.0912                                         !
 ! A250  A(132,136,138)        110.168                                          !
 ! A251  A(132,136,139)        113.4417                                         !
 ! A252  A(137,136,138)        106.5508                                         !
 ! A253  A(137,136,139)        111.3298                                         !
 ! A254  A(138,136,139)        107.0464                                         !
 ! A255  A(136,139,140)        111.8972                                         !
 ! A256  A(136,139,141)        109.6154                                         !
 ! A257  A(136,139,142)        112.8524                                         !
 ! A258  A(140,139,141)        106.0727                                         !
 ! A259  A(140,139,142)        110.2566                                         !
 ! A260  A(141,139,142)        105.7382                                         !
 ! A261  A(139,142,143)        115.1871                                         !
 ! A262  A(139,142,150)        126.8953                                         !
 ! A263  A(143,142,150)        110.646                                          !
 ! A264  A(145,144,146)        116.4339                                         !
 ! A265  A(145,144,150)        119.15                                           !
 ! A266  A(146,144,150)        119.7438                                         !
 ! A267  A(148,147,149)        114.5693                                         !
 ! A268  A(148,147,150)        119.6839                                         !
 ! A269  A(149,147,150)        113.243                                          !
 ! A270  A(142,150,144)        122.3666                                         !
 ! A271  A(142,150,147)        117.905                                          !
 ! A272  A(144,150,147)        119.6098                                         !
 ! D1    D(2,1,5,6)              6.3767                                         !
 ! D2    D(2,1,5,7)           -110.4836                                         !
 ! D3    D(2,1,5,8)            127.8585                                         !
 ! D4    D(3,1,5,6)            123.9117                                         !
 ! D5    D(3,1,5,7)              7.0514                                         !
 ! D6    D(3,1,5,8)           -114.6065                                         !
 ! D7    D(4,1,5,6)           -117.7014                                         !
 ! D8    D(4,1,5,7)            125.4383                                         !
 ! D9    D(4,1,5,8)              3.7803                                         !
 ! D10   D(1,5,7,10)            -7.6233                                         !
 ! D11   D(1,5,7,19)           173.3674                                         !
 ! D12   D(6,5,7,10)          -122.2462                                         !
 ! D13   D(6,5,7,19)            58.7445                                         !
 ! D14   D(8,5,7,10)           113.183                                          !
 ! D15   D(8,5,7,19)           -65.8263                                         !
 ! D16   D(1,5,8,9)            177.734                                          !
 ! D17   D(1,5,8,11)           -65.9733                                         !
 ! D18   D(1,5,8,15)            60.9563                                         !
 ! D19   D(6,5,8,9)            -62.3145                                         !
 ! D20   D(6,5,8,11)            53.9782                                         !
 ! D21   D(6,5,8,15)          -179.0922                                         !
 ! D22   D(7,5,8,9)             62.5014                                         !
 ! D23   D(7,5,8,11)           178.794                                          !
 ! D24   D(7,5,8,15)           -54.2763                                         !
 ! D25   D(5,7,19,20)            5.8983                                         !
 ! D26   D(5,7,19,21)          169.9717                                         !
 ! D27   D(10,7,19,20)        -173.0157                                         !
 ! D28   D(10,7,19,21)          -8.9422                                         !
 ! D29   D(5,8,11,12)           67.7131                                         !
 ! D30   D(5,8,11,13)         -173.873                                          !
 ! D31   D(5,8,11,14)          -54.0314                                         !
 ! D32   D(9,8,11,12)         -177.8498                                         !
 ! D33   D(9,8,11,13)          -59.4359                                         !
 ! D34   D(9,8,11,14)           60.4057                                         !
 ! D35   D(15,8,11,12)         -59.3248                                         !
 ! D36   D(15,8,11,13)          59.089                                          !
 ! D37   D(15,8,11,14)         178.9306                                         !
 ! D38   D(5,8,15,16)          -66.2741                                         !
 ! D39   D(5,8,15,17)           55.6095                                         !
 ! D40   D(5,8,15,18)          175.3993                                         !
 ! D41   D(9,8,15,16)          178.7312                                         !
 ! D42   D(9,8,15,17)          -59.3852                                         !
 ! D43   D(9,8,15,18)           60.4047                                         !
 ! D44   D(11,8,15,16)          60.1798                                         !
 ! D45   D(11,8,15,17)        -177.9367                                         !
 ! D46   D(11,8,15,18)         -58.1468                                         !
 ! D47   D(7,19,21,22)         -14.6612                                         !
 ! D48   D(7,19,21,23)        -133.9635                                         !
 ! D49   D(7,19,21,24)         106.4139                                         !
 ! D50   D(20,19,21,22)        150.7171                                         !
 ! D51   D(20,19,21,23)         31.4148                                         !
 ! D52   D(20,19,21,24)        -88.2079                                         !
 ! D53   D(19,21,23,26)        -32.2122                                         !
 ! D54   D(19,21,23,38)        148.5876                                         !
 ! D55   D(22,21,23,26)       -148.6199                                         !
 ! D56   D(22,21,23,38)         32.1799                                         !
 ! D57   D(24,21,23,26)         87.7455                                         !
 ! D58   D(24,21,23,38)        -91.4547                                         !
 ! D59   D(19,21,24,25)         59.567                                          !
 ! D60   D(19,21,24,27)        -57.8531                                         !
 ! D61   D(19,21,24,30)        177.4926                                         !
 ! D62   D(22,21,24,25)        179.5814                                         !
 ! D63   D(22,21,24,27)         62.1613                                         !
 ! D64   D(22,21,24,30)        -62.493                                          !
 ! D65   D(23,21,24,25)        -55.4584                                         !
 ! D66   D(23,21,24,27)       -172.8786                                         !
 ! D67   D(23,21,24,30)         62.4672                                         !
 ! D68   D(21,23,38,39)          8.4208                                         !
 ! D69   D(21,23,38,40)        163.3604                                         !
 ! D70   D(26,23,38,39)       -170.7328                                         !
 ! D71   D(26,23,38,40)        -15.7932                                         !
 ! D72   D(21,24,27,28)         50.8883                                         !
 ! D73   D(21,24,27,29)        -64.6855                                         !
 ! D74   D(21,24,27,34)        171.9672                                         !
 ! D75   D(25,24,27,28)        -65.3443                                         !
 ! D76   D(25,24,27,29)        179.0819                                         !
 ! D77   D(25,24,27,34)         55.7346                                         !
 ! D78   D(30,24,27,28)        175.2157                                         !
 ! D79   D(30,24,27,29)         59.6419                                         !
 ! D80   D(30,24,27,34)        -63.7054                                         !
 ! D81   D(21,24,30,31)         60.6561                                         !
 ! D82   D(21,24,30,32)        -61.4079                                         !
 ! D83   D(21,24,30,33)        179.3738                                         !
 ! D84   D(25,24,30,31)        177.3578                                         !
 ! D85   D(25,24,30,32)         55.2938                                         !
 ! D86   D(25,24,30,33)        -63.9246                                         !
 ! D87   D(27,24,30,31)        -63.2581                                         !
 ! D88   D(27,24,30,32)        174.6779                                         !
 ! D89   D(27,24,30,33)         55.4595                                         !
 ! D90   D(24,27,34,35)       -174.373                                          !
 ! D91   D(24,27,34,36)        -54.7959                                         !
 ! D92   D(24,27,34,37)         65.918                                          !
 ! D93   D(28,27,34,35)        -52.842                                          !
 ! D94   D(28,27,34,36)         66.7351                                         !
 ! D95   D(28,27,34,37)       -172.551                                          !
 ! D96   D(29,27,34,35)         62.8564                                         !
 ! D97   D(29,27,34,36)       -177.5665                                         !
 ! D98   D(29,27,34,37)        -56.8526                                         !
 ! D99   D(23,38,40,41)         41.3907                                         !
 ! D100  D(23,38,40,42)        -76.7824                                         !
 ! D101  D(23,38,40,43)        161.9124                                         !
 ! D102  D(39,38,40,41)       -163.1175                                         !
 ! D103  D(39,38,40,42)         78.7093                                         !
 ! D104  D(39,38,40,43)        -42.5959                                         !
 ! D105  D(38,40,42,46)        -86.119                                          !
 ! D106  D(38,40,42,58)         86.2272                                         !
 ! D107  D(41,40,42,46)        158.9383                                         !
 ! D108  D(41,40,42,58)        -28.7155                                         !
 ! D109  D(43,40,42,46)         34.1762                                         !
 ! D110  D(43,40,42,58)       -153.4776                                         !
 ! D111  D(38,40,43,44)         75.5105                                         !
 ! D112  D(38,40,43,45)        -41.1106                                         !
 ! D113  D(38,40,43,47)       -162.0209                                         !
 ! D114  D(41,40,43,44)       -166.1979                                         !
 ! D115  D(41,40,43,45)         77.181                                          !
 ! D116  D(41,40,43,47)        -43.7293                                         !
 ! D117  D(42,40,43,44)        -40.9247                                         !
 ! D118  D(42,40,43,45)       -157.5458                                         !
 ! D119  D(42,40,43,47)         81.5439                                         !
 ! D120  D(40,42,58,59)          3.6088                                         !
 ! D121  D(40,42,58,60)       -163.2936                                         !
 ! D122  D(46,42,58,59)        175.7372                                         !
 ! D123  D(46,42,58,60)          8.8348                                         !
 ! D124  D(40,43,47,48)        -72.8468                                         !
 ! D125  D(40,43,47,50)        104.8401                                         !
 ! D126  D(44,43,47,48)         47.7806                                         !
 ! D127  D(44,43,47,50)       -134.5326                                         !
 ! D128  D(45,43,47,48)        167.3023                                         !
 ! D129  D(45,43,47,50)        -15.0108                                         !
 ! D130  D(43,47,48,49)         -4.8314                                         !
 ! D131  D(43,47,48,52)        175.9304                                         !
 ! D132  D(50,47,48,49)        177.4574                                         !
 ! D133  D(50,47,48,52)         -1.7809                                         !
 ! D134  D(43,47,50,51)          2.8554                                         !
 ! D135  D(43,47,50,54)       -177.5553                                         !
 ! D136  D(48,47,50,51)       -179.4036                                         !
 ! D137  D(48,47,50,54)          0.1856                                         !
 ! D138  D(47,48,52,53)       -179.4228                                         !
 ! D139  D(47,48,52,56)          1.8976                                         !
 ! D140  D(49,48,52,53)          1.3337                                         !
 ! D141  D(49,48,52,56)       -177.3459                                         !
 ! D142  D(47,50,54,55)       -179.0844                                         !
 ! D143  D(47,50,54,56)          1.3198                                         !
 ! D144  D(51,50,54,55)          0.5036                                         !
 ! D145  D(51,50,54,56)       -179.0921                                         !
 ! D146  D(48,52,56,54)         -0.383                                          !
 ! D147  D(48,52,56,57)        177.9185                                         !
 ! D148  D(53,52,56,54)       -179.0608                                         !
 ! D149  D(53,52,56,57)         -0.7593                                         !
 ! D150  D(50,54,56,52)         -1.2163                                         !
 ! D151  D(50,54,56,57)       -179.5337                                         !
 ! D152  D(55,54,56,52)        179.1866                                         !
 ! D153  D(55,54,56,57)          0.8692                                         !
 ! D154  D(42,58,60,61)         24.4366                                         !
 ! D155  D(42,58,60,62)        -91.9986                                         !
 ! D156  D(42,58,60,63)        144.6808                                         !
 ! D157  D(59,58,60,61)       -142.5579                                         !
 ! D158  D(59,58,60,62)        101.007                                          !
 ! D159  D(59,58,60,63)        -22.3136                                         !
 ! D160  D(58,60,62,66)       -111.1801                                         !
 ! D161  D(58,60,62,77)         67.0956                                         !
 ! D162  D(61,60,62,66)        133.9452                                         !
 ! D163  D(61,60,62,77)        -47.7791                                         !
 ! D164  D(63,60,62,66)         10.9321                                         !
 ! D165  D(63,60,62,77)       -170.7922                                         !
 ! D166  D(58,60,63,64)         73.4016                                         !
 ! D167  D(58,60,63,65)        -42.9462                                         !
 ! D168  D(58,60,63,67)       -165.0605                                         !
 ! D169  D(61,60,63,64)       -169.6636                                         !
 ! D170  D(61,60,63,65)         73.9886                                         !
 ! D171  D(61,60,63,67)        -48.1257                                         !
 ! D172  D(62,60,63,64)        -48.3269                                         !
 ! D173  D(62,60,63,65)       -164.6747                                         !
 ! D174  D(62,60,63,67)         73.211                                          !
 ! D175  D(60,62,77,78)         -3.7697                                         !
 ! D176  D(60,62,77,79)       -162.5468                                         !
 ! D177  D(66,62,77,78)        174.4597                                         !
 ! D178  D(66,62,77,79)         15.6826                                         !
 ! D179  D(60,63,67,68)        -51.9496                                         !
 ! D180  D(60,63,67,69)         67.6797                                         !
 ! D181  D(60,63,67,73)       -169.1696                                         !
 ! D182  D(64,63,67,68)         68.908                                          !
 ! D183  D(64,63,67,69)       -171.4626                                         !
 ! D184  D(64,63,67,73)        -48.312                                          !
 ! D185  D(65,63,67,68)       -173.6548                                         !
 ! D186  D(65,63,67,69)        -54.0255                                         !
 ! D187  D(65,63,67,73)         69.1252                                         !
 ! D188  D(63,67,69,70)         60.7841                                         !
 ! D189  D(63,67,69,71)        -59.7993                                         !
 ! D190  D(63,67,69,72)        179.9744                                         !
 ! D191  D(68,67,69,70)        179.5679                                         !
 ! D192  D(68,67,69,71)         58.9845                                         !
 ! D193  D(68,67,69,72)        -61.2418                                         !
 ! D194  D(73,67,69,70)        -62.033                                          !
 ! D195  D(73,67,69,71)        177.3836                                         !
 ! D196  D(73,67,69,72)         57.1573                                         !
 ! D197  D(63,67,73,74)        -61.1405                                         !
 ! D198  D(63,67,73,75)        179.2365                                         !
 ! D199  D(63,67,73,76)         58.9344                                         !
 ! D200  D(68,67,73,74)       -178.0482                                         !
 ! D201  D(68,67,73,75)         62.3288                                         !
 ! D202  D(68,67,73,76)        -57.9732                                         !
 ! D203  D(69,67,73,74)         62.9805                                         !
 ! D204  D(69,67,73,75)        -56.6425                                         !
 ! D205  D(69,67,73,76)       -176.9446                                         !
 ! D206  D(62,77,79,80)        -59.9179                                         !
 ! D207  D(62,77,79,81)        179.8426                                         !
 ! D208  D(62,77,79,82)         61.0925                                         !
 ! D209  D(78,77,79,80)        140.4869                                         !
 ! D210  D(78,77,79,81)         20.2473                                         !
 ! D211  D(78,77,79,82)        -98.5028                                         !
 ! D212  D(77,79,81,85)        -28.9623                                         !
 ! D213  D(77,79,81,92)        153.8211                                         !
 ! D214  D(80,79,81,85)       -148.0322                                         !
 ! D215  D(80,79,81,92)         34.7513                                         !
 ! D216  D(82,79,81,85)         89.6294                                         !
 ! D217  D(82,79,81,92)        -87.5871                                         !
 ! D218  D(77,79,82,83)         59.6625                                         !
 ! D219  D(77,79,82,84)        -55.3512                                         !
 ! D220  D(77,79,82,86)       -177.3369                                         !
 ! D221  D(80,79,82,83)       -179.5626                                         !
 ! D222  D(80,79,82,84)         65.4237                                         !
 ! D223  D(80,79,82,86)        -56.562                                          !
 ! D224  D(81,79,82,83)        -56.4076                                         !
 ! D225  D(81,79,82,84)       -171.4213                                         !
 ! D226  D(81,79,82,86)         66.593                                          !
 ! D227  D(79,81,92,93)          9.1191                                         !
 ! D228  D(79,81,92,94)        160.9147                                         !
 ! D229  D(85,81,92,93)       -168.0854                                         !
 ! D230  D(85,81,92,94)        -16.2897                                         !
 ! D231  D(79,82,86,87)        -57.8169                                         !
 ! D232  D(79,82,86,88)         63.2053                                         !
 ! D233  D(79,82,86,89)       -174.6315                                         !
 ! D234  D(83,82,86,87)         64.4986                                         !
 ! D235  D(83,82,86,88)       -174.4792                                         !
 ! D236  D(83,82,86,89)        -52.316                                          !
 ! D237  D(84,82,86,87)       -178.4218                                         !
 ! D238  D(84,82,86,88)        -57.3996                                         !
 ! D239  D(84,82,86,89)         64.7636                                         !
 ! D240  D(82,86,89,90)         12.7779                                         !
 ! D241  D(82,86,89,91)       -169.1041                                         !
 ! D242  D(87,86,89,90)       -107.7044                                         !
 ! D243  D(87,86,89,91)         70.4136                                         !
 ! D244  D(88,86,89,90)        136.9087                                         !
 ! D245  D(88,86,89,91)        -44.9733                                         !
 ! D246  D(86,89,91,152)      -176.9757                                         !
 ! D247  D(90,89,91,152)         1.2102                                         !
 ! D248  D(81,92,94,95)         66.8421                                         !
 ! D249  D(81,92,94,96)        -52.7732                                         !
 ! D250  D(81,92,94,97)       -172.9963                                         !
 ! D251  D(93,92,94,95)       -141.2519                                         !
 ! D252  D(93,92,94,96)         99.1328                                         !
 ! D253  D(93,92,94,97)        -21.0903                                         !
 ! D254  D(92,94,96,100)       -41.3146                                         !
 ! D255  D(92,94,96,106)       140.7247                                         !
 ! D256  D(95,94,96,100)      -160.3958                                         !
 ! D257  D(95,94,96,106)        21.6435                                         !
 ! D258  D(97,94,96,100)        80.7425                                         !
 ! D259  D(97,94,96,106)       -97.2183                                         !
 ! D260  D(92,94,97,98)        -67.8088                                         !
 ! D261  D(92,94,97,99)         52.3951                                         !
 ! D262  D(92,94,97,101)       173.8313                                         !
 ! D263  D(95,94,97,98)         52.3811                                         !
 ! D264  D(95,94,97,99)        172.5851                                         !
 ! D265  D(95,94,97,101)       -65.9788                                         !
 ! D266  D(96,94,97,98)        171.8109                                         !
 ! D267  D(96,94,97,99)        -67.9851                                         !
 ! D268  D(96,94,97,101)        53.4511                                         !
 ! D269  D(94,96,106,107)       12.3985                                         !
 ! D270  D(94,96,106,108)      178.2306                                         !
 ! D271  D(100,96,106,107)    -165.5105                                         !
 ! D272  D(100,96,106,108)       0.3216                                         !
 ! D273  D(94,97,101,102)     -108.5726                                         !
 ! D274  D(94,97,101,105)       66.0772                                         !
 ! D275  D(98,97,101,102)      132.8406                                         !
 ! D276  D(98,97,101,105)      -52.5095                                         !
 ! D277  D(99,97,101,102)       11.3741                                         !
 ! D278  D(99,97,101,105)     -173.976                                          !
 ! D279  D(97,101,102,103)     151.805                                          !
 ! D280  D(97,101,102,104)      13.027                                          !
 ! D281  D(105,101,102,103)    -22.6394                                         !
 ! D282  D(105,101,102,104)   -161.4174                                         !
 ! D283  D(96,106,108,109)      48.1901                                         !
 ! D284  D(96,106,108,110)     -71.7081                                         !
 ! D285  D(96,106,108,111)     166.3653                                         !
 ! D286  D(107,106,108,109)   -146.0677                                         !
 ! D287  D(107,106,108,110)     94.0341                                         !
 ! D288  D(107,106,108,111)    -27.8925                                         !
 ! D289  D(106,108,110,114)    -56.8538                                         !
 ! D290  D(106,108,110,127)    128.1327                                         !
 ! D291  D(109,108,110,114)   -175.394                                          !
 ! D292  D(109,108,110,127)      9.5925                                         !
 ! D293  D(111,108,110,114)     66.4676                                         !
 ! D294  D(111,108,110,127)   -108.5459                                         !
 ! D295  D(106,108,111,112)    -63.7743                                         !
 ! D296  D(106,108,111,113)     53.3896                                         !
 ! D297  D(106,108,111,115)    173.5938                                         !
 ! D298  D(109,108,111,112)     53.208                                          !
 ! D299  D(109,108,111,113)    170.3719                                         !
 ! D300  D(109,108,111,115)    -69.4239                                         !
 ! D301  D(110,108,111,112)    171.6004                                         !
 ! D302  D(110,108,111,113)    -71.2356                                         !
 ! D303  D(110,108,111,115)     48.9686                                         !
 ! D304  D(108,110,127,128)      2.0159                                         !
 ! D305  D(108,110,127,129)    159.5461                                         !
 ! D306  D(114,110,127,128)   -172.8467                                         !
 ! D307  D(114,110,127,129)    -15.3165                                         !
 ! D308  D(108,111,115,116)   -107.8986                                         !
 ! D309  D(108,111,115,118)     64.4905                                         !
 ! D310  D(112,111,115,116)    131.5699                                         !
 ! D311  D(112,111,115,118)    -56.041                                          !
 ! D312  D(113,111,115,116)     11.6795                                         !
 ! D313  D(113,111,115,118)   -175.9313                                         !
 ! D314  D(111,115,116,117)     -5.8255                                         !
 ! D315  D(111,115,116,120)    172.7051                                         !
 ! D316  D(118,115,116,117)   -178.3982                                         !
 ! D317  D(118,115,116,120)      0.1324                                         !
 ! D318  D(111,115,118,119)      5.6822                                         !
 ! D319  D(111,115,118,122)   -171.2091                                         !
 ! D320  D(116,115,118,119)    178.2319                                         !
 ! D321  D(116,115,118,122)      1.3406                                         !
 ! D322  D(115,116,120,121)    178.5574                                         !
 ! D323  D(115,116,120,126)     -1.5376                                         !
 ! D324  D(117,116,120,121)     -2.9122                                         !
 ! D325  D(117,116,120,126)    176.9928                                         !
 ! D326  D(115,118,122,123)    176.198                                          !
 ! D327  D(115,118,122,126)     -1.3836                                         !
 ! D328  D(119,118,122,123)     -0.7389                                         !
 ! D329  D(119,118,122,126)   -178.3205                                         !
 ! D330  D(116,120,126,122)      1.4962                                         !
 ! D331  D(116,120,126,124)   -177.3304                                         !
 ! D332  D(121,120,126,122)   -178.5972                                         !
 ! D333  D(121,120,126,124)      2.5762                                         !
 ! D334  D(118,122,126,120)     -0.0575                                         !
 ! D335  D(118,122,126,124)    178.6991                                         !
 ! D336  D(123,122,126,120)   -177.6235                                         !
 ! D337  D(123,122,126,124)      1.1332                                         !
 ! D338  D(125,124,126,120)   -178.9821                                         !
 ! D339  D(125,124,126,122)      2.221                                          !
 ! D340  D(110,127,129,130)    -48.7999                                         !
 ! D341  D(110,127,129,131)   -161.5751                                         !
 ! D342  D(110,127,129,132)     70.0066                                         !
 ! D343  D(128,127,129,130)    110.5521                                         !
 ! D344  D(128,127,129,131)     -2.2232                                         !
 ! D345  D(128,127,129,132)   -130.6414                                         !
 ! D346  D(127,129,131,135)      5.585                                          !
 ! D347  D(127,129,131,151)   -177.6675                                         !
 ! D348  D(130,129,131,135)   -107.8261                                         !
 ! D349  D(130,129,131,151)     68.9214                                         !
 ! D350  D(132,129,131,135)    132.5775                                         !
 ! D351  D(132,129,131,151)    -50.675                                          !
 ! D352  D(127,129,132,133)      6.5069                                         !
 ! D353  D(127,129,132,134)    122.3025                                         !
 ! D354  D(127,129,132,136)   -113.8228                                         !
 ! D355  D(130,129,132,133)    124.2943                                         !
 ! D356  D(130,129,132,134)   -119.91                                           !
 ! D357  D(130,129,132,136)      3.9647                                         !
 ! D358  D(131,129,132,133)   -117.597                                          !
 ! D359  D(131,129,132,134)     -1.8013                                         !
 ! D360  D(131,129,132,136)    122.0733                                         !
 ! D361  D(129,132,136,137)     40.8025                                         !
 ! D362  D(129,132,136,138)    156.8581                                         !
 ! D363  D(129,132,136,139)    -83.1652                                         !
 ! D364  D(133,132,136,137)    -78.826                                          !
 ! D365  D(133,132,136,138)     37.2295                                         !
 ! D366  D(133,132,136,139)    157.2062                                         !
 ! D367  D(134,132,136,137)    164.4611                                         !
 ! D368  D(134,132,136,138)    -79.4833                                         !
 ! D369  D(134,132,136,139)     40.4934                                         !
 ! D370  D(132,136,139,140)    170.2573                                         !
 ! D371  D(132,136,139,141)    -72.3548                                         !
 ! D372  D(132,136,139,142)     45.205                                          !
 ! D373  D(137,136,139,140)     48.0713                                         !
 ! D374  D(137,136,139,141)    165.4592                                         !
 ! D375  D(137,136,139,142)    -76.9809                                         !
 ! D376  D(138,136,139,140)    -68.0067                                         !
 ! D377  D(138,136,139,141)     49.3812                                         !
 ! D378  D(138,136,139,142)    166.9411                                         !
 ! D379  D(136,139,142,143)    -61.302                                          !
 ! D380  D(136,139,142,150)     85.865                                          !
 ! D381  D(140,139,142,143)    172.7592                                         !
 ! D382  D(140,139,142,150)    -40.0738                                         !
 ! D383  D(141,139,142,143)     58.5164                                         !
 ! D384  D(141,139,142,150)   -154.3166                                         !
 ! D385  D(139,142,150,144)     15.534                                          !
 ! D386  D(139,142,150,147)   -168.4441                                         !
 ! D387  D(143,142,150,144)    163.9119                                         !
 ! D388  D(143,142,150,147)    -20.0662                                         !
 ! D389  D(145,144,150,142)   -175.2231                                         !
 ! D390  D(145,144,150,147)      8.8206                                         !
 ! D391  D(146,144,150,142)    -20.2972                                         !
 ! D392  D(146,144,150,147)    163.7465                                         !
 ! D393  D(148,147,150,142)    157.2198                                         !
 ! D394  D(148,147,150,144)    -26.6448                                         !
 ! D395  D(149,147,150,142)     17.2513                                         !
 ! D396  D(149,147,150,144)   -166.6133                                         !
 --------------------------------------------------------------------------------
 Symmetry turned off by external request.
 Stoichiometry    C50H77N12O13(1+)
 Framework group  C1[X(C50H77N12O13)]
 Deg. of freedom   450
 Full point group                 C1      NOp   1
                          Input orientation:                          
 ---------------------------------------------------------------------
 Center     Atomic      Atomic             Coordinates (Angstroms)
 Number     Number       Type             X           Y           Z
 ---------------------------------------------------------------------
      1          7           0       -6.266963   -2.320074    7.700556
[...]
 Alpha virt. eigenvalues --    1.87957   1.88142   1.88218   1.88344   1.88537
 Alpha virt. eigenvalues --    1.89107   1.89340   1.89726   1.89828   1.90114
 Alpha virt. eigenvalues --    1.90340   1.90804   1.90920   1.90996   1.91342
 Alpha virt. eigenvalues --    1.91553   1.91797   1.92427   1.92674   1.92883
 Alpha virt. eigenvalues --    1.93257   1.93520   1.93754   1.93802   1.94165
 Alpha virt. eigenvalues --    1.94559   1.94839   1.95012   1.95141   1.95171
 Alpha virt. eigenvalues --    1.95394   1.96054   1.96140   1.96462   1.96904
 Alpha virt. eigenvalues --    1.97414   1.97500   1.97686   1.98101   1.98225
 Alpha virt. eigenvalues --    1.99061   1.99529   1.99777   2.00413   2.00710
 Alpha virt. eigenvalues --    2.00894   2.01055   2.01438   2.01657   2.02089
 Alpha virt. eigenvalues --    2.02570   2.02819   2.03064   2.03751   2.03823
 Alpha virt. eigenvalues --    2.04208   2.04413   2.04567   2.05052   2.05517
 Alpha virt. eigenvalues --    2.05654   2.06078   2.06306   2.06655   2.06889
 Alpha virt. eigenvalues --    2.07644   2.08048   2.08147   2.08602   2.08824
 Alpha virt. eigenvalues --    2.09099   2.09334   2.09481   2.10127   2.10782
 Alpha virt. eigenvalues --    2.10963   2.11185   2.11536   2.11871   2.12035
 Alpha virt. eigenvalues --    2.12607   2.12901   2.13096   2.13506   2.14119
 Alpha virt. eigenvalues --    2.15073   2.16051   2.16599   2.17656   2.18105
 Alpha virt. eigenvalues --    2.18456   2.19053   2.19393   2.19567   2.19725
 Alpha virt. eigenvalues --    2.19792   2.20023   2.20297   2.20715   2.21176
 Alpha virt. eigenvalues --    2.21384   2.21509   2.21767   2.23199   2.23244
 Alpha virt. eigenvalues --    2.23514   2.23992   2.24075   2.24865   2.25089
 Alpha virt. eigenvalues --    2.25313   2.25758   2.26020   2.26302   2.26431
 Alpha virt. eigenvalues --    2.26779   2.27116   2.27228   2.27553   2.27697
 Alpha virt. eigenvalues --    2.28188   2.29217   2.29387   2.29642   2.30719
 Alpha virt. eigenvalues --    2.30867   2.31374   2.32079   2.32776   2.33295
 Alpha virt. eigenvalues --    2.33515   2.34207   2.34467   2.34665   2.35018
 Alpha virt. eigenvalues --    2.35683   2.36291   2.36416   2.36800   2.37332
 Alpha virt. eigenvalues --    2.37609   2.38655   2.38949   2.39190   2.39629
 Alpha virt. eigenvalues --    2.39965   2.40477   2.40595   2.40896   2.41393
 Alpha virt. eigenvalues --    2.41759   2.42310   2.42935   2.43178   2.44025
 Alpha virt. eigenvalues --    2.44351   2.44831   2.45166   2.45460   2.45912
 Alpha virt. eigenvalues --    2.46354   2.46545   2.47098   2.47512   2.47858
 Alpha virt. eigenvalues --    2.48639   2.48887   2.49631   2.49743   2.51434
 Alpha virt. eigenvalues --    2.51865   2.51932   2.52995   2.53665   2.54770
 Alpha virt. eigenvalues --    2.55091   2.55163   2.55794   2.56055   2.56535
 Alpha virt. eigenvalues --    2.57160   2.57312   2.57771   2.58181   2.58402
 Alpha virt. eigenvalues --    2.58734   2.59069   2.59617   2.60117   2.60966
 Alpha virt. eigenvalues --    2.61483   2.61685   2.62157   2.62609   2.62735
 Alpha virt. eigenvalues --    2.63068   2.63357   2.64310   2.64443   2.65232
 Alpha virt. eigenvalues --    2.65452   2.66265   2.66451   2.67445   2.67836
 Alpha virt. eigenvalues --    2.68494   2.68954   2.69281   2.69352   2.69827
 Alpha virt. eigenvalues --    2.70139   2.70486   2.70815   2.71088   2.71457
 Alpha virt. eigenvalues --    2.72173   2.72433   2.73243   2.74088   2.74961
 Alpha virt. eigenvalues --    2.75724   2.76192   2.77490   2.79073   2.80382
 Alpha virt. eigenvalues --    2.80807   2.81448   2.82837   2.83556   2.83682
 Alpha virt. eigenvalues --    2.84422   2.85106   2.85666   2.86836   2.88186
 Alpha virt. eigenvalues --    2.89165   2.90788   2.90949   2.91270   2.91827
 Alpha virt. eigenvalues --    2.93116   2.94087   2.94719   2.95626   2.96064
 Alpha virt. eigenvalues --    2.97296   2.98078   2.98424   2.99892   3.00398
 Alpha virt. eigenvalues --    3.01981   3.02054   3.03247   3.03574   3.04035
 Alpha virt. eigenvalues --    3.04945   3.06995   3.07938   3.08166   3.10935
 Alpha virt. eigenvalues --    3.11013   3.12234   3.14613   3.16027   3.20282
 Alpha virt. eigenvalues --    3.37012   3.37181   3.63725   3.75358   3.80648
 Alpha virt. eigenvalues --    3.81710   3.87161   3.92514   3.94055   3.94615
 Alpha virt. eigenvalues --    3.95876   3.96967   3.97790   3.98122   3.99872
 Alpha virt. eigenvalues --    4.01665   4.03397   4.06871   4.06927   4.07409
 Alpha virt. eigenvalues --    4.07878   4.08511   4.09155   4.10990   4.11386
 Alpha virt. eigenvalues --    4.12961   4.13143   4.13282   4.15145   4.15991
 Alpha virt. eigenvalues --    4.16250   4.16533   4.17303   4.18623   4.19865
 Alpha virt. eigenvalues --    4.20680   4.22666   4.24004   4.24222   4.24766
 Alpha virt. eigenvalues --    4.25520   4.26877   4.27330   4.27820   4.28445
 Alpha virt. eigenvalues --    4.30491   4.31924   4.32877   4.33834   4.35371
 Alpha virt. eigenvalues --    4.36006   4.37195   4.38429   4.38969   4.39378
 Alpha virt. eigenvalues --    4.40942   4.42613   4.43162   4.44197   4.45243
 Alpha virt. eigenvalues --    4.46288   4.46727   4.48183   4.49773   4.50687
 Alpha virt. eigenvalues --    4.55626   4.57656   4.58280   4.59538   4.61503
 Alpha virt. eigenvalues --    4.63094   4.66752   4.67658   4.69867   4.71472
 Alpha virt. eigenvalues --    4.72545   4.80280
          Condensed to atoms (all electrons):
 Mulliken charges:
               1
     1  N   -0.762459
     2  H    0.417656
     3  H    0.436015
     4  H    0.411038
     5  C   -0.103693
     6  H    0.215471
     7  C    0.651696
     8  C   -0.127751
     9  H    0.193149
    10  O   -0.544778
    11  C   -0.463472
    12  H    0.139731
    13  H    0.202872
    14  H    0.174082
    15  C   -0.475658
    16  H    0.142296
    17  H    0.186408
    18  H    0.201694
    19  N   -0.592925
    20  H    0.371650
    21  C   -0.082215
    22  H    0.184280
    23  C    0.635295
    24  C   -0.078778
    25  H    0.152794
    26  O   -0.558648
    27  C   -0.252005
    28  H    0.118075
    29  H    0.149532
    30  C   -0.505952
    31  H    0.146910
    32  H    0.187884
    33  H    0.184265
    34  C   -0.458685
    35  H    0.157420
    36  H    0.156593
    37  H    0.166212
    38  N   -0.598025
    39  H    0.351645
    40  C   -0.049249
    41  H    0.188098
    42  C    0.639257
    43  C   -0.380482
    44  H    0.185265
    45  H    0.142979
    46  O   -0.547308
    47  C    0.146197
    48  C   -0.223028
    49  H    0.185445
    50  C   -0.186735
    51  H    0.109559
    52  C   -0.171794
    53  H    0.189813
    54  C   -0.148830
    55  H    0.136364
    56  C   -0.141849
    57  H    0.193547
    58  N   -0.598571
    59  H    0.357387
    60  C   -0.073627
    61  H    0.178682
    62  C    0.642493
    63  C   -0.286357
    64  H    0.165650
    65  H    0.120896
    66  O   -0.532748
    67  C   -0.078343
    68  H    0.163217
    69  C   -0.463867
    70  H    0.128821
    71  H    0.149279
    72  H    0.156165
    73  C   -0.444579
    74  H    0.120471
    75  H    0.150065
    76  H    0.158136
    77  N   -0.648058
    78  H    0.397442
    79  C   -0.037801
    80  H    0.163844
    81  C    0.623462
    82  C   -0.282964
    83  H    0.179206
    84  H    0.187853
    85  O   -0.525389
    86  C   -0.400446
    87  H    0.212625
    88  H    0.163927
    89  C    0.595659
    90  O   -0.464900
    91  O   -0.573625
    92  N   -0.609599
    93  H    0.336995
    94  C   -0.019312
    95  H    0.193795
    96  C    0.619382
    97  C   -0.374739
    98  H    0.191618
    99  H    0.152265
   100  O   -0.546712
   101  C    0.553797
   102  N   -0.722059
   103  H    0.374771
   104  H    0.338485
   105  O   -0.513391
   106  N   -0.587933
   107  H    0.356276
   108  C   -0.045504
   109  H    0.184031
   110  C    0.632746
   111  C   -0.378124
   112  H    0.167683
   113  H    0.163233
   114  O   -0.587830
   115  C    0.140675
   116  C   -0.169929
   117  H    0.144446
   118  C   -0.193305
   119  H    0.164590
   120  C   -0.172256
   121  H    0.114283
   122  C   -0.165244
   123  H    0.140464
   124  O   -0.672648
   125  H    0.422722
   126  C    0.339695
   127  N   -0.604432
   128  H    0.373754
   129  C   -0.043184
   130  H    0.148700
   131  C    0.587563
   132  C   -0.280131
   133  H    0.155999
   134  H    0.158155
   135  O   -0.551586
   136  C   -0.279014
   137  H    0.165644
   138  H    0.145652
   139  C   -0.175894
   140  H    0.147915
   141  H    0.180427
   142  N   -0.586297
   143  H    0.405636
   144  N   -0.762276
   145  H    0.364380
   146  H    0.369302
   147  N   -0.787771
   148  H    0.375734
   149  H    0.390053
   150  C    0.743935
   151  O   -0.627454
   152  H    0.410944
 Sum of Mulliken charges =   1.00000
 Mulliken charges with hydrogens summed into heavy atoms:
               1
     1  N    0.502251
     5  C    0.111779
     7  C    0.651696
     8  C    0.065399
    10  O   -0.544778
    11  C    0.053212
    15  C    0.054740
    19  N   -0.221275
    21  C    0.102065
    23  C    0.635295
    24  C    0.074017
    26  O   -0.558648
    27  C    0.015603
    30  C    0.013108
    34  C    0.021540
    38  N   -0.246380
    40  C    0.138849
    42  C    0.639257
    43  C   -0.052238
    46  O   -0.547308
    47  C    0.146197
    48  C   -0.037582
    50  C   -0.077176
    52  C    0.018019
    54  C   -0.012466
    56  C    0.051698
    58  N   -0.241183
    60  C    0.105056
    62  C    0.642493
    63  C    0.000189
    66  O   -0.532748
    67  C    0.084874
    69  C   -0.029603
    73  C   -0.015907
    77  N   -0.250616
    79  C    0.126043
    81  C    0.623462
    82  C    0.084096
    85  O   -0.525389
    86  C   -0.023894
    89  C    0.595659
    90  O   -0.464900
    91  O   -0.162681
    92  N   -0.272604
    94  C    0.174483
    96  C    0.619382
    97  C   -0.030856
   100  O   -0.546712
   101  C    0.553797
   102  N   -0.008803
   105  O   -0.513391
   106  N   -0.231657
   108  C    0.138527
   110  C    0.632746
   111  C   -0.047208
   114  O   -0.587830
   115  C    0.140675
   116  C   -0.025483
   118  C   -0.028715
   120  C   -0.057972
   122  C   -0.024780
   124  O   -0.249927
   126  C    0.339695
   127  N   -0.230678
   129  C    0.105515
   131  C    0.587563
   132  C    0.034024
   135  O   -0.551586
   136  C    0.032282
   139  C    0.152448
   142  N   -0.180661
   144  N   -0.028594
   147  N   -0.021984
   150  C    0.743935
   151  O   -0.627454
 Electronic spatial extent (au):  <R**2>=          97803.3094
 Charge=              1.0000 electrons
 Dipole moment (field-independent basis, Debye):
    X=            -15.0841    Y=            -10.5161    Z=             25.6769  Tot=             31.5820
 Quadrupole moment (field-independent basis, Debye-Ang):
   XX=           -178.1771   YY=           -407.2708   ZZ=           -197.6126
   XY=              8.2466   XZ=           -229.8472   YZ=            -70.0530
 Traceless Quadrupole moment (field-independent basis, Debye-Ang):
   XX=             82.8431   YY=           -146.2506   ZZ=             63.4076
   XY=              8.2466   XZ=           -229.8472   YZ=            -70.0530
 Octapole moment (field-independent basis, Debye-Ang**2):
  XXX=          -1650.2848  YYY=          -1110.9320  ZZZ=           2051.7975  XYY=           -507.3675
  XXY=           -887.8503  XXZ=            433.5470  XZZ=          -1874.9186  YZZ=           -792.0203
  YYZ=            -24.0552  XYZ=            289.2745
 Hexadecapole moment (field-independent basis, Debye-Ang**3):
 XXXX=         -59718.4188 YYYY=         -17414.4756 ZZZZ=         -16536.1075 XXXY=          -1275.3836
 XXXZ=           1449.3089 YYYX=            927.1811 YYYZ=           2624.5215 ZZZX=           3756.1633
 ZZZY=           -271.7482 XXYY=         -14062.2007 XXZZ=          -7852.7952 YYZZ=          -6476.4460
 XXYZ=           -604.3001 YYXZ=           3917.3242 ZZXY=           2313.9388
 N-N= 1.352507367982D+04 E-N=-3.537054520377D+04  KE= 3.553619257559D+03
 Unable to Open any file for archive entry.
 1\1\GINC-QML-003\SP\RB3LYP\6-31G(d)\C50H77N12O13(1+)\KENGMITH\13-Aug-2
 022\0\\# B3LYP/6-31G* empiricaldispersion=gd3 guess=read geom=check no
 symm integral(ultrafinegrid)\\Candidate Structure: Conf:34 Charge calc
  in gas phase\\1,1\N,0,-6.2669630975,-2.3200735218,7.7005561294\H,0,-7
 .2163377491,-2.0781770423,7.9940794886\H,0,-6.3068839648,-3.0078916741
 ,6.8853049837\H,0,-5.7754178387,-2.7342497327,8.4968098519\C,0,-5.5139
 861423,-1.1588268442,7.0784632064\H,0,-6.1337500992,-0.2649307905,7.18
 65594406\C,0,-5.4153037159,-1.5840020539,5.5883102137\C,0,-4.135652552
 6,-0.9402364115,7.7427687427\H,0,-3.6825195149,-0.1121315295,7.1826323
 761\O,0,-5.7898682438,-2.7279621819,5.2867724678\C,0,-4.2842065091,-0.
 4928757159,9.2045858837\H,0,-4.6988054165,-1.2855057157,9.8429490415\H
 ,0,-3.3041863604,-0.2403807638,9.6192609531\H,0,-4.9262963572,0.389834
 8403,9.2980852178\C,0,-3.2150472392,-2.1625762042,7.5993678949\H,0,-3.
 5873645566,-3.0354834486,8.1529574265\H,0,-3.0809366371,-2.4584951278,
 6.5543511731\H,0,-2.2292362313,-1.9299407358,8.011051979\N,0,-4.912868
 1042,-0.6805120318,4.758657179\H,0,-4.5309792873,0.2001379331,5.101934
 411\C,0,-4.5353316829,-0.9310564941,3.3636479602\H,0,-4.4883889071,-2.
 0138873784,3.2125920784\C,0,-3.1533273193,-0.2634007537,3.2389856233\C
 ,0,-5.5564554587,-0.2991217663,2.3698619691\H,0,-5.563304579,0.7812781
 233,2.5756000035\O,0,-2.9204374887,0.7464984276,3.9142656351\C,0,-6.97
 30911075,-0.852019466,2.6287355074\H,0,-7.2069908513,-0.7539968031,3.6
 9568799\H,0,-6.9826476361,-1.9287819701,2.4104247618\C,0,-5.118757385,
 -0.5140255058,0.9125917752\H,0,-5.0528840922,-1.5850916971,0.677765710
 5\H,0,-4.158252846,-0.051125173,0.6766511824\H,0,-5.8500276655,-0.0753
 469395,0.230054265\C,0,-8.0720401281,-0.1428467907,1.8283064628\H,0,-9
 .0599772144,-0.5090023409,2.1267006547\H,0,-8.0501309138,0.9401069163,
 2.0006174988\H,0,-7.9746694962,-0.3107292383,0.7517156454\N,0,-2.27286
 42654,-0.8138718599,2.3799033662\H,0,-2.5985833404,-1.5521541675,1.766
 5744709\C,0,-1.0837151965,-0.0661099685,1.9164309661\H,0,-0.6827323498
 ,0.4597983158,2.7853422842\C,0,-1.6371845365,0.9202562178,0.8643584673
 \C,0,-0.030725575,-1.019063109,1.3298916024\H,0,-0.3752827332,-1.33116
 66272,0.3372146372\H,0,0.0147429465,-1.9077146734,1.9700677189\O,0,-1.
 7708094956,0.5748398501,-0.3111975041\C,0,1.3381812529,-0.371661785,1.
 2530493023\C,0,1.6209665209,0.6192100937,0.3006835382\H,0,0.8814748758
 ,0.8832635962,-0.4510898645\C,0,2.3324727089,-0.7268734211,2.175164520
 2\H,0,2.1267265069,-1.5014759072,2.9121215796\C,0,2.8624937763,1.26238
 47356,0.3028411478\H,0,3.0678402978,2.0333437387,-0.4314022001\C,0,3.5
 832361098,-0.106119966,2.1537145064\H,0,4.3503794187,-0.4012942664,2.8
 647383026\C,0,3.8496569067,0.9015198702,1.2244441917\H,0,4.8253203681,
 1.3754829956,1.2067529592\N,0,-2.1019405522,2.0934151268,1.3482466734\
 H,0,-2.0131664,2.281392646,2.3390601847\C,0,-2.9734585059,2.97175969,0
 .5531076662\H,0,-3.4665517481,2.3222629692,-0.1770627656\C,0,-2.102091
 9163,3.9966599417,-0.2174609011\C,0,-3.9939528519,3.6571031804,1.46276
 83844\H,0,-3.467666008,4.4257081996,2.0402379813\H,0,-4.3823007878,2.9
 13195646,2.1739988329\O,0,-2.1056856586,5.1939273937,0.0538122588\C,0,
 -5.1725559999,4.3069914972,0.7143125737\H,0,-4.7511970637,4.956147485,
 -0.0632467722\C,0,-6.0826280526,3.2617257881,0.0510338739\H,0,-6.51462
 68137,2.5899911948,0.8065355451\H,0,-5.5504492099,2.6428822922,-0.6802
 461705\H,0,-6.9136936006,3.7446434856,-0.4748120301\C,0,-5.9805791326,
 5.1860976168,1.6784389522\H,0,-6.3969954907,4.5854388426,2.4993450443\
 H,0,-6.8181671719,5.6704794268,1.1640571249\H,0,-5.354825959,5.9706890
 656,2.1179628579\N,0,-1.3286692617,3.4282621646,-1.1736180828\H,0,-1.3
 274637964,2.413218345,-1.2741340444\C,0,-0.1803781489,4.1063620634,-1.
 7612708161\H,0,-0.5078026006,5.0358130995,-2.2423980686\C,0,0.40578418
 67,3.1249689526,-2.7811757226\C,0,0.8669295155,4.4185266057,-0.6599515
 529\H,0,1.1770102282,3.4730778242,-0.2074048572\H,0,0.3510836869,4.991
 8527229,0.1143514071\O,0,0.2919126724,1.9109543735,-2.6241294623\C,0,2
 .1019000939,5.1889113251,-1.1243497818\H,0,2.627381315,4.6524043021,-1
 .9223797785\H,0,1.8508821177,6.1893070501,-1.4987413166\C,0,3.11300815
 58,5.3255055665,-0.0084100631\O,0,3.0990576437,4.7190180447,1.04039616
 \O,0,4.0940099882,6.2023675894,-0.336608131\N,0,1.1048806369,3.6391117
 796,-3.8333239149\H,0,1.3282148886,4.6255501367,-3.8255284771\C,0,2.00
 40324382,2.7398216768,-4.5476282362\H,0,1.4094713773,1.9786786389,-5.0
 579499005\C,0,2.953085148,2.0647100782,-3.531289181\C,0,2.8515808482,3
 .4913670331,-5.5932536509\H,0,2.2113467942,3.8540225881,-6.4020605164\
 H,0,3.3551561883,4.3443526117,-5.1230471184\O,0,3.4454535397,2.7149620
 797,-2.6066893473\C,0,3.8455162208,2.4635980017,-6.1449761576\N,0,5.14
 46325138,2.6285505631,-5.7675397547\H,0,5.7003213151,1.7767763143,-5.7
 336089827\H,0,5.3426989443,3.2690938212,-5.0096239708\O,0,3.4440615513
 ,1.506404963,-6.7978344358\N,0,3.2350740104,0.7618904045,-3.7412676938
 \H,0,2.9837719657,0.3413519603,-4.6278417961\C,0,4.1500878788,0.068739
 9042,-2.8504358951\H,0,3.8332376926,0.3008735496,-1.8325822255\C,0,5.6
 140594366,0.5044103534,-3.0326911436\C,0,4.0677514595,-1.4588383212,-3
 .0572939184\H,0,3.0599377659,-1.7910349673,-2.78078626\H,0,4.217244532
 ,-1.6780602327,-4.1207835112\O,0,6.181376615,0.4239544971,-4.132413323
 1\C,0,5.1352511932,-2.1520906552,-2.2374196249\C,0,6.2490759532,-2.725
 5436924,-2.8615814909\H,0,6.2965956464,-2.7538817868,-3.9463418719\C,0
 ,5.112872707,-2.0967412821,-0.8374573138\H,0,4.2756445615,-1.631852073
 7,-0.3229026102\C,0,7.3114590469,-3.2332507095,-2.1166206085\H,0,8.164
 6358684,-3.6988905904,-2.6016794676\C,0,6.1810771654,-2.5727076891,-0.
 0800857023\H,0,6.1702575254,-2.4639567542,1.001626058\O,0,8.388132507,
 -3.6103860696,-0.0419928973\H,0,8.2406350117,-3.5069203566,0.912008375
 3\C,0,7.2808162223,-3.1408257425,-0.7254933906\N,0,6.2256661454,0.8655
 070572,-1.8957783145\H,0,5.7461631607,0.8139944085,-0.9986760079\C,0,7
 .6682808542,0.8951409084,-1.7420262407\H,0,8.0432875703,-0.0667081982,
 -2.1196096539\C,0,7.9755511013,0.893445879,-0.2026962772\C,0,8.3427631
 215,2.0363280063,-2.5568180593\H,0,7.5457437234,2.6492696877,-2.985730
 3635\H,0,8.914297934,2.686375894,-1.8828101623\O,0,7.0156850542,0.7619
 095365,0.5722199486\C,0,9.2462415452,1.5278962999,-3.6994437282\H,0,8.
 7423380256,0.6817435607,-4.1810384327\H,0,9.3575845972,2.3037225428,-4
 .4674770557\C,0,10.6651655271,1.1449279621,-3.2350198194\H,0,11.228225
 6768,0.6301223175,-4.0226181605\H,0,11.2322829726,2.0515899376,-3.0001
 834192\N,0,10.6656654586,0.3480326036,-2.0088877839\H,0,10.2472574174,
 0.8239016379,-1.1629904696\N,0,10.6939985836,-1.7915874472,-2.98077167
 98\H,0,10.5155686365,-2.7784035777,-2.8709532023\H,0,10.6076038408,-1.
 4210699835,-3.9143641135\N,0,10.325891199,-1.497955521,-0.6938491616\H
 ,0,9.8884615728,-2.4126874452,-0.6093750138\H,0,10.0075203782,-0.80672
 20698,-0.003422967\C,0,10.5387194701,-0.9704934756,-1.9149545285\O,0,9
 .2140707608,0.9649632702,0.1104775227\H,0,4.7253201927,6.1964842792,0.
 4075064197\\Version=ES64L-G16RevC.01\HF=-3586.8467977\RMSD=6.639e-09\D
 ipole=-8.7183189,-5.754263,10.0323808\Quadrupole=61.5917799,-108.73374
 97,47.1419698,6.1311674,-170.8857408,-52.082656\PG=C01 [X(C50H77N12O13
 )]\\@
 The archive entry for this job was punched.


 ABSOLUTISM, OBSOLETISM -- IF IT WORKS, IT'S OUT OF DATE

                          -- STAFFORD BEER
 Job cpu time:       0 days  0 hours 16 minutes  6.4 seconds.
 Elapsed time:       0 days  0 hours  4 minutes  2.9 seconds.
 File lengths (MBytes):  RWF=   1088 Int=      0 D2E=      0 Chk=    160 Scr=     32
 Normal termination of Gaussian 16 at Sat Aug 13 18:48:59 2022.
