 Entering Gaussian System, Link 0=/opt/software/Gaussian/g16-AVX2-C.01/g16/g16
 Input=charge-conf-879.com
 Output=charge-conf-879.log
 Initial command:
 /opt/software/Gaussian/g16-AVX2-C.01/g16/l1.exe "/mnt/gs18/scratch/users/kengmith/Gau-15407.inp" -scrdir="/mnt/gs18/scratch/users/kengmith/"
 Entering Link 1 = /opt/software/Gaussian/g16-AVX2-C.01/g16/l1.exe PID=     15418.
  
 Copyright (c) 1988-2019, Gaussian, Inc.  All Rights Reserved.
  
 This is part of the Gaussian(R) 16 program.  It is based on
 the Gaussian(R) 09 system (copyright 2009, Gaussian, Inc.),
 the Gaussian(R) 03 system (copyright 2003, Gaussian, Inc.),
 the Gaussian(R) 98 system (copyright 1998, Gaussian, Inc.),
 the Gaussian(R) 94 system (copyright 1995, Gaussian, Inc.),
 the Gaussian 92(TM) system (copyright 1992, Gaussian, Inc.),
 the Gaussian 90(TM) system (copyright 1990, Gaussian, Inc.),
 the Gaussian 88(TM) system (copyright 1988, Gaussian, Inc.),
 the Gaussian 86(TM) system (copyright 1986, Carnegie Mellon
 University), and the Gaussian 82(TM) system (copyright 1983,
 Carnegie Mellon University). Gaussian is a federally registered
 trademark of Gaussian, Inc.
  
 This software contains proprietary and confidential information,
 including trade secrets, belonging to Gaussian, Inc.
  
 This software is provided under written license and may be
 used, copied, transmitted, or stored only in accord with that
 written license.
  
 The following legend is applicable only to US Government
 contracts under FAR:
  
                    RESTRICTED RIGHTS LEGEND
  
 Use, reproduction and disclosure by the US Government is
 subject to restrictions as set forth in subparagraphs (a)
 and (c) of the Commercial Computer Software - Restricted
 Rights clause in FAR 52.227-19.
  
 Gaussian, Inc.
 340 Quinnipiac St., Bldg. 40, Wallingford CT 06492
  
  
 ---------------------------------------------------------------
 Warning -- This program may not be used in any manner that
 competes with the business of Gaussian, Inc. or will provide
 assistance to any competitor of Gaussian, Inc.  The licensee
 of this program is prohibited from giving any competitor of
 Gaussian, Inc. access to this program.  By using this program,
 the user acknowledges that Gaussian, Inc. is engaged in the
 business of creating and licensing software in the field of
 computational chemistry and represents and warrants to the
 licensee that it is not a competitor of Gaussian, Inc. and that
 it will not use this program in any manner prohibited above.
 ---------------------------------------------------------------
  

 Cite this work as:
 Gaussian 16, Revision C.01,
 M. J. Frisch, G. W. Trucks, H. B. Schlegel, G. E. Scuseria, 
 M. A. Robb, J. R. Cheeseman, G. Scalmani, V. Barone, 
 G. A. Petersson, H. Nakatsuji, X. Li, M. Caricato, A. V. Marenich, 
 J. Bloino, B. G. Janesko, R. Gomperts, B. Mennucci, H. P. Hratchian, 
 J. V. Ortiz, A. F. Izmaylov, J. L. Sonnenberg, D. Williams-Young, 
 F. Ding, F. Lipparini, F. Egidi, J. Goings, B. Peng, A. Petrone, 
 T. Henderson, D. Ranasinghe, V. G. Zakrzewski, J. Gao, N. Rega, 
 G. Zheng, W. Liang, M. Hada, M. Ehara, K. Toyota, R. Fukuda, 
 J. Hasegawa, M. Ishida, T. Nakajima, Y. Honda, O. Kitao, H. Nakai, 
 T. Vreven, K. Throssell, J. A. Montgomery, Jr., J. E. Peralta, 
 F. Ogliaro, M. J. Bearpark, J. J. Heyd, E. N. Brothers, K. N. Kudin, 
 V. N. Staroverov, T. A. Keith, R. Kobayashi, J. Normand, 
 K. Raghavachari, A. P. Rendell, J. C. Burant, S. S. Iyengar, 
 J. Tomasi, M. Cossi, J. M. Millam, M. Klene, C. Adamo, R. Cammi, 
 J. W. Ochterski, R. L. Martin, K. Morokuma, O. Farkas, 
 J. B. Foresman, and D. J. Fox, Gaussian, Inc., Wallingford CT, 2019.
 
 ******************************************
 Gaussian 16:  ES64L-G16RevC.01  3-Jul-2019
                25-Jun-2022 
 ******************************************
 %mem=8gb
 %nproc=4
 Will use up to    4 processors via shared memory.
 %chk=conf-879.chk
 ----------------------------------------------------------------------
 # B3LYP/6-31G* empiricaldispersion=gd3 guess=read geom=check nosymm in
 tegral(ultrafinegrid)
 ----------------------------------------------------------------------
 1/29=2,38=1,172=1/1;
 2/12=2,15=1,40=1/2;
 3/5=1,6=6,7=1,11=2,14=-4,25=1,30=1,74=-5,75=-5,116=-2,124=31/1,2,3;
 4/5=1/1;
 5/5=2,38=6/2;
 6/7=2,8=2,9=2,10=2,28=1/1;
 99/5=1,9=1/99;
 ------------------------------------------------------
 Candidate Structure: Conf:879 Charge calc in gas phase
 ------------------------------------------------------
 Structure from the checkpoint file:  "conf-879.chk"
 Charge =  1 Multiplicity = 1
 Redundant internal coordinates found in file.  (old form).
 N,0,-3.2670252254,-1.6988880324,-8.6331396572
 H,0,-3.0980296693,-0.6786977571,-8.6769110073
 H,0,-3.3369406362,-2.1004948646,-9.5712936467
 H,0,-2.402673174,-2.0912993469,-8.1642411628
 C,0,-4.5296077983,-1.8912931174,-7.8236436968
 H,0,-5.3677854284,-1.7333369076,-8.5106309939
 C,0,-4.4797080668,-0.7358731733,-6.7902840604
 C,0,-4.5713673803,-3.2915319674,-7.2112339645
 H,0,-5.5729180531,-3.5014972768,-6.8252258333
 H,0,-4.354779351,-4.0551635,-7.9649320996
 H,0,-3.8656954666,-3.3804496118,-6.3803216751
 O,0,-3.6490561163,0.1591195788,-6.9646210115
 N,0,-5.3230242389,-0.790745364,-5.7369025976
 H,0,-5.7798180785,-1.6799452739,-5.567983189
 C,0,-4.8992670492,-0.1165416458,-4.4947503531
 H,0,-4.5508354658,0.8774933677,-4.7733353466
 C,0,-3.7315184276,-0.9621790479,-3.9484857566
 C,0,-6.0366682044,-0.0133773472,-3.4592708472
 H,0,-6.7922950174,0.6846239794,-3.8404703482
 H,0,-6.5166261165,-0.9946892697,-3.3572290536
 O,0,-3.797250691,-2.194823764,-3.988254883
 C,0,-5.4798846239,0.4071047227,-2.128328921
 C,0,-5.4735811628,-0.3515005929,-0.9830485263
 H,0,-5.9380529122,-1.3094871023,-0.792969126
 C,0,-4.6888093319,1.5821595115,-1.8476404983
 C,0,-4.2285539082,1.4630796421,-0.5068266854
 C,0,-4.2864702057,2.700356952,-2.6032830518
 H,0,-4.6463056341,2.8445041191,-3.6192742165
 N,0,-4.7317232677,0.2780254201,-0.0062090107
 H,0,-4.6126646274,-0.0518143358,0.9391548236
 C,0,-3.0028472703,3.5004837629,-0.6921457944
 H,0,-2.3520151967,4.2570519966,-0.2644409216
 C,0,-3.3980166672,2.419375522,0.0869080104
 H,0,-3.0775191619,2.3254582699,1.1205072223
 C,0,-3.4418479112,3.639802588,-2.0243205355
 H,0,-3.12204491,4.5024993763,-2.6006779258
 N,0,-2.6496038143,-0.2768319238,-3.5343369463
 H,0,-2.6682320994,0.7364636706,-3.4600595845
 C,0,-1.4442986215,-0.9365217417,-3.0474503747
 H,0,-1.7461329197,-1.9041063234,-2.634425757
 C,0,-0.8759720659,-0.0038755302,-1.9711278206
 C,0,-0.4209031695,-1.1557636879,-4.1905317145
 H,0,0.0036875003,-0.1875074515,-4.476687023
 H,0,0.4007913907,-1.7805957013,-3.8247578725
 O,0,-0.7701319478,1.2004039183,-2.2084461533
 C,0,-1.1120258468,-1.80492267,-5.3957412924
 H,0,-1.6457739942,-2.7114761811,-5.0824458468
 H,0,-1.8776624959,-1.12845759,-5.7831242515
 C,0,-0.2852423973,-2.1928275599,-6.5864888778
 O,0,-0.777864107,-2.4348915783,-7.6892157097
 O,0,1.0212726464,-2.296532739,-6.3632163972
 N,0,-0.549735884,-0.5633094732,-0.7864063337
 H,0,-0.5786635704,-1.568075291,-0.6753897417
 C,0,-0.0351208763,0.2422020592,0.3275351946
 H,0,-0.5682149796,1.1983997962,0.2822752192
 C,0,1.4688839458,0.471254513,0.0831243247
 C,0,-0.3002829762,-0.436009716,1.6823530333
 H,0,0.2517886594,-1.3854578843,1.6834464141
 O,0,2.3224789412,-0.3047262264,0.5257583583
 C,0,0.2471752909,0.431854967,2.8260902558
 H,0,-0.2266122502,1.4219875696,2.8283375408
 H,0,0.0383186794,-0.0381213644,3.7923314016
 H,0,1.3290254187,0.5639558068,2.7460039453
 C,0,-1.7973564911,-0.7118552315,1.8885917921
 H,0,-2.3486342808,0.2337778669,1.9613366994
 H,0,-2.2382973497,-1.2931391934,1.0713111931
 H,0,-1.954851324,-1.2628131228,2.8213789317
 N,0,1.7674753437,1.551623559,-0.6676931754
 H,0,1.0260147332,2.131077629,-1.0492727304
 C,0,3.1321069958,1.8636711024,-1.0828301297
 H,0,3.663751428,0.9170118688,-1.2357172369
 C,0,3.8462390822,2.6457231934,0.044369528
 C,0,3.0993507174,2.6766637936,-2.3903731802
 H,0,4.1409616602,2.9485024553,-2.6222245889
 O,0,4.1632825272,3.8449484951,-0.0929120869
 C,0,2.5079072362,1.8944444337,-3.5570778864
 H,0,3.0704674844,0.9705494314,-3.7326176797
 H,0,1.4608109915,1.6450110663,-3.3588022838
 H,0,2.5469130297,2.5091148163,-4.4609456272
 O,0,2.3040150952,3.8421939371,-2.2121628229
 H,0,2.7580466237,4.3559279507,-1.517700275
 N,0,4.0473356535,1.9443715096,1.1628840747
 H,0,3.7641048466,0.9676194123,1.1502463925
 C,0,4.6161177469,2.5025635973,2.3854083338
 H,0,4.0162979287,3.373730009,2.6715399047
 C,0,6.0606635073,2.9744736563,2.1542621329
 C,0,4.5435455436,1.4583954641,3.5369009585
 H,0,3.4708769095,1.3166389154,3.7375597348
 O,0,6.8423798526,2.3329497133,1.4441935715
 C,0,5.152469071,0.0985192391,3.1523791345
 H,0,6.1813453642,0.2204865863,2.800266741
 H,0,4.583902518,-0.423670739,2.373464936
 H,0,5.163898131,-0.555799411,4.0303968535
 C,0,5.2067445316,2.0017916995,4.8130181591
 H,0,6.2989180509,1.9979768256,4.7152987315
 H,0,4.954323015,1.3563237396,5.6606022792
 H,0,4.9162857417,3.0280502416,5.0555646447
 N,0,6.355819994,4.1735465555,2.7330138892
 H,0,5.6628404902,4.5728093092,3.4237499333
 C,0,7.6380675564,4.4965771774,3.4112182206
 H,0,8.171778663,3.5640500541,3.6264236118
 C,0,7.1918093766,5.1713880046,4.7885082747
 C,0,8.5572725166,5.4428404276,2.634190936
 H,0,9.3022462178,5.7865389057,3.3561846814
 H,0,7.9785404951,6.3388243054,2.3643274198
 O,0,5.9324660602,5.2561961737,4.9329981757
 C,0,9.2348528099,4.8039091248,1.3954890843
 H,0,10.3033740959,4.6559359513,1.5871777161
 H,0,8.8293931367,3.795607907,1.2438875877
 C,0,9.1151985295,5.6009519657,0.0805282988
 H,0,9.6892907187,6.5330654371,0.1421750982
 H,0,9.5608144361,5.0144483859,-0.7337653226
 C,0,7.6818221676,5.9893347791,-0.3158080046
 H,0,7.6045065727,6.199922732,-1.3854530654
 H,0,7.3296059483,6.8668972937,0.2307293191
 N,0,6.7164797745,4.8885113281,0.0143732277
 H,0,5.7946739457,4.9322598819,-0.4370663484
 H,0,7.0892775213,3.9495427425,-0.1683893083
 H,0,6.5070925195,4.8607187393,1.049731561
 O,0,8.1229471028,5.5336276546,5.5130372165
 H,0,1.4572846553,-2.5782553341,-7.1918333955
 Recover connectivity data from disk.
                           ----------------------------
                           !    Current Parameters    !
                           ! (Angstroms and Degrees)  !
 --------------------------                            --------------------------
 ! Name  Definition              Value                                          !
 --------------------------------------------------------------------------------
 ! R1    R(1,2)                  1.035                                          !
 ! R2    R(1,3)                  1.0229                                         !
 ! R3    R(1,4)                  1.0588                                         !
 ! R4    R(1,5)                  1.5121                                         !
 ! R5    R(5,6)                  1.0952                                         !
 ! R6    R(5,7)                  1.5509                                         !
 ! R7    R(5,8)                  1.5289                                         !
 ! R8    R(7,12)                 1.2334                                         !
 ! R9    R(7,13)                 1.3505                                         !
 ! R10   R(8,9)                  1.0937                                         !
 ! R11   R(8,10)                 1.0946                                         !
 ! R12   R(8,11)                 1.0938                                         !
 ! R13   R(13,14)                1.0138                                         !
 ! R14   R(13,15)                1.4755                                         !
 ! R15   R(15,16)                1.0896                                         !
 ! R16   R(15,17)                1.5418                                         !
 ! R17   R(15,18)                1.5416                                         !
 ! R18   R(17,21)                1.235                                          !
 ! R19   R(17,37)                1.346                                          !
 ! R20   R(18,19)                1.097                                          !
 ! R21   R(18,20)                1.0972                                         !
 ! R22   R(18,22)                1.5027                                         !
 ! R23   R(22,23)                1.3737                                         !
 ! R24   R(22,25)                1.4441                                         !
 ! R25   R(23,24)                1.0815                                         !
 ! R26   R(23,29)                1.3787                                         !
 ! R27   R(25,26)                1.4226                                         !
 ! R28   R(25,27)                1.4083                                         !
 ! R29   R(26,29)                1.3814                                         !
 ! R30   R(26,33)                1.3989                                         !
 ! R31   R(27,28)                1.0874                                         !
 ! R32   R(27,35)                1.3897                                         !
 ! R33   R(29,30)                1.0083                                         !
 ! R34   R(31,32)                1.0858                                         !
 ! R35   R(31,33)                1.3899                                         !
 ! R36   R(31,35)                1.4095                                         !
 ! R37   R(33,34)                1.0862                                         !
 ! R38   R(35,36)                1.0857                                         !
 ! R39   R(37,38)                1.0162                                         !
 ! R40   R(37,39)                1.4577                                         !
 ! R41   R(39,40)                1.0945                                         !
 ! R42   R(39,41)                1.5334                                         !
 ! R43   R(39,42)                1.5499                                         !
 ! R44   R(41,45)                1.232                                          !
 ! R45   R(41,52)                1.3502                                         !
 ! R46   R(42,43)                1.0953                                         !
 ! R47   R(42,44)                1.0952                                         !
 ! R48   R(42,46)                1.5335                                         !
 ! R49   R(46,47)                1.0977                                         !
 ! R50   R(46,48)                1.0926                                         !
 ! R51   R(46,49)                1.5006                                         !
 ! R52   R(49,50)                1.2318                                         !
 ! R53   R(49,51)                1.3295                                         !
 ! R54   R(51,121)               0.9778                                         !
 ! R55   R(52,53)                1.0113                                         !
 ! R56   R(52,54)                1.4678                                         !
 ! R57   R(54,55)                1.0957                                         !
 ! R58   R(54,56)                1.5409                                         !
 ! R59   R(54,57)                1.5381                                         !
 ! R60   R(56,59)                1.2356                                         !
 ! R61   R(56,68)                1.3491                                         !
 ! R62   R(57,58)                1.0983                                         !
 ! R63   R(57,60)                1.5366                                         !
 ! R64   R(57,64)                1.5362                                         !
 ! R65   R(60,61)                1.0977                                         !
 ! R66   R(60,62)                1.0946                                         !
 ! R67   R(60,63)                1.0928                                         !
 ! R68   R(64,65)                1.097                                          !
 ! R69   R(64,66)                1.0956                                         !
 ! R70   R(64,67)                1.0947                                         !
 ! R71   R(68,69)                1.0154                                         !
 ! R72   R(68,70)                1.4601                                         !
 ! R73   R(70,71)                1.0964                                         !
 ! R74   R(70,72)                1.5467                                         !
 ! R75   R(70,73)                1.54                                           !
 ! R76   R(72,75)                1.248                                          !
 ! R77   R(72,82)                1.3354                                         !
 ! R78   R(73,74)                1.1012                                         !
 ! R79   R(73,76)                1.5241                                         !
 ! R80   R(73,80)                1.4222                                         !
 ! R81   R(76,77)                1.0958                                         !
 ! R82   R(76,78)                1.0945                                         !
 ! R83   R(76,79)                1.0938                                         !
 ! R84   R(80,81)                0.9759                                         !
 ! R85   R(82,83)                1.0171                                         !
 ! R86   R(82,84)                1.4593                                         !
 ! R87   R(84,85)                1.0957                                         !
 ! R88   R(84,86)                1.5372                                         !
 ! R89   R(84,87)                1.5561                                         !
 ! R90   R(86,89)                1.2356                                         !
 ! R91   R(86,98)                1.3638                                         !
 ! R92   R(87,88)                1.1004                                         !
 ! R93   R(87,90)                1.5388                                         !
 ! R94   R(87,94)                1.5374                                         !
 ! R95   R(90,91)                1.0943                                         !
 ! R96   R(90,92)                1.0967                                         !
 ! R97   R(90,93)                1.0951                                         !
 ! R98   R(94,95)                1.0965                                         !
 ! R99   R(94,96)                1.0949                                         !
 ! R100  R(94,97)                1.0938                                         !
 ! R101  R(98,99)                1.0568                                         !
 ! R102  R(98,100)               1.4861                                         !
 ! R103  R(100,101)              1.0958                                         !
 ! R104  R(100,102)              1.5973                                         !
 ! R105  R(100,103)              1.5311                                         !
 ! R106  R(102,106)              1.2704                                         !
 ! R107  R(102,120)              1.2342                                         !
 ! R108  R(103,104)              1.0929                                         !
 ! R109  R(103,105)              1.1002                                         !
 ! R110  R(103,107)              1.5498                                         !
 ! R111  R(107,108)              1.0956                                         !
 ! R112  R(107,109)              1.0973                                         !
 ! R113  R(107,110)              1.5423                                         !
 ! R114  R(110,111)              1.0965                                         !
 ! R115  R(110,112)              1.098                                          !
 ! R116  R(110,113)              1.537                                          !
 ! R117  R(113,114)              1.0929                                         !
 ! R118  R(113,115)              1.0922                                         !
 ! R119  R(113,116)              1.5009                                         !
 ! R120  R(116,117)              1.0273                                         !
 ! R121  R(116,118)              1.0267                                         !
 ! R122  R(116,119)              1.0567                                         !
 ! A1    A(2,1,3)              111.0613                                         !
 ! A2    A(2,1,4)              104.5223                                         !
 ! A3    A(2,1,5)              106.5228                                         !
 ! A4    A(3,1,4)              108.4497                                         !
 ! A5    A(3,1,5)              112.5797                                         !
 ! A6    A(4,1,5)              113.417                                          !
 ! A7    A(1,5,6)              106.5515                                         !
 ! A8    A(1,5,7)              103.5938                                         !
 ! A9    A(1,5,8)              110.719                                          !
 ! A10   A(6,5,7)              109.5802                                         !
 ! A11   A(6,5,8)              111.2508                                         !
 ! A12   A(7,5,8)              114.6012                                         !
 ! A13   A(5,7,12)             117.9087                                         !
 ! A14   A(5,7,13)             117.992                                          !
 ! A15   A(12,7,13)            124.0739                                         !
 ! A16   A(5,8,9)              110.0115                                         !
 ! A17   A(5,8,10)             110.9608                                         !
 ! A18   A(5,8,11)             111.17                                           !
 ! A19   A(9,8,10)             106.8754                                         !
 ! A20   A(9,8,11)             107.8841                                         !
 ! A21   A(10,8,11)            109.799                                          !
 ! A22   A(7,13,14)            116.5481                                         !
 ! A23   A(7,13,15)            117.3061                                         !
 ! A24   A(14,13,15)           112.948                                          !
 ! A25   A(13,15,16)           107.0658                                         !
 ! A26   A(13,15,17)           105.3775                                         !
 ! A27   A(13,15,18)           112.591                                          !
 ! A28   A(16,15,17)           110.4123                                         !
 ! A29   A(16,15,18)           110.2816                                         !
 ! A30   A(17,15,18)           110.9486                                         !
 ! A31   A(15,17,21)           119.7154                                         !
 ! A32   A(15,17,37)           116.0104                                         !
 ! A33   A(21,17,37)           124.1159                                         !
 ! A34   A(15,18,19)           108.504                                          !
 ! A35   A(15,18,20)           108.9883                                         !
 ! A36   A(15,18,22)           109.8927                                         !
 ! A37   A(19,18,20)           107.4626                                         !
 ! A38   A(19,18,22)           112.6393                                         !
 ! A39   A(20,18,22)           109.2674                                         !
 ! A40   A(18,22,23)           125.8429                                         !
 ! A41   A(18,22,25)           127.0712                                         !
 ! A42   A(23,22,25)           106.5459                                         !
 ! A43   A(22,23,24)           129.3247                                         !
 ! A44   A(22,23,29)           109.9381                                         !
 ! A45   A(24,23,29)           120.7323                                         !
 ! A46   A(22,25,26)           106.9968                                         !
 ! A47   A(22,25,27)           134.2918                                         !
 ! A48   A(26,25,27)           118.6695                                         !
 ! A49   A(25,26,29)           107.1897                                         !
 ! A50   A(25,26,33)           122.3374                                         !
 ! A51   A(29,26,33)           130.4603                                         !
 ! A52   A(25,27,28)           120.7998                                         !
 ! A53   A(25,27,35)           119.1354                                         !
 ! A54   A(28,27,35)           120.0505                                         !
 ! A55   A(23,29,26)           109.3259                                         !
 ! A56   A(23,29,30)           125.3418                                         !
 ! A57   A(26,29,30)           125.2687                                         !
 ! A58   A(32,31,33)           119.4467                                         !
 ! A59   A(32,31,35)           119.3478                                         !
 ! A60   A(33,31,35)           121.2027                                         !
 ! A61   A(26,33,31)           117.5575                                         !
 ! A62   A(26,33,34)           121.3293                                         !
 ! A63   A(31,33,34)           121.1122                                         !
 ! A64   A(27,35,31)           121.0798                                         !
 ! A65   A(27,35,36)           119.6724                                         !
 ! A66   A(31,35,36)           119.2439                                         !
 ! A67   A(17,37,38)           121.0292                                         !
 ! A68   A(17,37,39)           122.476                                          !
 ! A69   A(38,37,39)           116.2315                                         !
 ! A70   A(37,39,40)           107.343                                          !
 ! A71   A(37,39,41)           105.4054                                         !
 ! A72   A(37,39,42)           111.3244                                         !
 ! A73   A(40,39,41)           112.0261                                         !
 ! A74   A(40,39,42)           109.5948                                         !
 ! A75   A(41,39,42)           111.0388                                         !
 ! A76   A(39,41,45)           119.4176                                         !
 ! A77   A(39,41,52)           116.9653                                         !
 ! A78   A(45,41,52)           123.5929                                         !
 ! A79   A(39,42,43)           108.8812                                         !
 ! A80   A(39,42,44)           109.2572                                         !
 ! A81   A(39,42,46)           109.9952                                         !
 ! A82   A(43,42,44)           107.5037                                         !
 ! A83   A(43,42,46)           110.0963                                         !
 ! A84   A(44,42,46)           111.046                                          !
 ! A85   A(42,46,47)           110.1481                                         !
 ! A86   A(42,46,48)           109.4123                                         !
 ! A87   A(42,46,49)           118.9958                                         !
 ! A88   A(47,46,48)           105.7701                                         !
 ! A89   A(47,46,49)           106.3137                                         !
 ! A90   A(48,46,49)           105.3537                                         !
 ! A91   A(46,49,50)           122.7392                                         !
 ! A92   A(46,49,51)           115.3618                                         !
 ! A93   A(50,49,51)           121.8721                                         !
 ! A94   A(49,51,121)          108.5639                                         !
 ! A95   A(41,52,53)           120.0716                                         !
 ! A96   A(41,52,54)           121.5496                                         !
 ! A97   A(53,52,54)           118.161                                          !
 ! A98   A(52,54,55)           106.0802                                         !
 ! A99   A(52,54,56)           107.6625                                         !
 ! A100  A(52,54,57)           111.4719                                         !
 ! A101  A(55,54,56)           109.7928                                         !
 ! A102  A(55,54,57)           109.7129                                         !
 ! A103  A(56,54,57)           111.9338                                         !
 ! A104  A(54,56,59)           121.61                                           !
 ! A105  A(54,56,68)           115.0464                                         !
 ! A106  A(59,56,68)           123.3253                                         !
 ! A107  A(54,57,58)           107.1816                                         !
 ! A108  A(54,57,60)           110.1925                                         !
 ! A109  A(54,57,64)           111.4344                                         !
 ! A110  A(58,57,60)           107.9647                                         !
 ! A111  A(58,57,64)           109.5424                                         !
 ! A112  A(60,57,64)           110.4081                                         !
 ! A113  A(57,60,61)           110.9295                                         !
 ! A114  A(57,60,62)           110.2781                                         !
 ! A115  A(57,60,63)           111.4959                                         !
 ! A116  A(61,60,62)           107.6462                                         !
 ! A117  A(61,60,63)           108.567                                          !
 ! A118  A(62,60,63)           107.7874                                         !
 ! A119  A(57,64,65)           110.1117                                         !
 ! A120  A(57,64,66)           112.7899                                         !
 ! A121  A(57,64,67)           110.1798                                         !
 ! A122  A(65,64,66)           107.7327                                         !
 ! A123  A(65,64,67)           107.7602                                         !
 ! A124  A(66,64,67)           108.1014                                         !
 ! A125  A(56,68,69)           120.2977                                         !
 ! A126  A(56,68,70)           122.4272                                         !
 ! A127  A(69,68,70)           116.9774                                         !
 ! A128  A(68,70,71)           107.9568                                         !
 ! A129  A(68,70,72)           109.4135                                         !
 ! A130  A(68,70,73)           109.5323                                         !
 ! A131  A(71,70,72)           108.3189                                         !
 ! A132  A(71,70,73)           110.3476                                         !
 ! A133  A(72,70,73)           111.2024                                         !
 ! A134  A(70,72,75)           121.5341                                         !
 ! A135  A(70,72,82)           114.4806                                         !
 ! A136  A(75,72,82)           123.9546                                         !
 ! A137  A(70,73,74)           106.7959                                         !
 ! A138  A(70,73,76)           112.7839                                         !
 ! A139  A(70,73,80)           109.7629                                         !
 ! A140  A(74,73,76)           109.4261                                         !
 ! A141  A(74,73,80)           110.6733                                         !
 ! A142  A(76,73,80)           107.428                                          !
 ! A143  A(73,76,77)           110.8617                                         !
 ! A144  A(73,76,78)           110.4593                                         !
 ! A145  A(73,76,79)           109.2891                                         !
 ! A146  A(77,76,78)           109.1477                                         !
 ! A147  A(77,76,79)           108.8514                                         !
 ! A148  A(78,76,79)           108.1734                                         !
 ! A149  A(73,80,81)           105.094                                          !
 ! A150  A(72,82,83)           116.8736                                         !
 ! A151  A(72,82,84)           124.0182                                         !
 ! A152  A(83,82,84)           119.0966                                         !
 ! A153  A(82,84,85)           108.0299                                         !
 ! A154  A(82,84,86)           110.9608                                         !
 ! A155  A(82,84,87)           110.1857                                         !
 ! A156  A(85,84,86)           108.0366                                         !
 ! A157  A(85,84,87)           108.3447                                         !
 ! A158  A(86,84,87)           111.1679                                         !
 ! A159  A(84,86,89)           121.4359                                         !
 ! A160  A(84,86,98)           114.1736                                         !
 ! A161  A(89,86,98)           124.2935                                         !
 ! A162  A(84,87,88)           105.4756                                         !
 ! A163  A(84,87,90)           112.9311                                         !
 ! A164  A(84,87,94)           110.9119                                         !
 ! A165  A(88,87,90)           108.5088                                         !
 ! A166  A(88,87,94)           108.3407                                         !
 ! A167  A(90,87,94)           110.4304                                         !
 ! A168  A(87,90,91)           110.7303                                         !
 ! A169  A(87,90,92)           113.149                                          !
 ! A170  A(87,90,93)           109.3788                                         !
 ! A171  A(91,90,92)           108.1795                                         !
 ! A172  A(91,90,93)           108.3477                                         !
 ! A173  A(92,90,93)           106.8806                                         !
 ! A174  A(87,94,95)           110.7603                                         !
 ! A175  A(87,94,96)           109.5572                                         !
 ! A176  A(87,94,97)           113.6491                                         !
 ! A177  A(95,94,96)           107.2516                                         !
 ! A178  A(95,94,97)           106.7094                                         !
 ! A179  A(96,94,97)           108.6779                                         !
 ! A180  A(86,98,99)           117.8822                                         !
 ! A181  A(86,98,100)          124.8572                                         !
 ! A182  A(99,98,100)          100.6836                                         !
 ! A183  A(98,100,101)         108.9589                                         !
 ! A184  A(98,100,102)         104.1391                                         !
 ! A185  A(98,100,103)         114.8822                                         !
 ! A186  A(101,100,102)        109.0414                                         !
 ! A187  A(101,100,103)        109.4642                                         !
 ! A188  A(102,100,103)        110.1348                                         !
 ! A189  A(100,102,106)        113.7787                                         !
 ! A190  A(100,102,120)        114.797                                          !
 ! A191  A(106,102,120)        131.4155                                         !
 ! A192  A(100,103,104)        105.5656                                         !
 ! A193  A(100,103,105)        108.1791                                         !
 ! A194  A(100,103,107)        114.4145                                         !
 ! A195  A(104,103,105)        105.3366                                         !
 ! A196  A(104,103,107)        111.0794                                         !
 ! A197  A(105,103,107)        111.6953                                         !
 ! A198  A(103,107,108)        110.0137                                         !
 ! A199  A(103,107,109)        109.1303                                         !
 ! A200  A(103,107,110)        115.7528                                         !
 ! A201  A(108,107,109)        105.096                                          !
 ! A202  A(108,107,110)        107.1352                                         !
 ! A203  A(109,107,110)        109.1725                                         !
 ! A204  A(107,110,111)        110.5344                                         !
 ! A205  A(107,110,112)        108.9511                                         !
 ! A206  A(107,110,113)        115.0101                                         !
 ! A207  A(111,110,112)        106.4568                                         !
 ! A208  A(111,110,113)        106.7361                                         !
 ! A209  A(112,110,113)        108.7966                                         !
 ! A210  A(110,113,114)        111.5323                                         !
 ! A211  A(110,113,115)        112.0077                                         !
 ! A212  A(110,113,116)        110.9616                                         !
 ! A213  A(114,113,115)        108.1869                                         !
 ! A214  A(114,113,116)        108.1271                                         !
 ! A215  A(115,113,116)        105.7722                                         !
 ! A216  A(113,116,117)        116.6923                                         !
 ! A217  A(113,116,118)        113.4584                                         !
 ! A218  A(113,116,119)        111.2407                                         !
 ! A219  A(117,116,118)        106.6506                                         !
 ! A220  A(117,116,119)        104.707                                          !
 ! A221  A(118,116,119)        102.8454                                         !
 ! D1    D(2,1,5,6)             82.1984                                         !
 ! D2    D(2,1,5,7)            -33.3677                                         !
 ! D3    D(2,1,5,8)           -156.6921                                         !
 ! D4    D(3,1,5,6)            -39.7614                                         !
 ! D5    D(3,1,5,7)           -155.3275                                         !
 ! D6    D(3,1,5,8)             81.3482                                         !
 ! D7    D(4,1,5,6)           -163.3761                                         !
 ! D8    D(4,1,5,7)             81.0578                                         !
 ! D9    D(4,1,5,8)            -42.2666                                         !
 ! D10   D(1,5,7,12)            11.9497                                         !
 ! D11   D(1,5,7,13)          -166.2961                                         !
 ! D12   D(6,5,7,12)          -101.4464                                         !
 ! D13   D(6,5,7,13)            80.3077                                         !
 ! D14   D(8,5,7,12)           132.6826                                         !
 ! D15   D(8,5,7,13)           -45.5632                                         !
 ! D16   D(1,5,8,9)           -167.1776                                         !
 ! D17   D(1,5,8,10)           -49.1204                                         !
 ! D18   D(1,5,8,11)            73.3817                                         !
 ! D19   D(6,5,8,9)            -48.8902                                         !
 ! D20   D(6,5,8,10)            69.167                                          !
 ! D21   D(6,5,8,11)          -168.3309                                         !
 ! D22   D(7,5,8,9)             76.1068                                         !
 ! D23   D(7,5,8,10)          -165.8359                                         !
 ! D24   D(7,5,8,11)           -43.3338                                         !
 ! D25   D(5,7,13,14)           13.9335                                         !
 ! D26   D(5,7,13,15)          152.3904                                         !
 ! D27   D(12,7,13,14)        -164.195                                          !
 ! D28   D(12,7,13,15)         -25.7382                                         !
 ! D29   D(7,13,15,16)          47.7778                                         !
 ! D30   D(7,13,15,17)         -69.7909                                         !
 ! D31   D(7,13,15,18)         169.1413                                         !
 ! D32   D(14,13,15,16)       -172.3311                                         !
 ! D33   D(14,13,15,17)         70.1001                                         !
 ! D34   D(14,13,15,18)        -50.9677                                         !
 ! D35   D(13,15,17,21)        -41.2191                                         !
 ! D36   D(13,15,17,37)        134.3959                                         !
 ! D37   D(16,15,17,21)       -156.5032                                         !
 ! D38   D(16,15,17,37)         19.1118                                         !
 ! D39   D(18,15,17,21)         80.9148                                         !
 ! D40   D(18,15,17,37)       -103.4702                                         !
 ! D41   D(13,15,18,19)        -68.4543                                         !
 ! D42   D(13,15,18,20)         48.2775                                         !
 ! D43   D(13,15,18,22)        167.9883                                         !
 ! D44   D(16,15,18,19)         51.0592                                         !
 ! D45   D(16,15,18,20)        167.7909                                         !
 ! D46   D(16,15,18,22)        -72.4982                                         !
 ! D47   D(17,15,18,19)        173.7169                                         !
 ! D48   D(17,15,18,20)        -69.5514                                         !
 ! D49   D(17,15,18,22)         50.1594                                         !
 ! D50   D(15,17,37,38)          8.8449                                         !
 ! D51   D(15,17,37,39)       -177.2738                                         !
 ! D52   D(21,17,37,38)       -175.7555                                         !
 ! D53   D(21,17,37,39)         -1.8743                                         !
 ! D54   D(15,18,22,23)       -114.8552                                         !
 ! D55   D(15,18,22,25)         55.5636                                         !
 ! D56   D(19,18,22,23)        124.0402                                         !
 ! D57   D(19,18,22,25)        -65.541                                          !
 ! D58   D(20,18,22,23)          4.6854                                         !
 ! D59   D(20,18,22,25)        175.1042                                         !
 ! D60   D(18,22,23,24)         -6.9984                                         !
 ! D61   D(18,22,23,29)        172.1843                                         !
 ! D62   D(25,22,23,24)       -179.035                                          !
 ! D63   D(25,22,23,29)          0.1478                                         !
 ! D64   D(18,22,25,26)       -171.676                                          !
 ! D65   D(18,22,25,27)          5.8467                                         !
 ! D66   D(23,22,25,26)          0.2326                                         !
 ! D67   D(23,22,25,27)        177.7553                                         !
 ! D68   D(22,23,29,26)         -0.4888                                         !
 ! D69   D(22,23,29,30)        176.7312                                         !
 ! D70   D(24,23,29,26)        178.7757                                         !
 ! D71   D(24,23,29,30)         -4.0043                                         !
 ! D72   D(22,25,26,29)         -0.5217                                         !
 ! D73   D(22,25,26,33)        178.3102                                         !
 ! D74   D(27,25,26,29)       -178.5009                                         !
 ! D75   D(27,25,26,33)          0.331                                          !
 ! D76   D(22,25,27,28)          4.9151                                         !
 ! D77   D(22,25,27,35)       -176.4643                                         !
 ! D78   D(26,25,27,28)       -177.7852                                         !
 ! D79   D(26,25,27,35)          0.8354                                         !
 ! D80   D(25,26,29,23)          0.6228                                         !
 ! D81   D(25,26,29,30)       -176.5998                                         !
 ! D82   D(33,26,29,23)       -178.0801                                         !
 ! D83   D(33,26,29,30)          4.6974                                         !
 ! D84   D(25,26,33,31)         -1.2747                                         !
 ! D85   D(25,26,33,34)        178.3609                                         !
 ! D86   D(29,26,33,31)        177.2586                                         !
 ! D87   D(29,26,33,34)         -3.1058                                         !
 ! D88   D(25,27,35,31)         -1.0393                                         !
 ! D89   D(25,27,35,36)        179.6802                                         !
 ! D90   D(28,27,35,31)        177.5918                                         !
 ! D91   D(28,27,35,36)         -1.6886                                         !
 ! D92   D(32,31,33,26)       -179.5361                                         !
 ! D93   D(32,31,33,34)          0.8275                                         !
 ! D94   D(35,31,33,26)          1.0738                                         !
 ! D95   D(35,31,33,34)       -178.5625                                         !
 ! D96   D(32,31,35,27)       -179.3255                                         !
 ! D97   D(32,31,35,36)         -0.042                                          !
 ! D98   D(33,31,35,27)          0.0651                                         !
 ! D99   D(33,31,35,36)        179.3486                                         !
 ! D100  D(17,37,39,40)        -27.2734                                         !
 ! D101  D(17,37,39,41)       -146.8498                                         !
 ! D102  D(17,37,39,42)         92.6651                                         !
 ! D103  D(38,37,39,40)        146.8824                                         !
 ! D104  D(38,37,39,41)         27.306                                          !
 ! D105  D(38,37,39,42)        -93.1791                                         !
 ! D106  D(37,39,41,45)        -47.6103                                         !
 ! D107  D(37,39,41,52)        130.6635                                         !
 ! D108  D(40,39,41,45)       -164.0348                                         !
 ! D109  D(40,39,41,52)         14.239                                          !
 ! D110  D(42,39,41,45)         73.0622                                         !
 ! D111  D(42,39,41,52)       -108.664                                          !
 ! D112  D(37,39,42,43)         71.1709                                         !
 ! D113  D(37,39,42,44)       -171.6872                                         !
 ! D114  D(37,39,42,46)        -49.5517                                         !
 ! D115  D(40,39,42,43)       -170.2327                                         !
 ! D116  D(40,39,42,44)        -53.0909                                         !
 ! D117  D(40,39,42,46)         69.0447                                         !
 ! D118  D(41,39,42,43)        -45.9386                                         !
 ! D119  D(41,39,42,44)         71.2033                                         !
 ! D120  D(41,39,42,46)       -166.6612                                         !
 ! D121  D(39,41,52,53)          7.3019                                         !
 ! D122  D(39,41,52,54)       -178.1594                                         !
 ! D123  D(45,41,52,53)       -174.5032                                         !
 ! D124  D(45,41,52,54)          0.0355                                         !
 ! D125  D(39,42,46,47)        -52.8689                                         !
 ! D126  D(39,42,46,48)         62.9951                                         !
 ! D127  D(39,42,46,49)       -175.9225                                         !
 ! D128  D(43,42,46,47)       -172.8572                                         !
 ! D129  D(43,42,46,48)        -56.9932                                         !
 ! D130  D(43,42,46,49)         64.0892                                         !
 ! D131  D(44,42,46,47)         68.1997                                         !
 ! D132  D(44,42,46,48)       -175.9363                                         !
 ! D133  D(44,42,46,49)        -54.854                                          !
 ! D134  D(42,46,49,50)       -163.3493                                         !
 ! D135  D(42,46,49,51)         18.5054                                         !
 ! D136  D(47,46,49,50)         71.7235                                         !
 ! D137  D(47,46,49,51)       -106.4219                                         !
 ! D138  D(48,46,49,50)        -40.2404                                         !
 ! D139  D(48,46,49,51)        141.6142                                         !
 ! D140  D(46,49,51,121)       178.2927                                         !
 ! D141  D(50,49,51,121)         0.1297                                         !
 ! D142  D(41,52,54,55)         36.2536                                         !
 ! D143  D(41,52,54,56)        -81.2388                                         !
 ! D144  D(41,52,54,57)        155.6341                                         !
 ! D145  D(53,52,54,55)       -149.1069                                         !
 ! D146  D(53,52,54,56)         93.4007                                         !
 ! D147  D(53,52,54,57)        -29.7264                                         !
 ! D148  D(52,54,56,59)        -90.7342                                         !
 ! D149  D(52,54,56,68)         87.7598                                         !
 ! D150  D(55,54,56,59)        154.2081                                         !
 ! D151  D(55,54,56,68)        -27.2978                                         !
 ! D152  D(57,54,56,59)         32.1097                                         !
 ! D153  D(57,54,56,68)       -149.3962                                         !
 ! D154  D(52,54,57,58)         62.8611                                         !
 ! D155  D(52,54,57,60)       -179.9003                                         !
 ! D156  D(52,54,57,64)        -56.9758                                         !
 ! D157  D(55,54,57,58)       -179.9383                                         !
 ! D158  D(55,54,57,60)        -62.6998                                         !
 ! D159  D(55,54,57,64)         60.2247                                         !
 ! D160  D(56,54,57,58)        -57.7942                                         !
 ! D161  D(56,54,57,60)         59.4444                                         !
 ! D162  D(56,54,57,64)       -177.6311                                         !
 ! D163  D(54,56,68,69)         -1.7403                                         !
 ! D164  D(54,56,68,70)       -175.2822                                         !
 ! D165  D(59,56,68,69)        176.7248                                         !
 ! D166  D(59,56,68,70)          3.1829                                         !
 ! D167  D(54,57,60,61)         59.5063                                         !
 ! D168  D(54,57,60,62)        178.6699                                         !
 ! D169  D(54,57,60,63)        -61.6257                                         !
 ! D170  D(58,57,60,61)        176.258                                          !
 ! D171  D(58,57,60,62)        -64.5784                                         !
 ! D172  D(58,57,60,63)         55.126                                          !
 ! D173  D(64,57,60,61)        -64.0172                                         !
 ! D174  D(64,57,60,62)         55.1463                                         !
 ! D175  D(64,57,60,63)        174.8508                                         !
 ! D176  D(54,57,64,65)        -65.6274                                         !
 ! D177  D(54,57,64,66)         54.7486                                         !
 ! D178  D(54,57,64,67)        175.6437                                         !
 ! D179  D(58,57,64,65)        175.9417                                         !
 ! D180  D(58,57,64,66)        -63.6823                                         !
 ! D181  D(58,57,64,67)         57.2128                                         !
 ! D182  D(60,57,64,65)         57.1736                                         !
 ! D183  D(60,57,64,66)        177.5496                                         !
 ! D184  D(60,57,64,67)        -61.5553                                         !
 ! D185  D(56,68,70,71)         33.2102                                         !
 ! D186  D(56,68,70,72)        -84.4697                                         !
 ! D187  D(56,68,70,73)        153.3962                                         !
 ! D188  D(69,68,70,71)       -140.5338                                         !
 ! D189  D(69,68,70,72)        101.7863                                         !
 ! D190  D(69,68,70,73)        -20.3478                                         !
 ! D191  D(68,70,72,75)       -111.9303                                         !
 ! D192  D(68,70,72,82)         66.1281                                         !
 ! D193  D(71,70,72,75)        130.6171                                         !
 ! D194  D(71,70,72,82)        -51.3245                                         !
 ! D195  D(73,70,72,75)          9.1972                                         !
 ! D196  D(73,70,72,82)       -172.7444                                         !
 ! D197  D(68,70,73,74)        176.0036                                         !
 ! D198  D(68,70,73,76)        -63.7583                                         !
 ! D199  D(68,70,73,80)         55.9839                                         !
 ! D200  D(71,70,73,74)        -65.2811                                         !
 ! D201  D(71,70,73,76)         54.957                                          !
 ! D202  D(71,70,73,80)        174.6992                                         !
 ! D203  D(72,70,73,74)         54.9458                                         !
 ! D204  D(72,70,73,76)        175.1839                                         !
 ! D205  D(72,70,73,80)        -65.0739                                         !
 ! D206  D(70,72,82,83)          3.2083                                         !
 ! D207  D(70,72,82,84)       -175.5425                                         !
 ! D208  D(75,72,82,83)       -178.7868                                         !
 ! D209  D(75,72,82,84)          2.4625                                         !
 ! D210  D(70,73,76,77)        -57.8938                                         !
 ! D211  D(70,73,76,78)         63.2257                                         !
 ! D212  D(70,73,76,79)       -177.8757                                         !
 ! D213  D(74,73,76,77)         60.8221                                         !
 ! D214  D(74,73,76,78)       -178.0583                                         !
 ! D215  D(74,73,76,79)        -59.1598                                         !
 ! D216  D(80,73,76,77)       -178.9745                                         !
 ! D217  D(80,73,76,78)        -57.855                                          !
 ! D218  D(80,73,76,79)         61.0436                                         !
 ! D219  D(70,73,80,81)         62.1671                                         !
 ! D220  D(74,73,80,81)        -55.4624                                         !
 ! D221  D(76,73,80,81)       -174.8711                                         !
 ! D222  D(72,82,84,85)         54.7902                                         !
 ! D223  D(72,82,84,86)        -63.4636                                         !
 ! D224  D(72,82,84,87)        172.9747                                         !
 ! D225  D(83,82,84,85)       -123.9345                                         !
 ! D226  D(83,82,84,86)        117.8117                                         !
 ! D227  D(83,82,84,87)         -5.75                                           !
 ! D228  D(82,84,86,89)        -38.9102                                         !
 ! D229  D(82,84,86,98)        137.6565                                         !
 ! D230  D(85,84,86,89)       -157.1599                                         !
 ! D231  D(85,84,86,98)         19.4067                                         !
 ! D232  D(87,84,86,89)         84.0867                                         !
 ! D233  D(87,84,86,98)        -99.3466                                         !
 ! D234  D(82,84,87,88)        -65.9588                                         !
 ! D235  D(82,84,87,90)         52.3867                                         !
 ! D236  D(82,84,87,94)        176.9558                                         !
 ! D237  D(85,84,87,88)         52.032                                          !
 ! D238  D(85,84,87,90)        170.3775                                         !
 ! D239  D(85,84,87,94)        -65.0535                                         !
 ! D240  D(86,84,87,88)        170.6001                                         !
 ! D241  D(86,84,87,90)        -71.0544                                         !
 ! D242  D(86,84,87,94)         53.5146                                         !
 ! D243  D(84,86,98,99)         11.5556                                         !
 ! D244  D(84,86,98,100)       140.1712                                         !
 ! D245  D(89,86,98,99)       -171.9903                                         !
 ! D246  D(89,86,98,100)       -43.3747                                         !
 ! D247  D(84,87,90,91)         54.9501                                         !
 ! D248  D(84,87,90,92)        -66.6925                                         !
 ! D249  D(84,87,90,93)        174.2848                                         !
 ! D250  D(88,87,90,91)        171.5113                                         !
 ! D251  D(88,87,90,92)         49.8687                                         !
 ! D252  D(88,87,90,93)        -69.154                                          !
 ! D253  D(94,87,90,91)        -69.8813                                         !
 ! D254  D(94,87,90,92)        168.4761                                         !
 ! D255  D(94,87,90,93)         49.4534                                         !
 ! D256  D(84,87,94,95)        -74.2854                                         !
 ! D257  D(84,87,94,96)        167.5998                                         !
 ! D258  D(84,87,94,97)         45.8252                                         !
 ! D259  D(88,87,94,95)        170.3993                                         !
 ! D260  D(88,87,94,96)         52.2845                                         !
 ! D261  D(88,87,94,97)        -69.4901                                         !
 ! D262  D(90,87,94,95)         51.6894                                         !
 ! D263  D(90,87,94,96)        -66.4254                                         !
 ! D264  D(90,87,94,97)        171.8                                            !
 ! D265  D(86,98,100,101)      -16.2221                                         !
 ! D266  D(86,98,100,102)     -132.4715                                         !
 ! D267  D(86,98,100,103)      106.9882                                         !
 ! D268  D(99,98,100,101)      119.1236                                         !
 ! D269  D(99,98,100,102)        2.8742                                         !
 ! D270  D(99,98,100,103)     -117.6661                                         !
 ! D271  D(98,100,102,106)      -0.2896                                         !
 ! D272  D(98,100,102,120)    -179.3363                                         !
 ! D273  D(101,100,102,106)   -116.4814                                         !
 ! D274  D(101,100,102,120)     64.472                                          !
 ! D275  D(103,100,102,106)    123.3868                                         !
 ! D276  D(103,100,102,120)    -55.6599                                         !
 ! D277  D(98,100,103,104)     165.25                                           !
 ! D278  D(98,100,103,105)      52.8882                                         !
 ! D279  D(98,100,103,107)     -72.3068                                         !
 ! D280  D(101,100,103,104)    -71.8101                                         !
 ! D281  D(101,100,103,105)    175.8281                                         !
 ! D282  D(101,100,103,107)     50.6331                                         !
 ! D283  D(102,100,103,104)     48.0661                                         !
 ! D284  D(102,100,103,105)    -64.2957                                         !
 ! D285  D(102,100,103,107)    170.5093                                         !
 ! D286  D(100,103,107,108)   -108.5222                                         !
 ! D287  D(100,103,107,109)      6.2948                                         !
 ! D288  D(100,103,107,110)    129.8867                                         !
 ! D289  D(104,103,107,108)     10.8706                                         !
 ! D290  D(104,103,107,109)    125.6876                                         !
 ! D291  D(104,103,107,110)   -110.7205                                         !
 ! D292  D(105,103,107,108)    128.1558                                         !
 ! D293  D(105,103,107,109)   -117.0271                                         !
 ! D294  D(105,103,107,110)      6.5648                                         !
 ! D295  D(103,107,110,111)     67.7841                                         !
 ! D296  D(103,107,110,112)   -175.5705                                         !
 ! D297  D(103,107,110,113)    -53.1509                                         !
 ! D298  D(108,107,110,111)    -55.3341                                         !
 ! D299  D(108,107,110,112)     61.3113                                         !
 ! D300  D(108,107,110,113)   -176.2691                                         !
 ! D301  D(109,107,110,111)   -168.6461                                         !
 ! D302  D(109,107,110,112)    -52.0007                                         !
 ! D303  D(109,107,110,113)     70.4189                                         !
 ! D304  D(107,110,113,114)   -158.5004                                         !
 ! D305  D(107,110,113,115)     80.0747                                         !
 ! D306  D(107,110,113,116)    -37.8813                                         !
 ! D307  D(111,110,113,114)     78.5112                                         !
 ! D308  D(111,110,113,115)    -42.9137                                         !
 ! D309  D(111,110,113,116)   -160.8697                                         !
 ! D310  D(112,110,113,114)    -35.9977                                         !
 ! D311  D(112,110,113,115)   -157.4226                                         !
 ! D312  D(112,110,113,116)     84.6213                                         !
 ! D313  D(110,113,116,117)   -163.5431                                         !
 ! D314  D(110,113,116,118)    -38.947                                          !
 ! D315  D(110,113,116,119)     76.4373                                         !
 ! D316  D(114,113,116,117)    -40.929                                          !
 ! D317  D(114,113,116,118)     83.6671                                         !
 ! D318  D(114,113,116,119)   -160.9486                                         !
 ! D319  D(115,113,116,117)     74.7756                                         !
 ! D320  D(115,113,116,118)   -160.6283                                         !
 ! D321  D(115,113,116,119)    -45.244                                          !
 --------------------------------------------------------------------------------
 Symmetry turned off by external request.
 Stoichiometry    C39H62N9O11(1+)
 Framework group  C1[X(C39H62N9O11)]
 Deg. of freedom   357
 Full point group                 C1      NOp   1
                          Input orientation:                          
 ---------------------------------------------------------------------
 Center     Atomic      Atomic             Coordinates (Angstroms)
 Number     Number       Type             X           Y           Z
 ---------------------------------------------------------------------
      1          7           0       -3.267025   -1.698888   -8.633140
      2          1           0       -3.098030   -0.678698   -8.676911
      3          1           0       -3.336941   -2.100495   -9.571294
      4          1           0       -2.402673   -2.091299   -8.164241
      5          6           0       -4.529608   -1.891293   -7.823644
      6          1           0       -5.367785   -1.733337   -8.510631
      7          6           0       -4.479708   -0.735873   -6.790284
      8          6           0       -4.571367   -3.291532   -7.211234
      9          1           0       -5.572918   -3.501497   -6.825226
     10          1           0       -4.354779   -4.055163   -7.964932
     11          1           0       -3.865695   -3.380450   -6.380322
     12          8           0       -3.649056    0.159120   -6.964621
     13          7           0       -5.323024   -0.790745   -5.736903
     14          1           0       -5.779818   -1.679945   -5.567983
     15          6           0       -4.899267   -0.116542   -4.494750
     16          1           0       -4.550835    0.877493   -4.773335
     17          6           0       -3.731518   -0.962179   -3.948486
     18          6           0       -6.036668   -0.013377   -3.459271
     19          1           0       -6.792295    0.684624   -3.840470
     20          1           0       -6.516626   -0.994689   -3.357229
     21          8           0       -3.797251   -2.194824   -3.988255
     22          6           0       -5.479885    0.407105   -2.128329
     23          6           0       -5.473581   -0.351501   -0.983049
     24          1           0       -5.938053   -1.309487   -0.792969
     25          6           0       -4.688809    1.582160   -1.847640
     26          6           0       -4.228554    1.463080   -0.506827
     27          6           0       -4.286470    2.700357   -2.603283
     28          1           0       -4.646306    2.844504   -3.619274
     29          7           0       -4.731723    0.278025   -0.006209
     30          1           0       -4.612665   -0.051814    0.939155
     31          6           0       -3.002847    3.500484   -0.692146
     32          1           0       -2.352015    4.257052   -0.264441
     33          6           0       -3.398017    2.419376    0.086908
     34          1           0       -3.077519    2.325458    1.120507
     35          6           0       -3.441848    3.639803   -2.024321
     36          1           0       -3.122045    4.502499   -2.600678
     37          7           0       -2.649604   -0.276832   -3.534337
     38          1           0       -2.668232    0.736464   -3.460060
     39          6           0       -1.444299   -0.936522   -3.047450
     40          1           0       -1.746133   -1.904106   -2.634426
     41          6           0       -0.875972   -0.003876   -1.971128
     42          6           0       -0.420903   -1.155764   -4.190532
     43          1           0        0.003688   -0.187507   -4.476687
     44          1           0        0.400791   -1.780596   -3.824758
     45          8           0       -0.770132    1.200404   -2.208446
     46          6           0       -1.112026   -1.804923   -5.395741
     47          1           0       -1.645774   -2.711476   -5.082446
     48          1           0       -1.877662   -1.128458   -5.783124
     49          6           0       -0.285242   -2.192828   -6.586489
     50          8           0       -0.777864   -2.434892   -7.689216
     51          8           0        1.021273   -2.296533   -6.363216
     52          7           0       -0.549736   -0.563309   -0.786406
     53          1           0       -0.578664   -1.568075   -0.675390
     54          6           0       -0.035121    0.242202    0.327535
     55          1           0       -0.568215    1.198400    0.282275
     56          6           0        1.468884    0.471255    0.083124
     57          6           0       -0.300283   -0.436010    1.682353
     58          1           0        0.251789   -1.385458    1.683446
     59          8           0        2.322479   -0.304726    0.525758
     60          6           0        0.247175    0.431855    2.826090
     61          1           0       -0.226612    1.421988    2.828338
     62          1           0        0.038319   -0.038121    3.792331
     63          1           0        1.329025    0.563956    2.746004
     64          6           0       -1.797356   -0.711855    1.888592
     65          1           0       -2.348634    0.233778    1.961337
     66          1           0       -2.238297   -1.293139    1.071311
     67          1           0       -1.954851   -1.262813    2.821379
     68          7           0        1.767475    1.551624   -0.667693
     69          1           0        1.026015    2.131078   -1.049273
     70          6           0        3.132107    1.863671   -1.082830
     71          1           0        3.663751    0.917012   -1.235717
     72          6           0        3.846239    2.645723    0.044370
     73          6           0        3.099351    2.676664   -2.390373
     74          1           0        4.140962    2.948502   -2.622225
     75          8           0        4.163283    3.844948   -0.092912
     76          6           0        2.507907    1.894444   -3.557078
     77          1           0        3.070467    0.970549   -3.732618
     78          1           0        1.460811    1.645011   -3.358802
     79          1           0        2.546913    2.509115   -4.460946
     80          8           0        2.304015    3.842194   -2.212163
     81          1           0        2.758047    4.355928   -1.517700
     82          7           0        4.047336    1.944372    1.162884
     83          1           0        3.764105    0.967619    1.150246
     84          6           0        4.616118    2.502564    2.385408
     85          1           0        4.016298    3.373730    2.671540
     86          6           0        6.060664    2.974474    2.154262
     87          6           0        4.543546    1.458395    3.536901
     88          1           0        3.470877    1.316639    3.737560
     89          8           0        6.842380    2.332950    1.444194
     90          6           0        5.152469    0.098519    3.152379
     91          1           0        6.181345    0.220487    2.800267
     92          1           0        4.583903   -0.423671    2.373465
     93          1           0        5.163898   -0.555799    4.030397
     94          6           0        5.206745    2.001792    4.813018
     95          1           0        6.298918    1.997977    4.715299
     96          1           0        4.954323    1.356324    5.660602
     97          1           0        4.916286    3.028050    5.055565
     98          7           0        6.355820    4.173547    2.733014
     99          1           0        5.662840    4.572809    3.423750
    100          6           0        7.638068    4.496577    3.411218
    101          1           0        8.171779    3.564050    3.626424
    102          6           0        7.191809    5.171388    4.788508
    103          6           0        8.557273    5.442840    2.634191
    104          1           0        9.302246    5.786539    3.356185
    105          1           0        7.978540    6.338824    2.364327
    106          8           0        5.932466    5.256196    4.932998
    107          6           0        9.234853    4.803909    1.395489
    108          1           0       10.303374    4.655936    1.587178
    109          1           0        8.829393    3.795608    1.243888
    110          6           0        9.115199    5.600952    0.080528
    111          1           0        9.689291    6.533065    0.142175
    112          1           0        9.560814    5.014448   -0.733765
    113          6           0        7.681822    5.989335   -0.315808
    114          1           0        7.604507    6.199923   -1.385453
    115          1           0        7.329606    6.866897    0.230729
    116          7           0        6.716480    4.888511    0.014373
    117          1           0        5.794674    4.932260   -0.437066
    118          1           0        7.089278    3.949543   -0.168389
    119          1           0        6.507093    4.860719    1.049732
    120          8           0        8.122947    5.533628    5.513037
    121          1           0        1.457285   -2.578255   -7.191833
 ---------------------------------------------------------------------
 Rotational constants (GHZ):           0.0804798           0.0175764           0.0161496
 Standard basis: 6-31G(d) (6D, 7F)
  1009 basis functions,  1900 primitive gaussians,  1009 cartesian basis functions
   223 alpha electrons      223 beta electrons
       nuclear repulsion energy      9185.8832393309 Hartrees.
 NAtoms=  121 NActive=  121 NUniq=  121 SFac= 1.00D+00 NAtFMM=   60 NAOKFM=T Big=T
 Integral buffers will be    131072 words long.
 Raffenetti 2 integral format.
 Two-electron integral symmetry is turned off.
 Nuclear repulsion after empirical dispersion term =     9185.6992958391 Hartrees.
 One-electron integrals computed using PRISM.
 NBasis=  1009 RedAO= T EigKep=  3.71D-04  NBF=  1009
 NBsUse=  1009 1.00D-06 EigRej= -1.00D+00 NBFU=  1009
 Initial guess from the checkpoint file:  "conf-879.chk"
 B after Tr=     0.000000    0.000000    0.000000
         Rot=    1.000000    0.000000    0.000000    0.000000 Ang=   0.00 deg.
 Requested convergence on RMS density matrix=1.00D-08 within 128 cycles.
 Requested convergence on MAX density matrix=1.00D-06.
 Requested convergence on             energy=1.00D-06.
 No special actions if energy rises.
 SCF Done:  E(RB3LYP) =  -2843.80381532     A.U. after    2 cycles
            NFock=  2  Conv=0.96D-08     -V/T= 2.0093
 Hyperfine terms turned off by default for NAtoms > 100.

 **********************************************************************

            Population analysis using the SCF Density.

 **********************************************************************

 Alpha  occ. eigenvalues --  -19.33247 -19.28262 -19.27405 -19.22663 -19.22303
 Alpha  occ. eigenvalues --  -19.21214 -19.20900 -19.20502 -19.17603 -19.08181
 Alpha  occ. eigenvalues --  -19.06727 -14.58721 -14.50305 -14.49981 -14.47234
 Alpha  occ. eigenvalues --  -14.46986 -14.46557 -14.44710 -14.43353 -14.38579
 Alpha  occ. eigenvalues --  -10.46171 -10.44236 -10.41189 -10.39756 -10.39512
 Alpha  occ. eigenvalues --  -10.37470 -10.37196 -10.34968 -10.34624 -10.33902
 Alpha  occ. eigenvalues --  -10.33584 -10.32421 -10.31961 -10.31867 -10.31863
 Alpha  occ. eigenvalues --  -10.31351 -10.30770 -10.30764 -10.30329 -10.30171
 Alpha  occ. eigenvalues --  -10.29004 -10.28267 -10.27275 -10.27112 -10.27019
 Alpha  occ. eigenvalues --  -10.26953 -10.26537 -10.26426 -10.26156 -10.26011
 Alpha  occ. eigenvalues --  -10.25736 -10.25163 -10.25113 -10.25110 -10.23525
 Alpha  occ. eigenvalues --  -10.23104 -10.22011 -10.21363 -10.20550  -1.24459
 Alpha  occ. eigenvalues --   -1.19669  -1.15245  -1.14977  -1.14194  -1.13162
 Alpha  occ. eigenvalues --   -1.12685  -1.11779  -1.09043  -1.08646  -1.06588
 Alpha  occ. eigenvalues --   -1.06449  -1.05743  -1.03664  -1.03246  -1.01237
 Alpha  occ. eigenvalues --   -1.01107  -0.99800  -0.95379  -0.93663  -0.92270
 Alpha  occ. eigenvalues --   -0.92201  -0.91979  -0.90367  -0.89703  -0.86588
 Alpha  occ. eigenvalues --   -0.86272  -0.86044  -0.85054  -0.84695  -0.81827
 Alpha  occ. eigenvalues --   -0.81453  -0.81008  -0.80342  -0.80249  -0.78927
 Alpha  occ. eigenvalues --   -0.77295  -0.76852  -0.76416  -0.75618  -0.74312
 Alpha  occ. eigenvalues --   -0.73853  -0.73374  -0.72572  -0.72419  -0.70817
 Alpha  occ. eigenvalues --   -0.70566  -0.70343  -0.69372  -0.69038  -0.67878
 Alpha  occ. eigenvalues --   -0.67651  -0.67494  -0.67109  -0.66070  -0.65775
 Alpha  occ. eigenvalues --   -0.65147  -0.64548  -0.64429  -0.63694  -0.63331
 Alpha  occ. eigenvalues --   -0.62947  -0.62631  -0.62198  -0.61785  -0.61258
 Alpha  occ. eigenvalues --   -0.61132  -0.60532  -0.60070  -0.59694  -0.59471
 Alpha  occ. eigenvalues --   -0.59148  -0.58697  -0.58464  -0.58033  -0.57179
 Alpha  occ. eigenvalues --   -0.56832  -0.56644  -0.56036  -0.55747  -0.55249
 Alpha  occ. eigenvalues --   -0.54950  -0.54785  -0.54400  -0.54185  -0.53741
 Alpha  occ. eigenvalues --   -0.53229  -0.53015  -0.52740  -0.52683  -0.52631
 Alpha  occ. eigenvalues --   -0.52428  -0.51845  -0.51636  -0.51476  -0.51376
 Alpha  occ. eigenvalues --   -0.51326  -0.51149  -0.50871  -0.50480  -0.50026
 Alpha  occ. eigenvalues --   -0.49589  -0.49427  -0.49283  -0.48999  -0.48717
 Alpha  occ. eigenvalues --   -0.48339  -0.48217  -0.47739  -0.47521  -0.47378
 Alpha  occ. eigenvalues --   -0.47176  -0.46865  -0.46686  -0.46580  -0.46363
 Alpha  occ. eigenvalues --   -0.46177  -0.46059  -0.45852  -0.45342  -0.45046
 Alpha  occ. eigenvalues --   -0.44872  -0.44544  -0.44242  -0.43507  -0.43221
 Alpha  occ. eigenvalues --   -0.42845  -0.42770  -0.42363  -0.42216  -0.42141
 Alpha  occ. eigenvalues --   -0.42040  -0.41847  -0.41615  -0.41507  -0.41305
 Alpha  occ. eigenvalues --   -0.41230  -0.40686  -0.40312  -0.39020  -0.38555
 Alpha  occ. eigenvalues --   -0.38417  -0.38009  -0.37890  -0.37589  -0.37430
 Alpha  occ. eigenvalues --   -0.36914  -0.36567  -0.36448  -0.36210  -0.36093
 Alpha  occ. eigenvalues --   -0.35145  -0.35121  -0.34619  -0.34097  -0.33528
 Alpha  occ. eigenvalues --   -0.32496  -0.31419  -0.30507  -0.30217  -0.28943
 Alpha  occ. eigenvalues --   -0.23199  -0.23007  -0.20803
 Alpha virt. eigenvalues --   -0.13969  -0.12758  -0.09707  -0.09601  -0.09346
 Alpha virt. eigenvalues --   -0.08340  -0.07494  -0.05924  -0.05905  -0.05374
 Alpha virt. eigenvalues --   -0.04959  -0.04411  -0.03482  -0.02817  -0.02587
 Alpha virt. eigenvalues --   -0.01527  -0.01289  -0.01032  -0.01029  -0.00799
 Alpha virt. eigenvalues --   -0.00362   0.00429   0.01020   0.01521   0.02081
 Alpha virt. eigenvalues --    0.02245   0.02651   0.03201   0.03371   0.03524
 Alpha virt. eigenvalues --    0.03912   0.04090   0.04275   0.04473   0.04739
[...]
 Alpha virt. eigenvalues --    0.84605   0.84875   0.84957   0.85201   0.85638
 Alpha virt. eigenvalues --    0.85721   0.85962   0.86075   0.86393   0.86981
 Alpha virt. eigenvalues --    0.87150   0.87327   0.87431   0.87601   0.88105
 Alpha virt. eigenvalues --    0.88441   0.88583   0.88991   0.89201   0.89642
 Alpha virt. eigenvalues --    0.89986   0.90237   0.90315   0.90604   0.90844
 Alpha virt. eigenvalues --    0.91461   0.91677   0.91774   0.91934   0.92389
 Alpha virt. eigenvalues --    0.93178   0.93445   0.93798   0.94583   0.94721
 Alpha virt. eigenvalues --    0.95273   0.96013   0.96386   0.96741   0.96879
 Alpha virt. eigenvalues --    0.97221   0.97296   0.97730   0.98485   0.99403
 Alpha virt. eigenvalues --    0.99427   0.99508   1.00332   1.00695   1.01221
 Alpha virt. eigenvalues --    1.01757   1.02158   1.02409   1.02935   1.03477
 Alpha virt. eigenvalues --    1.03907   1.04350   1.04536   1.04808   1.05294
 Alpha virt. eigenvalues --    1.05958   1.06176   1.06769   1.07201   1.07466
 Alpha virt. eigenvalues --    1.08072   1.08306   1.09103   1.09935   1.10242
 Alpha virt. eigenvalues --    1.10996   1.11945   1.12624   1.12933   1.13542
 Alpha virt. eigenvalues --    1.13861   1.14367   1.14478   1.14997   1.15165
 Alpha virt. eigenvalues --    1.15405   1.16241   1.16450   1.16733   1.17300
 Alpha virt. eigenvalues --    1.17902   1.17990   1.19214   1.19823   1.20202
 Alpha virt. eigenvalues --    1.20469   1.21085   1.22031   1.22413   1.22704
 Alpha virt. eigenvalues --    1.23886   1.24401   1.24982   1.25403   1.25903
 Alpha virt. eigenvalues --    1.26424   1.26554   1.27114   1.27479   1.28221
 Alpha virt. eigenvalues --    1.28878   1.29117   1.29676   1.30677   1.31538
 Alpha virt. eigenvalues --    1.32044   1.32306   1.32933   1.33636   1.34008
 Alpha virt. eigenvalues --    1.34456   1.35220   1.35325   1.36522   1.37146
 Alpha virt. eigenvalues --    1.37633   1.38014   1.38254   1.38353   1.39003
 Alpha virt. eigenvalues --    1.39056   1.39919   1.40114   1.40528   1.41057
 Alpha virt. eigenvalues --    1.41397   1.41921   1.42222   1.42684   1.42794
 Alpha virt. eigenvalues --    1.43322   1.44018   1.44701   1.45573   1.45959
 Alpha virt. eigenvalues --    1.46596   1.46827   1.47896   1.48729   1.49500
 Alpha virt. eigenvalues --    1.49545   1.49896   1.50362   1.51287   1.51558
 Alpha virt. eigenvalues --    1.52759   1.53342   1.53859   1.54078   1.54715
 Alpha virt. eigenvalues --    1.55267   1.55518   1.56592   1.57261   1.58079
 Alpha virt. eigenvalues --    1.58380   1.58901   1.59826   1.60087   1.60512
 Alpha virt. eigenvalues --    1.61474   1.61590   1.62458   1.62819   1.63241
 Alpha virt. eigenvalues --    1.63708   1.64281   1.64586   1.65055   1.65602
 Alpha virt. eigenvalues --    1.65834   1.66099   1.66437   1.66634   1.67398
 Alpha virt. eigenvalues --    1.67955   1.68280   1.68849   1.68971   1.69221
 Alpha virt. eigenvalues --    1.69625   1.69872   1.70127   1.71299   1.71669
 Alpha virt. eigenvalues --    1.71941   1.72125   1.72386   1.72696   1.72983
 Alpha virt. eigenvalues --    1.73254   1.73358   1.73822   1.74181   1.74515
 Alpha virt. eigenvalues --    1.74995   1.75683   1.76227   1.76477   1.77176
 Alpha virt. eigenvalues --    1.77666   1.77944   1.78125   1.78195   1.78684
 Alpha virt. eigenvalues --    1.79172   1.80162   1.80769   1.81128   1.81274
 Alpha virt. eigenvalues --    1.81814   1.82420   1.82621   1.83291   1.83325
 Alpha virt. eigenvalues --    1.83462   1.83918   1.84394   1.84635   1.84946
 Alpha virt. eigenvalues --    1.85491   1.85893   1.86470   1.86622   1.86829
 Alpha virt. eigenvalues --    1.87201   1.87435   1.87782   1.88042   1.88475
 Alpha virt. eigenvalues --    1.88527   1.89104   1.89648   1.89697   1.90316
 Alpha virt. eigenvalues --    1.90547   1.90893   1.91031   1.91285   1.91643
 Alpha virt. eigenvalues --    1.92221   1.92516   1.92649   1.92974   1.93140
 Alpha virt. eigenvalues --    1.93615   1.93919   1.94299   1.94674   1.95621
 Alpha virt. eigenvalues --    1.95819   1.96224   1.96859   1.96921   1.97349
 Alpha virt. eigenvalues --    1.97888   1.98269   1.98926   1.99059   1.99321
 Alpha virt. eigenvalues --    1.99623   1.99798   2.00000   2.00735   2.01137
 Alpha virt. eigenvalues --    2.01231   2.01677   2.02440   2.02855   2.03512
 Alpha virt. eigenvalues --    2.04879   2.05301   2.05441   2.05648   2.06260
 Alpha virt. eigenvalues --    2.06542   2.07156   2.07463   2.07709   2.08084
 Alpha virt. eigenvalues --    2.08892   2.09435   2.09576   2.10392   2.10796
 Alpha virt. eigenvalues --    2.11674   2.11746   2.12386   2.12823   2.13597
 Alpha virt. eigenvalues --    2.13730   2.14266   2.14618   2.15659   2.16022
 Alpha virt. eigenvalues --    2.16494   2.17219   2.17327   2.17553   2.18292
 Alpha virt. eigenvalues --    2.18651   2.18858   2.19435   2.19663   2.20588
 Alpha virt. eigenvalues --    2.20732   2.21361   2.22254   2.22426   2.22968
 Alpha virt. eigenvalues --    2.23058   2.23833   2.24152   2.24598   2.25311
 Alpha virt. eigenvalues --    2.25349   2.25800   2.27061   2.27484   2.28139
 Alpha virt. eigenvalues --    2.28594   2.28822   2.29299   2.30166   2.31023
 Alpha virt. eigenvalues --    2.31321   2.32248   2.33141   2.33605   2.34194
 Alpha virt. eigenvalues --    2.34336   2.34603   2.35585   2.36326   2.36727
 Alpha virt. eigenvalues --    2.36977   2.37422   2.38123   2.39277   2.39463
 Alpha virt. eigenvalues --    2.39828   2.40074   2.41272   2.41454   2.42217
 Alpha virt. eigenvalues --    2.42606   2.42855   2.43123   2.43909   2.44454
 Alpha virt. eigenvalues --    2.44851   2.46537   2.46795   2.47459   2.48005
 Alpha virt. eigenvalues --    2.48519   2.49418   2.49532   2.49865   2.51074
 Alpha virt. eigenvalues --    2.51797   2.51970   2.52327   2.52975   2.53421
 Alpha virt. eigenvalues --    2.53804   2.54128   2.54805   2.55064   2.55830
 Alpha virt. eigenvalues --    2.56997   2.57754   2.58671   2.58914   2.59219
 Alpha virt. eigenvalues --    2.59742   2.61000   2.61433   2.61780   2.62569
 Alpha virt. eigenvalues --    2.63137   2.64064   2.64386   2.64865   2.66176
 Alpha virt. eigenvalues --    2.66799   2.66889   2.67358   2.68900   2.70105
 Alpha virt. eigenvalues --    2.70389   2.70569   2.71904   2.72765   2.73772
 Alpha virt. eigenvalues --    2.74391   2.76191   2.76475   2.76833   2.78240
 Alpha virt. eigenvalues --    2.79256   2.79447   2.80772   2.81228   2.82661
 Alpha virt. eigenvalues --    2.84488   2.85061   2.86322   2.87384   2.89067
 Alpha virt. eigenvalues --    2.89468   2.90673   2.90836   2.92702   2.93229
 Alpha virt. eigenvalues --    2.94498   2.95592   2.95987   2.96321   2.96752
 Alpha virt. eigenvalues --    2.99300   3.00002   3.02527   3.04900   3.06082
 Alpha virt. eigenvalues --    3.07041   3.08982   3.09692   3.13574   3.17219
 Alpha virt. eigenvalues --    3.19398   3.35981   3.68712   3.74742   3.76968
 Alpha virt. eigenvalues --    3.83144   3.90007   3.92541   3.94168   3.95994
 Alpha virt. eigenvalues --    3.97152   3.97719   3.98047   4.01250   4.03689
 Alpha virt. eigenvalues --    4.04109   4.04931   4.06038   4.09025   4.10148
 Alpha virt. eigenvalues --    4.11691   4.12222   4.12663   4.13179   4.13200
 Alpha virt. eigenvalues --    4.13842   4.14833   4.17056   4.19832   4.21045
 Alpha virt. eigenvalues --    4.22205   4.23225   4.24888   4.26130   4.26603
 Alpha virt. eigenvalues --    4.28901   4.29322   4.30126   4.33177   4.33280
 Alpha virt. eigenvalues --    4.34622   4.35674   4.37186   4.37437   4.39739
 Alpha virt. eigenvalues --    4.42325   4.42763   4.45958   4.46921   4.47962
 Alpha virt. eigenvalues --    4.49646   4.50168   4.53085   4.55324   4.57749
 Alpha virt. eigenvalues --    4.62120   4.62792   4.64008   4.64951   4.70986
 Alpha virt. eigenvalues --    4.75066
          Condensed to atoms (all electrons):
 Mulliken charges:
               1
     1  N   -0.768972
     2  H    0.418048
     3  H    0.404783
     4  H    0.446480
     5  C   -0.118041
     6  H    0.227571
     7  C    0.649343
     8  C   -0.491375
     9  H    0.198521
    10  H    0.188758
    11  H    0.218675
    12  O   -0.522520
    13  N   -0.574350
    14  H    0.353187
    15  C   -0.076814
    16  H    0.196000
    17  C    0.627695
    18  C   -0.355426
    19  H    0.181197
    20  H    0.156155
    21  O   -0.567638
    22  C    0.040497
    23  C    0.014393
    24  H    0.166028
    25  C    0.075209
    26  C    0.316397
    27  C   -0.252122
    28  H    0.132163
    29  N   -0.690814
    30  H    0.343349
    31  C   -0.142530
    32  H    0.144966
    33  C   -0.168642
    34  H    0.143791
    35  C   -0.119916
    36  H    0.143156
    37  N   -0.600596
    38  H    0.379110
    39  C   -0.050263
    40  H    0.177014
    41  C    0.635273
    42  C   -0.269282
    43  H    0.186469
    44  H    0.175128
    45  O   -0.533889
    46  C   -0.413257
    47  H    0.220996
    48  H    0.193589
    49  C    0.625472
    50  O   -0.521774
    51  O   -0.524618
    52  N   -0.612691
    53  H    0.344091
    54  C   -0.039891
    55  H    0.180775
    56  C    0.631492
    57  C   -0.105474
    58  H    0.158215
    59  O   -0.553718
    60  C   -0.474167
    61  H    0.145972
    62  H    0.165932
    63  H    0.181483
    64  C   -0.464497
    65  H    0.142668
    66  H    0.135570
    67  H    0.169504
    68  N   -0.597773
    69  H    0.375875
    70  C   -0.084113
    71  H    0.185002
    72  C    0.651458
    73  C    0.117002
    74  H    0.125821
    75  O   -0.609895
    76  C   -0.474361
    77  H    0.139567
    78  H    0.175757
    79  H    0.165828
    80  O   -0.641868
    81  H    0.412948
    82  N   -0.622654
    83  H    0.397664
    84  C   -0.018755
    85  H    0.174300
    86  C    0.589882
    87  C   -0.126767
    88  H    0.141239
    89  O   -0.553257
    90  C   -0.476155
    91  H    0.181079
    92  H    0.147389
    93  H    0.156594
    94  C   -0.481339
    95  H    0.163394
    96  H    0.149668
    97  H    0.203766
    98  N   -0.679726
    99  H    0.376549
   100  C   -0.073878
   101  H    0.157015
   102  C    0.598923
   103  C   -0.294291
   104  H    0.200268
   105  H    0.121288
   106  O   -0.615595
   107  C   -0.308808
   108  H    0.164082
   109  H    0.163789
   110  C   -0.292514
   111  H    0.175179
   112  H    0.151358
   113  C   -0.171466
   114  H    0.183410
   115  H    0.203618
   116  N   -0.783811
   117  H    0.413022
   118  H    0.405090
   119  H    0.440655
   120  O   -0.558436
   121  H    0.435146
 Sum of Mulliken charges =   1.00000
 Mulliken charges with hydrogens summed into heavy atoms:
               1
     1  N    0.500340
     5  C    0.109530
     7  C    0.649343
     8  C    0.114578
    12  O   -0.522520
    13  N   -0.221164
    15  C    0.119186
    17  C    0.627695
    18  C   -0.018074
    21  O   -0.567638
    22  C    0.040497
    23  C    0.180421
    25  C    0.075209
    26  C    0.316397
    27  C   -0.119959
    29  N   -0.347465
    31  C    0.002436
    33  C   -0.024851
    35  C    0.023239
    37  N   -0.221486
    39  C    0.126751
    41  C    0.635273
    42  C    0.092315
    45  O   -0.533889
    46  C    0.001328
    49  C    0.625472
    50  O   -0.521774
    51  O   -0.089472
    52  N   -0.268600
    54  C    0.140883
    56  C    0.631492
    57  C    0.052741
    59  O   -0.553718
    60  C    0.019219
    64  C   -0.016755
    68  N   -0.221898
    70  C    0.100890
    72  C    0.651458
    73  C    0.242823
    75  O   -0.609895
    76  C    0.006791
    80  O   -0.228920
    82  N   -0.224990
    84  C    0.155545
    86  C    0.589882
    87  C    0.014471
    89  O   -0.553257
    90  C    0.008908
    94  C    0.035488
    98  N   -0.303176
   100  C    0.083137
   102  C    0.598923
   103  C    0.027265
   106  O   -0.615595
   107  C    0.019063
   110  C    0.034024
   113  C    0.215562
   116  N    0.474956
   120  O   -0.558436
 Electronic spatial extent (au):  <R**2>=          71052.9177
 Charge=              1.0000 electrons
 Dipole moment (field-independent basis, Debye):
    X=            -17.5269    Y=            -11.3729    Z=            -40.4212  Tot=             45.5018
 Quadrupole moment (field-independent basis, Debye-Ang):
   XX=           -283.2247   YY=           -342.4998   ZZ=           -162.8599
   XY=             18.5295   XZ=             -4.0627   YZ=             -9.7404
 Traceless Quadrupole moment (field-independent basis, Debye-Ang):
   XX=            -20.3632   YY=            -79.6383   ZZ=            100.0015
   XY=             18.5295   XZ=             -4.0627   YZ=             -9.7404
 Octapole moment (field-independent basis, Debye-Ang**2):
  XXX=          -1352.6553  YYY=          -1465.5751  ZZZ=          -1372.1486  XYY=           -412.3909
  XXY=           -662.9472  XXZ=           -824.8701  XZZ=          -1643.9142  YZZ=          -1439.8186
  YYZ=           -188.7942  XYZ=           -758.4267
 Hexadecapole moment (field-independent basis, Debye-Ang**3):
 XXXX=         -44132.5191 YYYY=         -16542.8331 ZZZZ=         -13383.8555 XXXY=          -8772.3611
 XXXZ=         -13493.6137 YYYX=          -9700.9836 YYYZ=          -6619.4186 ZZZX=          -6425.6771
 ZZZY=          -2481.0034 XXYY=         -10363.9450 XXZZ=         -12525.5985 YYZZ=          -9110.6624
 XXYZ=          -4647.6648 YYXZ=          -6223.9492 ZZXY=          -4708.7653
 N-N= 9.185699295839D+03 E-N=-2.496086798785D+04  KE= 2.817529635666D+03
 Unable to Open any file for archive entry.
 1\1\GINC-LAC-317\SP\RB3LYP\6-31G(d)\C39H62N9O11(1+)\KENGMITH\25-Jun-20
 22\0\\# B3LYP/6-31G* empiricaldispersion=gd3 guess=read geom=check nos
 ymm integral(ultrafinegrid)\\Candidate Structure: Conf:879 Charge calc
  in gas phase\\1,1\N,0,-3.2670252254,-1.6988880324,-8.6331396572\H,0,-
 3.0980296693,-0.6786977571,-8.6769110073\H,0,-3.3369406362,-2.10049486
 46,-9.5712936467\H,0,-2.402673174,-2.0912993469,-8.1642411628\C,0,-4.5
 296077983,-1.8912931174,-7.8236436968\H,0,-5.3677854284,-1.7333369076,
 -8.5106309939\C,0,-4.4797080668,-0.7358731733,-6.7902840604\C,0,-4.571
 3673803,-3.2915319674,-7.2112339645\H,0,-5.5729180531,-3.5014972768,-6
 .8252258333\H,0,-4.354779351,-4.0551635,-7.9649320996\H,0,-3.865695466
 6,-3.3804496118,-6.3803216751\O,0,-3.6490561163,0.1591195788,-6.964621
 0115\N,0,-5.3230242389,-0.790745364,-5.7369025976\H,0,-5.7798180785,-1
 .6799452739,-5.567983189\C,0,-4.8992670492,-0.1165416458,-4.4947503531
 \H,0,-4.5508354658,0.8774933677,-4.7733353466\C,0,-3.7315184276,-0.962
 1790479,-3.9484857566\C,0,-6.0366682044,-0.0133773472,-3.4592708472\H,
 0,-6.7922950174,0.6846239794,-3.8404703482\H,0,-6.5166261165,-0.994689
 2697,-3.3572290536\O,0,-3.797250691,-2.194823764,-3.988254883\C,0,-5.4
 798846239,0.4071047227,-2.128328921\C,0,-5.4735811628,-0.3515005929,-0
 .9830485263\H,0,-5.9380529122,-1.3094871023,-0.792969126\C,0,-4.688809
 3319,1.5821595115,-1.8476404983\C,0,-4.2285539082,1.4630796421,-0.5068
 266854\C,0,-4.2864702057,2.700356952,-2.6032830518\H,0,-4.6463056341,2
 .8445041191,-3.6192742165\N,0,-4.7317232677,0.2780254201,-0.0062090107
 \H,0,-4.6126646274,-0.0518143358,0.9391548236\C,0,-3.0028472703,3.5004
 837629,-0.6921457944\H,0,-2.3520151967,4.2570519966,-0.2644409216\C,0,
 -3.3980166672,2.419375522,0.0869080104\H,0,-3.0775191619,2.3254582699,
 1.1205072223\C,0,-3.4418479112,3.639802588,-2.0243205355\H,0,-3.122044
 91,4.5024993763,-2.6006779258\N,0,-2.6496038143,-0.2768319238,-3.53433
 69463\H,0,-2.6682320994,0.7364636706,-3.4600595845\C,0,-1.4442986215,-
 0.9365217417,-3.0474503747\H,0,-1.7461329197,-1.9041063234,-2.63442575
 7\C,0,-0.8759720659,-0.0038755302,-1.9711278206\C,0,-0.4209031695,-1.1
 557636879,-4.1905317145\H,0,0.0036875003,-0.1875074515,-4.476687023\H,
 0,0.4007913907,-1.7805957013,-3.8247578725\O,0,-0.7701319478,1.2004039
 183,-2.2084461533\C,0,-1.1120258468,-1.80492267,-5.3957412924\H,0,-1.6
 457739942,-2.7114761811,-5.0824458468\H,0,-1.8776624959,-1.12845759,-5
 .7831242515\C,0,-0.2852423973,-2.1928275599,-6.5864888778\O,0,-0.77786
 4107,-2.4348915783,-7.6892157097\O,0,1.0212726464,-2.296532739,-6.3632
 163972\N,0,-0.549735884,-0.5633094732,-0.7864063337\H,0,-0.5786635704,
 -1.568075291,-0.6753897417\C,0,-0.0351208763,0.2422020592,0.3275351946
 \H,0,-0.5682149796,1.1983997962,0.2822752192\C,0,1.4688839458,0.471254
 513,0.0831243247\C,0,-0.3002829762,-0.436009716,1.6823530333\H,0,0.251
 7886594,-1.3854578843,1.6834464141\O,0,2.3224789412,-0.3047262264,0.52
 57583583\C,0,0.2471752909,0.431854967,2.8260902558\H,0,-0.2266122502,1
 .4219875696,2.8283375408\H,0,0.0383186794,-0.0381213644,3.7923314016\H
 ,0,1.3290254187,0.5639558068,2.7460039453\C,0,-1.7973564911,-0.7118552
 315,1.8885917921\H,0,-2.3486342808,0.2337778669,1.9613366994\H,0,-2.23
 82973497,-1.2931391934,1.0713111931\H,0,-1.954851324,-1.2628131228,2.8
 213789317\N,0,1.7674753437,1.551623559,-0.6676931754\H,0,1.0260147332,
 2.131077629,-1.0492727304\C,0,3.1321069958,1.8636711024,-1.0828301297\
 H,0,3.663751428,0.9170118688,-1.2357172369\C,0,3.8462390822,2.64572319
 34,0.044369528\C,0,3.0993507174,2.6766637936,-2.3903731802\H,0,4.14096
 16602,2.9485024553,-2.6222245889\O,0,4.1632825272,3.8449484951,-0.0929
 120869\C,0,2.5079072362,1.8944444337,-3.5570778864\H,0,3.0704674844,0.
 9705494314,-3.7326176797\H,0,1.4608109915,1.6450110663,-3.3588022838\H
 ,0,2.5469130297,2.5091148163,-4.4609456272\O,0,2.3040150952,3.84219393
 71,-2.2121628229\H,0,2.7580466237,4.3559279507,-1.517700275\N,0,4.0473
 356535,1.9443715096,1.1628840747\H,0,3.7641048466,0.9676194123,1.15024
 63925\C,0,4.6161177469,2.5025635973,2.3854083338\H,0,4.0162979287,3.37
 3730009,2.6715399047\C,0,6.0606635073,2.9744736563,2.1542621329\C,0,4.
 5435455436,1.4583954641,3.5369009585\H,0,3.4708769095,1.3166389154,3.7
 375597348\O,0,6.8423798526,2.3329497133,1.4441935715\C,0,5.152469071,0
 .0985192391,3.1523791345\H,0,6.1813453642,0.2204865863,2.800266741\H,0
 ,4.583902518,-0.423670739,2.373464936\H,0,5.163898131,-0.555799411,4.0
 303968535\C,0,5.2067445316,2.0017916995,4.8130181591\H,0,6.2989180509,
 1.9979768256,4.7152987315\H,0,4.954323015,1.3563237396,5.6606022792\H,
 0,4.9162857417,3.0280502416,5.0555646447\N,0,6.355819994,4.1735465555,
 2.7330138892\H,0,5.6628404902,4.5728093092,3.4237499333\C,0,7.63806755
 64,4.4965771774,3.4112182206\H,0,8.171778663,3.5640500541,3.6264236118
 \C,0,7.1918093766,5.1713880046,4.7885082747\C,0,8.5572725166,5.4428404
 276,2.634190936\H,0,9.3022462178,5.7865389057,3.3561846814\H,0,7.97854
 04951,6.3388243054,2.3643274198\O,0,5.9324660602,5.2561961737,4.932998
 1757\C,0,9.2348528099,4.8039091248,1.3954890843\H,0,10.3033740959,4.65
 59359513,1.5871777161\H,0,8.8293931367,3.795607907,1.2438875877\C,0,9.
 1151985295,5.6009519657,0.0805282988\H,0,9.6892907187,6.5330654371,0.1
 421750982\H,0,9.5608144361,5.0144483859,-0.7337653226\C,0,7.6818221676
 ,5.9893347791,-0.3158080046\H,0,7.6045065727,6.199922732,-1.3854530654
 \H,0,7.3296059483,6.8668972937,0.2307293191\N,0,6.7164797745,4.8885113
 281,0.0143732277\H,0,5.7946739457,4.9322598819,-0.4370663484\H,0,7.089
 2775213,3.9495427425,-0.1683893083\H,0,6.5070925195,4.8607187393,1.049
 731561\O,0,8.1229471028,5.5336276546,5.5130372165\H,0,1.4572846553,-2.
 5782553341,-7.1918333955\\Version=ES64L-G16RevC.01\HF=-2843.8038153\RM
 SD=9.582e-09\Dipole=-8.5572512,-6.8983749,-13.6291834\Quadrupole=-15.1
 395623,-59.2091335,74.3486958,13.7762425,-3.0204921,-7.2417546\PG=C01 
 [X(C39H62N9O11)]\\@
 The archive entry for this job was punched.


 SUCCESS IS COUNTED SWEETEST
 BY THOSE WHO NE'ER SUCCEED.
 TO COMPREHEND NECTAR
 REQUIRES SOREST NEED.
           EMILY DICKINSON
 Job cpu time:       0 days  0 hours  7 minutes 36.4 seconds.
 Elapsed time:       0 days  0 hours  1 minutes 55.0 seconds.
 File lengths (MBytes):  RWF=    648 Int=      0 D2E=      0 Chk=    104 Scr=     16
 Normal termination of Gaussian 16 at Sat Jun 25 09:16:40 2022.
