 Entering Gaussian System, Link 0=/opt/software/Gaussian/g16-AVX2-C.01/g16/g16
 Input=charge-conf-231.com
 Output=charge-conf-231.log
 Initial command:
 /opt/software/Gaussian/g16-AVX2-C.01/g16/l1.exe "/mnt/gs18/scratch/users/kengmith/Gau-29062.inp" -scrdir="/mnt/gs18/scratch/users/kengmith/"
 Entering Link 1 = /opt/software/Gaussian/g16-AVX2-C.01/g16/l1.exe PID=     29072.
  
 Copyright (c) 1988-2019, Gaussian, Inc.  All Rights Reserved.
  
 This is part of the Gaussian(R) 16 program.  It is based on
 the Gaussian(R) 09 system (copyright 2009, Gaussian, Inc.),
 the Gaussian(R) 03 system (copyright 2003, Gaussian, Inc.),
 the Gaussian(R) 98 system (copyright 1998, Gaussian, Inc.),
 the Gaussian(R) 94 system (copyright 1995, Gaussian, Inc.),
 the Gaussian 92(TM) system (copyright 1992, Gaussian, Inc.),
 the Gaussian 90(TM) system (copyright 1990, Gaussian, Inc.),
 the Gaussian 88(TM) system (copyright 1988, Gaussian, Inc.),
 the Gaussian 86(TM) system (copyright 1986, Carnegie Mellon
 University), and the Gaussian 82(TM) system (copyright 1983,
 Carnegie Mellon University). Gaussian is a federally registered
 trademark of Gaussian, Inc.
  
 This software contains proprietary and confidential information,
 including trade secrets, belonging to Gaussian, Inc.
  
 This software is provided under written license and may be
 used, copied, transmitted, or stored only in accord with that
 written license.
  
 The following legend is applicable only to US Government
 contracts under FAR:
  
                    RESTRICTED RIGHTS LEGEND
  
 Use, reproduction and disclosure by the US Government is
 subject to restrictions as set forth in subparagraphs (a)
 and (c) of the Commercial Computer Software - Restricted
 Rights clause in FAR 52.227-19.
  
 Gaussian, Inc.
 340 Quinnipiac St., Bldg. 40, Wallingford CT 06492
  
  
 ---------------------------------------------------------------
 Warning -- This program may not be used in any manner that
 competes with the business of Gaussian, Inc. or will provide
 assistance to any competitor of Gaussian, Inc.  The licensee
 of this program is prohibited from giving any competitor of
 Gaussian, Inc. access to this program.  By using this program,
 the user acknowledges that Gaussian, Inc. is engaged in the
 business of creating and licensing software in the field of
 computational chemistry and represents and warrants to the
 licensee that it is not a competitor of Gaussian, Inc. and that
 it will not use this program in any manner prohibited above.
 ---------------------------------------------------------------
  

 Cite this work as:
 Gaussian 16, Revision C.01,
 M. J. Frisch, G. W. Trucks, H. B. Schlegel, G. E. Scuseria, 
 M. A. Robb, J. R. Cheeseman, G. Scalmani, V. Barone, 
 G. A. Petersson, H. Nakatsuji, X. Li, M. Caricato, A. V. Marenich, 
 J. Bloino, B. G. Janesko, R. Gomperts, B. Mennucci, H. P. Hratchian, 
 J. V. Ortiz, A. F. Izmaylov, J. L. Sonnenberg, D. Williams-Young, 
 F. Ding, F. Lipparini, F. Egidi, J. Goings, B. Peng, A. Petrone, 
 T. Henderson, D. Ranasinghe, V. G. Zakrzewski, J. Gao, N. Rega, 
 G. Zheng, W. Liang, M. Hada, M. Ehara, K. Toyota, R. Fukuda, 
 J. Hasegawa, M. Ishida, T. Nakajima, Y. Honda, O. Kitao, H. Nakai, 
 T. Vreven, K. Throssell, J. A. Montgomery, Jr., J. E. Peralta, 
 F. Ogliaro, M. J. Bearpark, J. J. Heyd, E. N. Brothers, K. N. Kudin, 
 V. N. Staroverov, T. A. Keith, R. Kobayashi, J. Normand, 
 K. Raghavachari, A. P. Rendell, J. C. Burant, S. S. Iyengar, 
 J. Tomasi, M. Cossi, J. M. Millam, M. Klene, C. Adamo, R. Cammi, 
 J. W. Ochterski, R. L. Martin, K. Morokuma, O. Farkas, 
 J. B. Foresman, and D. J. Fox, Gaussian, Inc., Wallingford CT, 2019.
 
 ******************************************
 Gaussian 16:  ES64L-G16RevC.01  3-Jul-2019
                25-Jun-2022 
 ******************************************
 %mem=8gb
 %nproc=4
 Will use up to    4 processors via shared memory.
 %chk=conf-231.chk
 ----------------------------------------------------------------------
 # B3LYP/6-31G* empiricaldispersion=gd3 guess=read geom=check nosymm in
 tegral(ultrafinegrid)
 ----------------------------------------------------------------------
 1/29=2,38=1,172=1/1;
 2/12=2,15=1,40=1/2;
 3/5=1,6=6,7=1,11=2,14=-4,25=1,30=1,74=-5,75=-5,116=-2,124=31/1,2,3;
 4/5=1/1;
 5/5=2,38=6/2;
 6/7=2,8=2,9=2,10=2,28=1/1;
 99/5=1,9=1/99;
 ------------------------------------------------------
 Candidate Structure: Conf:231 Charge calc in gas phase
 ------------------------------------------------------
 Structure from the checkpoint file:  "conf-231.chk"
 Charge =  1 Multiplicity = 1
 Redundant internal coordinates found in file.  (old form).
 N,0,-6.6947950499,-4.4066431369,-3.5278365304
 H,0,-7.1184331846,-4.5078399067,-2.6014319159
 H,0,-6.9634333488,-5.2124235725,-4.0995878331
 H,0,-7.0326800985,-3.4936086225,-3.9725853994
 C,0,-5.194455007,-4.1773146318,-3.4844398709
 H,0,-4.8617741238,-4.3169446689,-2.4530604688
 C,0,-5.0723232969,-2.6848558776,-3.9051556161
 C,0,-4.4663531816,-5.125016666,-4.4362583084
 H,0,-3.3932273995,-4.9172689944,-4.4127230998
 H,0,-4.6090729176,-6.1697477151,-4.1419859129
 H,0,-4.8097133315,-4.9847094616,-5.4670538421
 O,0,-6.1042795495,-2.1165120682,-4.3030460414
 N,0,-3.8691192798,-2.1444846376,-3.82024743
 H,0,-3.0403203216,-2.6646702387,-3.5238524438
 C,0,-3.5589972672,-0.7706423143,-4.2086482151
 H,0,-3.9943922645,-0.5702203754,-5.1925503747
 C,0,-2.0234218505,-0.7169982253,-4.2584176414
 C,0,-4.1259402235,0.2677214959,-3.1854879415
 H,0,-5.1426537028,-0.0592029271,-2.938998762
 H,0,-3.5319928294,0.2186392331,-2.2655984926
 O,0,-1.355672097,-1.6710966011,-3.8332765535
 C,0,-4.1601753651,1.6551095953,-3.7459488177
 C,0,-3.3747628103,2.7320361846,-3.392016294
 H,0,-2.5855679044,2.8031151433,-2.65647982
 C,0,-5.0114782605,2.0967875346,-4.8238240296
 C,0,-4.687564067,3.4567574046,-5.0773643942
 C,0,-6.0092273254,1.4712403445,-5.5929490957
 H,0,-6.2846333997,0.4362420227,-5.4030249602
 N,0,-3.6895486364,3.8102984407,-4.1879620334
 H,0,-3.247387715,4.7156097299,-4.1318090557
 C,0,-6.3029003436,3.5560735284,-6.8245750268
 H,0,-6.8181397222,4.1039378458,-7.607951036
 C,0,-5.325361423,4.200496313,-6.0750876552
 H,0,-5.0676989687,5.2397523045,-6.2576341211
 C,0,-6.6429624765,2.2074204403,-6.5860197737
 H,0,-7.4177677705,1.7428811599,-7.1892500764
 N,0,-1.4932325317,0.4276699916,-4.724574294
 H,0,-2.1325016072,1.2017804312,-4.8859469144
 C,0,-0.091095163,0.7893922455,-4.4636768717
 H,0,0.506462838,-0.1143645241,-4.6124767829
 C,0,-0.0263838216,1.2393367665,-2.9838424102
 C,0,0.3528592132,1.9069120844,-5.4025118222
 H,0,0.0754801587,1.6407766296,-6.4281899408
 H,0,-0.1873408446,2.8220925305,-5.142920027
 O,0,-0.2269656725,2.4198845815,-2.6624829744
 C,0,1.8584293959,2.1753955646,-5.311339492
 H,0,2.2206901433,2.1411291691,-4.2766485356
 H,0,2.4408666096,1.4348302381,-5.8703457382
 C,0,2.2111413534,3.5633020269,-5.8050211427
 O,0,1.4200592215,4.4558601366,-6.0188757224
 O,0,3.5442733614,3.6989829097,-5.9702717713
 N,0,0.1570103902,0.2507136571,-2.0898975028
 H,0,0.3154401444,-0.6885682468,-2.4330160016
 C,0,0.2105097552,0.4828578601,-0.6393830074
 H,0,-0.5324781184,1.2574109396,-0.4159949637
 C,0,1.6352491763,1.0131407579,-0.3524811629
 C,0,-0.1269431235,-0.7879136066,0.1515993728
 H,0,0.6689796938,-1.5161726059,-0.0534872763
 O,0,2.5817024971,0.2567642539,-0.1530493547
 C,0,-0.1176500497,-0.4784436259,1.655198238
 H,0,-0.8802416366,0.2702321009,1.9062241759
 H,0,-0.3357263544,-1.3833771825,2.2319781979
 H,0,0.8526842746,-0.1024090223,1.9841131955
 C,0,-1.4840032559,-1.3723209815,-0.2725816013
 H,0,-2.28756541,-0.6431067281,-0.0981261253
 H,0,-1.5088859417,-1.6575125995,-1.3294714515
 H,0,-1.7111645203,-2.2618397282,0.325824414
 N,0,1.7358578012,2.3575340364,-0.4582331506
 H,0,0.8908362396,2.8813205129,-0.640400534
 C,0,3.0111566084,3.070356338,-0.5314364877
 H,0,3.7418915891,2.3701199957,-0.9496361043
 C,0,3.3964823163,3.4828411253,0.9046507868
 C,0,2.8674609998,4.2790565675,-1.4742687283
 H,0,2.1686053006,4.9877940044,-1.0072579087
 O,0,3.0830631845,4.585093657,1.3536141582
 C,0,4.2026918757,4.9730221347,-1.6962677522
 H,0,4.5985684009,5.3442397546,-0.7476871839
 H,0,4.920705547,4.2775799451,-2.146292191
 H,0,4.0671699068,5.8156549494,-2.3803430186
 O,0,2.3854951632,3.8675572978,-2.7566056138
 H,0,1.4430049392,3.6353568525,-2.693316031
 N,0,4.0086085944,2.5032835386,1.600691592
 H,0,4.260377322,1.6373196244,1.1381859488
 C,0,4.2708892179,2.5672907657,3.0273540021
 H,0,4.2858208513,3.624595207,3.3080113342
 C,0,5.6354120584,1.9157134973,3.3099081856
 C,0,3.1669768745,1.8425809581,3.8607539598
 H,0,3.4235379182,1.9898092707,4.9177423209
 O,0,6.1956468551,1.210235141,2.4603746284
 C,0,1.7885749902,2.4631207299,3.6005847379
 H,0,1.4667146127,2.2890912652,2.5665907211
 H,0,1.7965647107,3.5456551706,3.7633285208
 H,0,1.0400604336,2.0165007257,4.2656829621
 C,0,3.1625114949,0.3296172072,3.5950499325
 H,0,3.0213461835,0.110068672,2.5295190667
 H,0,2.350409959,-0.1496334308,4.1537630299
 H,0,4.1008848494,-0.1363608612,3.9114636032
 N,0,6.0890104781,2.1275341471,4.5601396923
 H,0,5.439224859,2.5131845867,5.2658945137
 C,0,6.912259932,1.1645262663,5.2867747795
 H,0,6.7946920565,0.1737529208,4.8278730218
 C,0,6.3361548527,1.1009392633,6.7699313703
 C,0,8.392773333,1.5273466641,5.3067096645
 H,0,8.8779067333,0.841761808,6.0105501082
 H,0,8.5028978421,2.5440283371,5.7111854261
 O,0,7.0017803982,0.398941515,7.549653087
 C,0,9.040524871,1.4519731776,3.9221004037
 H,0,8.9488429263,0.4319538059,3.5262979319
 H,0,8.4979089036,2.0959958493,3.2206428454
 C,0,10.5225817659,1.8572983127,3.9728453661
 H,0,10.6072677434,2.8833752139,4.3598711147
 H,0,11.0615858233,1.1983769431,4.6692037467
 C,0,11.1468666874,1.7749065274,2.5937682204
 H,0,10.6741606242,2.4513740511,1.8775759968
 H,0,11.139876654,0.7604271458,2.1878076387
 N,0,12.629519963,2.1931312688,2.6539617681
 H,0,13.0975956766,2.1522585629,1.7408508978
 H,0,12.712227708,3.1518478814,3.012712695
 H,0,13.1423312297,1.5850423031,3.3035604104
 O,0,5.2867271149,1.7807236754,6.94756761
 H,0,3.6981583834,4.6292267371,-6.2206314993
 Recover connectivity data from disk.
                           ----------------------------
                           !    Current Parameters    !
                           ! (Angstroms and Degrees)  !
 --------------------------                            --------------------------
 ! Name  Definition              Value                                          !
 --------------------------------------------------------------------------------
 ! R1    R(1,2)                  1.0237                                         !
 ! R2    R(1,3)                  1.0239                                         !
 ! R3    R(1,4)                  1.0703                                         !
 ! R4    R(1,5)                  1.5184                                         !
 ! R5    R(5,6)                  1.0927                                         !
 ! R6    R(5,7)                  1.5554                                         !
 ! R7    R(5,8)                  1.5278                                         !
 ! R8    R(7,12)                 1.2435                                         !
 ! R9    R(7,13)                 1.3217                                         !
 ! R10   R(8,9)                  1.0933                                         !
 ! R11   R(8,10)                 1.0947                                         !
 ! R12   R(8,11)                 1.0955                                         !
 ! R13   R(13,14)                1.0224                                         !
 ! R14   R(13,15)                1.461                                          !
 ! R15   R(15,16)                1.0944                                         !
 ! R16   R(15,17)                1.5373                                         !
 ! R17   R(15,18)                1.5641                                         !
 ! R18   R(17,21)                1.2397                                         !
 ! R19   R(17,37)                1.3449                                         !
 ! R20   R(18,19)                1.0961                                         !
 ! R21   R(18,20)                1.0961                                         !
 ! R22   R(18,22)                1.4967                                         !
 ! R23   R(22,23)                1.3791                                         !
 ! R24   R(22,25)                1.4428                                         !
 ! R25   R(23,24)                1.0812                                         !
 ! R26   R(23,29)                1.3767                                         !
 ! R27   R(25,26)                1.4208                                         !
 ! R28   R(25,27)                1.4065                                         !
 ! R29   R(26,29)                1.3828                                         !
 ! R30   R(26,33)                1.3984                                         !
 ! R31   R(27,28)                1.0877                                         !
 ! R32   R(27,35)                1.3892                                         !
 ! R33   R(29,30)                1.0091                                         !
 ! R34   R(31,32)                1.086                                          !
 ! R35   R(31,33)                1.3902                                         !
 ! R36   R(31,35)                1.4112                                         !
 ! R37   R(33,34)                1.0862                                         !
 ! R38   R(35,36)                1.0863                                         !
 ! R39   R(37,38)                1.0168                                         !
 ! R40   R(37,39)                1.4714                                         !
 ! R41   R(39,40)                1.0936                                         !
 ! R42   R(39,41)                1.5481                                         !
 ! R43   R(39,42)                1.5256                                         !
 ! R44   R(41,45)                1.2398                                         !
 ! R45   R(41,52)                1.3454                                         !
 ! R46   R(42,43)                1.0953                                         !
 ! R47   R(42,44)                1.094                                          !
 ! R48   R(42,46)                1.532                                          !
 ! R49   R(46,47)                1.0968                                         !
 ! R50   R(46,48)                1.0955                                         !
 ! R51   R(46,49)                1.5147                                         !
 ! R52   R(49,50)                1.2117                                         !
 ! R53   R(49,51)                1.3502                                         !
 ! R54   R(51,121)               0.9756                                         !
 ! R55   R(52,53)                1.0125                                         !
 ! R56   R(52,54)                1.4699                                         !
 ! R57   R(54,55)                1.0963                                         !
 ! R58   R(54,56)                1.5471                                         !
 ! R59   R(54,57)                1.5344                                         !
 ! R60   R(56,59)                1.2279                                         !
 ! R61   R(56,68)                1.3523                                         !
 ! R62   R(57,58)                1.0981                                         !
 ! R63   R(57,60)                1.5351                                         !
 ! R64   R(57,64)                1.5372                                         !
 ! R65   R(60,61)                1.0978                                         !
 ! R66   R(60,62)                1.0951                                         !
 ! R67   R(60,63)                1.0914                                         !
 ! R68   R(64,65)                1.099                                          !
 ! R69   R(64,66)                1.095                                          !
 ! R70   R(64,67)                1.0959                                         !
 ! R71   R(68,69)                1.0107                                         !
 ! R72   R(68,70)                1.4628                                         !
 ! R73   R(70,71)                1.0951                                         !
 ! R74   R(70,72)                1.543                                          !
 ! R75   R(70,73)                1.5397                                         !
 ! R76   R(72,75)                1.2308                                         !
 ! R77   R(72,82)                1.3486                                         !
 ! R78   R(73,74)                1.0995                                         !
 ! R79   R(73,76)                1.5211                                         !
 ! R80   R(73,80)                1.4304                                         !
 ! R81   R(76,77)                1.0929                                         !
 ! R82   R(76,78)                1.0962                                         !
 ! R83   R(76,79)                1.0938                                         !
 ! R84   R(80,81)                0.9727                                         !
 ! R85   R(82,83)                1.0135                                         !
 ! R86   R(82,84)                1.452                                          !
 ! R87   R(84,85)                1.094                                          !
 ! R88   R(84,86)                1.5383                                         !
 ! R89   R(84,87)                1.5615                                         !
 ! R90   R(86,89)                1.2383                                         !
 ! R91   R(86,98)                1.3467                                         !
 ! R92   R(87,88)                1.0976                                         !
 ! R93   R(87,90)                1.5339                                         !
 ! R94   R(87,94)                1.5361                                         !
 ! R95   R(90,91)                1.0968                                         !
 ! R96   R(90,92)                1.0947                                         !
 ! R97   R(90,93)                1.0964                                         !
 ! R98   R(94,95)                1.097                                          !
 ! R99   R(94,96)                1.0961                                         !
 ! R100  R(94,97)                1.0944                                         !
 ! R101  R(98,99)                1.0339                                         !
 ! R102  R(98,100)               1.4605                                         !
 ! R103  R(100,101)              1.0982                                         !
 ! R104  R(100,102)              1.5924                                         !
 ! R105  R(100,103)              1.5245                                         !
 ! R106  R(102,106)              1.2425                                         !
 ! R107  R(102,120)              1.2629                                         !
 ! R108  R(103,104)              1.0958                                         !
 ! R109  R(103,105)              1.0997                                         !
 ! R110  R(103,107)              1.5305                                         !
 ! R111  R(107,108)              1.098                                          !
 ! R112  R(107,109)              1.096                                          !
 ! R113  R(107,110)              1.5373                                         !
 ! R114  R(110,111)              1.0999                                         !
 ! R115  R(110,112)              1.0998                                         !
 ! R116  R(110,113)              1.516                                          !
 ! R117  R(113,114)              1.0927                                         !
 ! R118  R(113,115)              1.0927                                         !
 ! R119  R(113,116)              1.5417                                         !
 ! R120  R(116,117)              1.0269                                         !
 ! R121  R(116,118)              1.027                                          !
 ! R122  R(116,119)              1.027                                          !
 ! A1    A(2,1,3)              108.6006                                         !
 ! A2    A(2,1,4)              109.2521                                         !
 ! A3    A(2,1,5)              113.4521                                         !
 ! A4    A(3,1,4)              110.8834                                         !
 ! A5    A(3,1,5)              113.2082                                         !
 ! A6    A(4,1,5)              101.2429                                         !
 ! A7    A(1,5,6)              107.9704                                         !
 ! A8    A(1,5,7)              102.4024                                         !
 ! A9    A(1,5,8)              111.0638                                         !
 ! A10   A(6,5,7)              110.7334                                         !
 ! A11   A(6,5,8)              111.3266                                         !
 ! A12   A(7,5,8)              112.9084                                         !
 ! A13   A(5,7,12)             117.3832                                         !
 ! A14   A(5,7,13)             116.5127                                         !
 ! A15   A(12,7,13)            126.0983                                         !
 ! A16   A(5,8,9)              109.6631                                         !
 ! A17   A(5,8,10)             111.246                                          !
 ! A18   A(5,8,11)             110.9395                                         !
 ! A19   A(9,8,10)             107.669                                          !
 ! A20   A(9,8,11)             107.6716                                         !
 ! A21   A(10,8,11)            109.5298                                         !
 ! A22   A(7,13,14)            123.2679                                         !
 ! A23   A(7,13,15)            124.0984                                         !
 ! A24   A(14,13,15)           112.5462                                         !
 ! A25   A(13,15,16)           109.072                                          !
 ! A26   A(13,15,17)           104.6817                                         !
 ! A27   A(13,15,18)           111.9269                                         !
 ! A28   A(16,15,17)           111.2156                                         !
 ! A29   A(16,15,18)           108.8024                                         !
 ! A30   A(17,15,18)           111.1044                                         !
 ! A31   A(15,17,21)           120.0037                                         !
 ! A32   A(15,17,37)           115.7666                                         !
 ! A33   A(21,17,37)           124.1637                                         !
 ! A34   A(15,18,19)           106.5782                                         !
 ! A35   A(15,18,20)           108.8355                                         !
 ! A36   A(15,18,22)           112.254                                          !
 ! A37   A(19,18,20)           107.4915                                         !
 ! A38   A(19,18,22)           109.8453                                         !
 ! A39   A(20,18,22)           111.6031                                         !
 ! A40   A(18,22,23)           127.932                                          !
 ! A41   A(18,22,25)           125.2413                                         !
 ! A42   A(23,22,25)           106.781                                          !
 ! A43   A(22,23,24)           129.9154                                         !
 ! A44   A(22,23,29)           109.452                                          !
 ! A45   A(24,23,29)           120.5807                                         !
 ! A46   A(22,25,26)           106.9668                                         !
 ! A47   A(22,25,27)           133.7034                                         !
 ! A48   A(26,25,27)           119.3297                                         !
 ! A49   A(25,26,29)           107.127                                          !
 ! A50   A(25,26,33)           122.1698                                         !
 ! A51   A(29,26,33)           130.7026                                         !
 ! A52   A(25,27,28)           120.4849                                         !
 ! A53   A(25,27,35)           118.6088                                         !
 ! A54   A(28,27,35)           120.902                                          !
 ! A55   A(23,29,26)           109.673                                          !
 ! A56   A(23,29,30)           124.7725                                         !
 ! A57   A(26,29,30)           125.5513                                         !
 ! A58   A(32,31,33)           119.2535                                         !
 ! A59   A(32,31,35)           119.3247                                         !
 ! A60   A(33,31,35)           121.4213                                         !
 ! A61   A(26,33,31)           117.3125                                         !
 ! A62   A(26,33,34)           121.3733                                         !
 ! A63   A(31,33,34)           121.3142                                         !
 ! A64   A(27,35,31)           121.1566                                         !
 ! A65   A(27,35,36)           119.7188                                         !
 ! A66   A(31,35,36)           119.124                                          !
 ! A67   A(17,37,38)           117.0732                                         !
 ! A68   A(17,37,39)           121.5652                                         !
 ! A69   A(38,37,39)           116.1096                                         !
 ! A70   A(37,39,40)           107.0623                                         !
 ! A71   A(37,39,41)           106.3073                                         !
 ! A72   A(37,39,42)           110.3823                                         !
 ! A73   A(40,39,41)           110.3292                                         !
 ! A74   A(40,39,42)           111.2608                                         !
 ! A75   A(41,39,42)           111.2969                                         !
 ! A76   A(39,41,45)           121.1817                                         !
 ! A77   A(39,41,52)           115.2947                                         !
 ! A78   A(45,41,52)           123.3329                                         !
 ! A79   A(39,42,43)           108.9403                                         !
 ! A80   A(39,42,44)           108.8493                                         !
 ! A81   A(39,42,46)           112.1932                                         !
 ! A82   A(43,42,44)           107.4826                                         !
 ! A83   A(43,42,46)           110.314                                          !
 ! A84   A(44,42,46)           108.9378                                         !
 ! A85   A(42,46,47)           112.0395                                         !
 ! A86   A(42,46,48)           111.9402                                         !
 ! A87   A(42,46,49)           111.7162                                         !
 ! A88   A(47,46,48)           106.5379                                         !
 ! A89   A(47,46,49)           105.0213                                         !
 ! A90   A(48,46,49)           109.2258                                         !
 ! A91   A(46,49,50)           125.4816                                         !
 ! A92   A(46,49,51)           111.2159                                         !
 ! A93   A(50,49,51)           123.299                                          !
 ! A94   A(49,51,121)          106.4384                                         !
 ! A95   A(41,52,53)           118.5452                                         !
 ! A96   A(41,52,54)           122.9952                                         !
 ! A97   A(53,52,54)           118.3744                                         !
 ! A98   A(52,54,55)           106.7373                                         !
 ! A99   A(52,54,56)           105.7028                                         !
 ! A100  A(52,54,57)           111.7086                                         !
 ! A101  A(55,54,56)           110.1317                                         !
 ! A102  A(55,54,57)           109.3319                                         !
 ! A103  A(56,54,57)           113.0051                                         !
 ! A104  A(54,56,59)           121.9271                                         !
 ! A105  A(54,56,68)           113.2522                                         !
 ! A106  A(59,56,68)           124.5945                                         !
 ! A107  A(54,57,58)           107.0712                                         !
 ! A108  A(54,57,60)           109.6711                                         !
 ! A109  A(54,57,64)           111.5156                                         !
 ! A110  A(58,57,60)           108.1932                                         !
 ! A111  A(58,57,64)           109.6449                                         !
 ! A112  A(60,57,64)           110.6251                                         !
 ! A113  A(57,60,61)           110.9315                                         !
 ! A114  A(57,60,62)           110.3708                                         !
 ! A115  A(57,60,63)           111.7168                                         !
 ! A116  A(61,60,62)           107.7467                                         !
 ! A117  A(61,60,63)           108.2841                                         !
 ! A118  A(62,60,63)           107.6408                                         !
 ! A119  A(57,64,65)           110.4513                                         !
 ! A120  A(57,64,66)           112.6698                                         !
 ! A121  A(57,64,67)           109.9316                                         !
 ! A122  A(65,64,66)           108.0236                                         !
 ! A123  A(65,64,67)           107.4772                                         !
 ! A124  A(66,64,67)           108.1159                                         !
 ! A125  A(56,68,69)           117.8453                                         !
 ! A126  A(56,68,70)           123.5881                                         !
 ! A127  A(69,68,70)           117.8606                                         !
 ! A128  A(68,70,71)           106.8139                                         !
 ! A129  A(68,70,72)           107.5414                                         !
 ! A130  A(68,70,73)           109.3796                                         !
 ! A131  A(71,70,72)           111.083                                          !
 ! A132  A(71,70,73)           109.2937                                         !
 ! A133  A(72,70,73)           112.5426                                         !
 ! A134  A(70,72,75)           121.0188                                         !
 ! A135  A(70,72,82)           113.5487                                         !
 ! A136  A(75,72,82)           125.298                                          !
 ! A137  A(70,73,74)           107.7746                                         !
 ! A138  A(70,73,76)           111.445                                          !
 ! A139  A(70,73,80)           110.7681                                         !
 ! A140  A(74,73,76)           109.0181                                         !
 ! A141  A(74,73,80)           110.6141                                         !
 ! A142  A(76,73,80)           107.2286                                         !
 ! A143  A(73,76,77)           110.2594                                         !
 ! A144  A(73,76,78)           110.2087                                         !
 ! A145  A(73,76,79)           109.511                                          !
 ! A146  A(77,76,78)           109.5455                                         !
 ! A147  A(77,76,79)           109.0297                                         !
 ! A148  A(78,76,79)           108.2483                                         !
 ! A149  A(73,80,81)           109.6829                                         !
 ! A150  A(72,82,83)           119.8573                                         !
 ! A151  A(72,82,84)           123.8551                                         !
 ! A152  A(83,82,84)           116.179                                          !
 ! A153  A(82,84,85)           107.2854                                         !
 ! A154  A(82,84,86)           108.7862                                         !
 ! A155  A(82,84,87)           112.1011                                         !
 ! A156  A(85,84,86)           110.4953                                         !
 ! A157  A(85,84,87)           108.7391                                         !
 ! A158  A(86,84,87)           109.419                                          !
 ! A159  A(84,86,89)           121.1072                                         !
 ! A160  A(84,86,98)           113.7449                                         !
 ! A161  A(89,86,98)           125.0391                                         !
 ! A162  A(84,87,88)           106.6462                                         !
 ! A163  A(84,87,90)           110.9165                                         !
 ! A164  A(84,87,94)           111.5211                                         !
 ! A165  A(88,87,90)           108.6103                                         !
 ! A166  A(88,87,94)           107.4194                                         !
 ! A167  A(90,87,94)           111.5004                                         !
 ! A168  A(87,90,91)           111.0643                                         !
 ! A169  A(87,90,92)           111.6095                                         !
 ! A170  A(87,90,93)           110.2316                                         !
 ! A171  A(91,90,92)           107.4087                                         !
 ! A172  A(91,90,93)           107.8725                                         !
 ! A173  A(92,90,93)           108.5187                                         !
 ! A174  A(87,94,95)           111.4377                                         !
 ! A175  A(87,94,96)           110.1597                                         !
 ! A176  A(87,94,97)           111.5214                                         !
 ! A177  A(95,94,96)           108.1955                                         !
 ! A178  A(95,94,97)           107.814                                          !
 ! A179  A(96,94,97)           107.5617                                         !
 ! A180  A(86,98,99)           118.729                                          !
 ! A181  A(86,98,100)          123.2306                                         !
 ! A182  A(99,98,100)          105.1042                                         !
 ! A183  A(98,100,101)         109.0638                                         !
 ! A184  A(98,100,102)         106.6062                                         !
 ! A185  A(98,100,103)         113.3908                                         !
 ! A186  A(101,100,102)        108.3274                                         !
 ! A187  A(101,100,103)        108.9142                                         !
 ! A188  A(102,100,103)        110.4068                                         !
 ! A189  A(100,102,106)        114.4085                                         !
 ! A190  A(100,102,120)        114.2138                                         !
 ! A191  A(106,102,120)        131.376                                          !
 ! A192  A(100,103,104)        106.8254                                         !
 ! A193  A(100,103,105)        108.7896                                         !
 ! A194  A(100,103,107)        112.7978                                         !
 ! A195  A(104,103,105)        107.3276                                         !
 ! A196  A(104,103,107)        111.2784                                         !
 ! A197  A(105,103,107)        109.6267                                         !
 ! A198  A(103,107,108)        109.6663                                         !
 ! A199  A(103,107,109)        109.9093                                         !
 ! A200  A(103,107,110)        111.418                                          !
 ! A201  A(108,107,109)        105.8928                                         !
 ! A202  A(108,107,110)        109.715                                          !
 ! A203  A(109,107,110)        110.0893                                         !
 ! A204  A(107,110,111)        109.3781                                         !
 ! A205  A(107,110,112)        109.597                                          !
 ! A206  A(107,110,113)        110.6482                                         !
 ! A207  A(111,110,112)        107.3602                                         !
 ! A208  A(111,110,113)        109.8206                                         !
 ! A209  A(112,110,113)        109.9734                                         !
 ! A210  A(110,113,114)        112.6087                                         !
 ! A211  A(110,113,115)        112.6918                                         !
 ! A212  A(110,113,116)        110.2282                                         !
 ! A213  A(114,113,115)        109.1768                                         !
 ! A214  A(114,113,116)        105.8838                                         !
 ! A215  A(115,113,116)        105.8138                                         !
 ! A216  A(113,116,117)        113.1315                                         !
 ! A217  A(113,116,118)        110.1413                                         !
 ! A218  A(113,116,119)        110.138                                          !
 ! A219  A(117,116,118)        108.1234                                         !
 ! A220  A(117,116,119)        108.1353                                         !
 ! A221  A(118,116,119)        106.9524                                         !
 ! D1    D(2,1,5,6)              8.2391                                         !
 ! D2    D(2,1,5,7)           -108.6584                                         !
 ! D3    D(2,1,5,8)            130.5582                                         !
 ! D4    D(3,1,5,6)           -116.1155                                         !
 ! D5    D(3,1,5,7)            126.987                                          !
 ! D6    D(3,1,5,8)              6.2036                                         !
 ! D7    D(4,1,5,6)            125.1551                                         !
 ! D8    D(4,1,5,7)              8.2575                                         !
 ! D9    D(4,1,5,8)           -112.5258                                         !
 ! D10   D(1,5,7,12)            -7.9362                                         !
 ! D11   D(1,5,7,13)           172.8895                                         !
 ! D12   D(6,5,7,12)          -122.8349                                         !
 ! D13   D(6,5,7,13)            57.9908                                         !
 ! D14   D(8,5,7,12)           111.5646                                         !
 ! D15   D(8,5,7,13)           -67.6097                                         !
 ! D16   D(1,5,8,9)            178.0526                                         !
 ! D17   D(1,5,8,10)           -62.9517                                         !
 ! D18   D(1,5,8,11)            59.244                                          !
 ! D19   D(6,5,8,9)            -61.5968                                         !
 ! D20   D(6,5,8,10)            57.3989                                         !
 ! D21   D(6,5,8,11)           179.5945                                         !
 ! D22   D(7,5,8,9)             63.6832                                         !
 ! D23   D(7,5,8,10)          -177.3211                                         !
 ! D24   D(7,5,8,11)           -55.1254                                         !
 ! D25   D(5,7,13,14)            1.803                                          !
 ! D26   D(5,7,13,15)          178.1477                                         !
 ! D27   D(12,7,13,14)        -177.2896                                         !
 ! D28   D(12,7,13,15)          -0.9449                                         !
 ! D29   D(7,13,15,16)         -47.5504                                         !
 ! D30   D(7,13,15,17)        -166.6549                                         !
 ! D31   D(7,13,15,18)          72.8998                                         !
 ! D32   D(14,13,15,16)        129.1408                                         !
 ! D33   D(14,13,15,17)         10.0363                                         !
 ! D34   D(14,13,15,18)       -110.409                                          !
 ! D35   D(13,15,17,21)         -9.0586                                         !
 ! D36   D(13,15,17,37)        173.7729                                         !
 ! D37   D(16,15,17,21)       -126.7073                                         !
 ! D38   D(16,15,17,37)         56.1242                                         !
 ! D39   D(18,15,17,21)        111.9324                                         !
 ! D40   D(18,15,17,37)        -65.2361                                         !
 ! D41   D(13,15,18,19)        -43.6134                                         !
 ! D42   D(13,15,18,20)         72.0379                                         !
 ! D43   D(13,15,18,22)       -163.9134                                         !
 ! D44   D(16,15,18,19)         76.9937                                         !
 ! D45   D(16,15,18,20)       -167.3549                                         !
 ! D46   D(16,15,18,22)        -43.3063                                         !
 ! D47   D(17,15,18,19)       -160.2429                                         !
 ! D48   D(17,15,18,20)        -44.5915                                         !
 ! D49   D(17,15,18,22)         79.4571                                         !
 ! D50   D(15,17,37,38)          7.9857                                         !
 ! D51   D(15,17,37,39)        161.3782                                         !
 ! D52   D(21,17,37,38)       -169.0507                                         !
 ! D53   D(21,17,37,39)        -15.6582                                         !
 ! D54   D(15,18,22,23)       -109.7813                                         !
 ! D55   D(15,18,22,25)         67.4297                                         !
 ! D56   D(19,18,22,23)        131.8311                                         !
 ! D57   D(19,18,22,25)        -50.9579                                         !
 ! D58   D(20,18,22,23)         12.7137                                         !
 ! D59   D(20,18,22,25)       -170.0753                                         !
 ! D60   D(18,22,23,24)          0.2049                                         !
 ! D61   D(18,22,23,29)        177.5452                                         !
 ! D62   D(25,22,23,24)       -177.4162                                         !
 ! D63   D(25,22,23,29)         -0.0758                                         !
 ! D64   D(18,22,25,26)       -177.5815                                         !
 ! D65   D(18,22,25,27)          2.3306                                         !
 ! D66   D(23,22,25,26)          0.1212                                         !
 ! D67   D(23,22,25,27)       -179.9668                                         !
 ! D68   D(22,23,29,26)         -0.0001                                         !
 ! D69   D(22,23,29,30)       -179.3794                                         !
 ! D70   D(24,23,29,26)        177.6306                                         !
 ! D71   D(24,23,29,30)         -1.7487                                         !
 ! D72   D(22,25,26,29)         -0.1212                                         !
 ! D73   D(22,25,26,33)        179.6508                                         !
 ! D74   D(27,25,26,29)        179.9517                                         !
 ! D75   D(27,25,26,33)         -0.2762                                         !
 ! D76   D(22,25,27,28)          1.1948                                         !
 ! D77   D(22,25,27,35)       -179.5459                                         !
 ! D78   D(26,25,27,28)       -178.9017                                         !
 ! D79   D(26,25,27,35)          0.3576                                         !
 ! D80   D(25,26,29,23)          0.0772                                         !
 ! D81   D(25,26,29,30)        179.4506                                         !
 ! D82   D(33,26,29,23)       -179.6682                                         !
 ! D83   D(33,26,29,30)         -0.2949                                         !
 ! D84   D(25,26,33,31)         -0.0292                                         !
 ! D85   D(25,26,33,34)        179.9789                                         !
 ! D86   D(29,26,33,31)        179.6835                                         !
 ! D87   D(29,26,33,34)         -0.3085                                         !
 ! D88   D(25,27,35,31)         -0.1476                                         !
 ! D89   D(25,27,35,36)       -179.8604                                         !
 ! D90   D(28,27,35,31)        179.1084                                         !
 ! D91   D(28,27,35,36)         -0.6044                                         !
 ! D92   D(32,31,33,26)       -179.9795                                         !
 ! D93   D(32,31,33,34)          0.0125                                         !
 ! D94   D(35,31,33,26)          0.2483                                         !
 ! D95   D(35,31,33,34)       -179.7597                                         !
 ! D96   D(32,31,35,27)       -179.9364                                         !
 ! D97   D(32,31,35,36)         -0.222                                          !
 ! D98   D(33,31,35,27)         -0.1644                                         !
 ! D99   D(33,31,35,36)        179.5501                                         !
 ! D100  D(17,37,39,40)         43.1364                                         !
 ! D101  D(17,37,39,41)        -74.7962                                         !
 ! D102  D(17,37,39,42)        164.3801                                         !
 ! D103  D(38,37,39,40)       -163.2307                                         !
 ! D104  D(38,37,39,41)         78.8367                                         !
 ! D105  D(38,37,39,42)        -41.9871                                         !
 ! D106  D(37,39,41,45)        -88.639                                          !
 ! D107  D(37,39,41,52)         86.5045                                         !
 ! D108  D(40,39,41,45)        155.6135                                         !
 ! D109  D(40,39,41,52)        -29.243                                          !
 ! D110  D(42,39,41,45)         31.5945                                         !
 ! D111  D(42,39,41,52)       -153.2621                                         !
 ! D112  D(37,39,42,43)        -49.1323                                         !
 ! D113  D(37,39,42,44)         67.7887                                         !
 ! D114  D(37,39,42,46)       -171.5712                                         !
 ! D115  D(40,39,42,43)         69.5815                                         !
 ! D116  D(40,39,42,44)       -173.4974                                         !
 ! D117  D(40,39,42,46)        -52.8574                                         !
 ! D118  D(41,39,42,43)       -166.9289                                         !
 ! D119  D(41,39,42,44)        -50.0078                                         !
 ! D120  D(41,39,42,46)         70.6322                                         !
 ! D121  D(39,41,52,53)          4.9733                                         !
 ! D122  D(39,41,52,54)       -178.4419                                         !
 ! D123  D(45,41,52,53)        180.0                                            !
 ! D124  D(45,41,52,54)         -3.4152                                         !
 ! D125  D(39,42,46,47)        -40.865                                          !
 ! D126  D(39,42,46,48)         78.7479                                         !
 ! D127  D(39,42,46,49)       -158.3945                                         !
 ! D128  D(43,42,46,47)       -162.5214                                         !
 ! D129  D(43,42,46,48)        -42.9085                                         !
 ! D130  D(43,42,46,49)         79.9492                                         !
 ! D131  D(44,42,46,47)         79.7238                                         !
 ! D132  D(44,42,46,48)       -160.6633                                         !
 ! D133  D(44,42,46,49)        -37.8056                                         !
 ! D134  D(42,46,49,50)         12.7772                                         !
 ! D135  D(42,46,49,51)       -167.8779                                         !
 ! D136  D(47,46,49,50)       -108.8963                                         !
 ! D137  D(47,46,49,51)         70.4486                                         !
 ! D138  D(48,46,49,50)        137.1679                                         !
 ! D139  D(48,46,49,51)        -43.4872                                         !
 ! D140  D(46,49,51,121)      -175.7646                                         !
 ! D141  D(50,49,51,121)         3.5972                                         !
 ! D142  D(41,52,54,55)         37.9936                                         !
 ! D143  D(41,52,54,56)        -79.2572                                         !
 ! D144  D(41,52,54,57)        157.4524                                         !
 ! D145  D(53,52,54,55)       -145.4161                                         !
 ! D146  D(53,52,54,56)         97.3332                                         !
 ! D147  D(53,52,54,57)        -25.9573                                         !
 ! D148  D(52,54,56,59)        -86.345                                          !
 ! D149  D(52,54,56,68)         88.4255                                         !
 ! D150  D(55,54,56,59)        158.7146                                         !
 ! D151  D(55,54,56,68)        -26.5148                                         !
 ! D152  D(57,54,56,59)         36.1205                                         !
 ! D153  D(57,54,56,68)       -149.109                                          !
 ! D154  D(52,54,57,58)         65.2928                                         !
 ! D155  D(52,54,57,60)       -177.5371                                         !
 ! D156  D(52,54,57,64)        -54.6469                                         !
 ! D157  D(55,54,57,58)       -176.7923                                         !
 ! D158  D(55,54,57,60)        -59.6222                                         !
 ! D159  D(55,54,57,64)         63.2679                                         !
 ! D160  D(56,54,57,58)        -53.7533                                         !
 ! D161  D(56,54,57,60)         63.4168                                         !
 ! D162  D(56,54,57,64)       -173.693                                          !
 ! D163  D(54,56,68,69)          4.2782                                         !
 ! D164  D(54,56,68,70)       -165.8717                                         !
 ! D165  D(59,56,68,69)        178.8861                                         !
 ! D166  D(59,56,68,70)          8.7362                                         !
 ! D167  D(54,57,60,61)         61.8872                                         !
 ! D168  D(54,57,60,62)       -178.7628                                         !
 ! D169  D(54,57,60,63)        -59.0367                                         !
 ! D170  D(58,57,60,61)        178.3519                                         !
 ! D171  D(58,57,60,62)        -62.2981                                         !
 ! D172  D(58,57,60,63)         57.4279                                         !
 ! D173  D(64,57,60,61)        -61.5282                                         !
 ! D174  D(64,57,60,62)         57.8219                                         !
 ! D175  D(64,57,60,63)        177.5479                                         !
 ! D176  D(54,57,64,65)        -60.0619                                         !
 ! D177  D(54,57,64,66)         60.8443                                         !
 ! D178  D(54,57,64,67)       -178.498                                          !
 ! D179  D(58,57,64,65)       -178.4717                                         !
 ! D180  D(58,57,64,66)        -57.5655                                         !
 ! D181  D(58,57,64,67)         63.0922                                         !
 ! D182  D(60,57,64,65)         62.2813                                         !
 ! D183  D(60,57,64,66)       -176.8125                                         !
 ! D184  D(60,57,64,67)        -56.1548                                         !
 ! D185  D(56,68,70,71)         26.0817                                         !
 ! D186  D(56,68,70,72)        -93.2346                                         !
 ! D187  D(56,68,70,73)        144.2584                                         !
 ! D188  D(69,68,70,71)       -144.0669                                         !
 ! D189  D(69,68,70,72)         96.6169                                         !
 ! D190  D(69,68,70,73)        -25.8901                                         !
 ! D191  D(68,70,72,75)        -92.8643                                         !
 ! D192  D(68,70,72,82)         83.1352                                         !
 ! D193  D(71,70,72,75)        150.5844                                         !
 ! D194  D(71,70,72,82)        -33.4161                                         !
 ! D195  D(73,70,72,75)         27.6665                                         !
 ! D196  D(73,70,72,82)       -156.334                                          !
 ! D197  D(68,70,73,74)         66.1947                                         !
 ! D198  D(68,70,73,76)       -174.2293                                         !
 ! D199  D(68,70,73,80)        -54.9354                                         !
 ! D200  D(71,70,73,74)       -177.1883                                         !
 ! D201  D(71,70,73,76)        -57.6123                                         !
 ! D202  D(71,70,73,80)         61.6816                                         !
 ! D203  D(72,70,73,74)        -53.2731                                         !
 ! D204  D(72,70,73,76)         66.3028                                         !
 ! D205  D(72,70,73,80)       -174.4032                                         !
 ! D206  D(70,72,82,83)          6.4657                                         !
 ! D207  D(70,72,82,84)       -169.597                                          !
 ! D208  D(75,72,82,83)       -177.7353                                         !
 ! D209  D(75,72,82,84)          6.202                                          !
 ! D210  D(70,73,76,77)        -60.8543                                         !
 ! D211  D(70,73,76,78)         60.2019                                         !
 ! D212  D(70,73,76,79)        179.1774                                         !
 ! D213  D(74,73,76,77)         57.9818                                         !
 ! D214  D(74,73,76,78)        179.038                                          !
 ! D215  D(74,73,76,79)        -61.9865                                         !
 ! D216  D(80,73,76,77)        177.7689                                         !
 ! D217  D(80,73,76,78)        -61.1749                                         !
 ! D218  D(80,73,76,79)         57.8006                                         !
 ! D219  D(70,73,80,81)         73.0789                                         !
 ! D220  D(74,73,80,81)        -46.3583                                         !
 ! D221  D(76,73,80,81)       -165.1194                                         !
 ! D222  D(72,82,84,85)        -23.1843                                         !
 ! D223  D(72,82,84,86)       -142.734                                          !
 ! D224  D(72,82,84,87)         96.1236                                         !
 ! D225  D(83,82,84,85)        160.6205                                         !
 ! D226  D(83,82,84,86)         41.0708                                         !
 ! D227  D(83,82,84,87)        -80.0715                                         !
 ! D228  D(82,84,86,89)        -14.7502                                         !
 ! D229  D(82,84,86,98)        168.8593                                         !
 ! D230  D(85,84,86,89)       -132.28                                           !
 ! D231  D(85,84,86,98)         51.3295                                         !
 ! D232  D(87,84,86,89)        108.0221                                         !
 ! D233  D(87,84,86,98)        -68.3685                                         !
 ! D234  D(82,84,87,88)       -177.1113                                         !
 ! D235  D(82,84,87,90)        -59.0212                                         !
 ! D236  D(82,84,87,94)         65.9023                                         !
 ! D237  D(85,84,87,88)        -58.6604                                         !
 ! D238  D(85,84,87,90)         59.4298                                         !
 ! D239  D(85,84,87,94)       -175.6467                                         !
 ! D240  D(86,84,87,88)         62.1117                                         !
 ! D241  D(86,84,87,90)       -179.7982                                         !
 ! D242  D(86,84,87,94)        -54.8747                                         !
 ! D243  D(84,86,98,99)         12.5065                                         !
 ! D244  D(84,86,98,100)       148.0972                                         !
 ! D245  D(89,86,98,99)       -163.7187                                         !
 ! D246  D(89,86,98,100)       -28.128                                          !
 ! D247  D(84,87,90,91)         66.3008                                         !
 ! D248  D(84,87,90,92)        -53.5283                                         !
 ! D249  D(84,87,90,93)       -174.1975                                         !
 ! D250  D(88,87,90,91)       -176.8086                                         !
 ! D251  D(88,87,90,92)         63.3624                                         !
 ! D252  D(88,87,90,93)        -57.3068                                         !
 ! D253  D(94,87,90,91)        -58.6344                                         !
 ! D254  D(94,87,90,92)       -178.4634                                         !
 ! D255  D(94,87,90,93)         60.8674                                         !
 ! D256  D(84,87,94,95)        -57.2369                                         !
 ! D257  D(84,87,94,96)       -177.3373                                         !
 ! D258  D(84,87,94,97)         63.3031                                         !
 ! D259  D(88,87,94,95)       -173.7532                                         !
 ! D260  D(88,87,94,96)         66.1463                                         !
 ! D261  D(88,87,94,97)        -53.2133                                         !
 ! D262  D(90,87,94,95)         67.3601                                         !
 ! D263  D(90,87,94,96)        -52.7403                                         !
 ! D264  D(90,87,94,97)       -172.0999                                         !
 ! D265  D(86,98,100,101)      -19.5819                                         !
 ! D266  D(86,98,100,102)     -136.3405                                         !
 ! D267  D(86,98,100,103)      101.9618                                         !
 ! D268  D(99,98,100,101)      120.954                                          !
 ! D269  D(99,98,100,102)        4.1953                                         !
 ! D270  D(99,98,100,103)     -117.5024                                         !
 ! D271  D(98,100,102,106)    -174.4852                                         !
 ! D272  D(98,100,102,120)       5.0947                                         !
 ! D273  D(101,100,102,106)     68.2672                                         !
 ! D274  D(101,100,102,120)   -112.153                                          !
 ! D275  D(103,100,102,106)    -50.9142                                         !
 ! D276  D(103,100,102,120)    128.6657                                         !
 ! D277  D(98,100,103,104)     170.5961                                         !
 ! D278  D(98,100,103,105)      55.0298                                         !
 ! D279  D(98,100,103,107)     -66.8316                                         !
 ! D280  D(101,100,103,104)    -67.7766                                         !
 ! D281  D(101,100,103,105)    176.6571                                         !
 ! D282  D(101,100,103,107)     54.7957                                         !
 ! D283  D(102,100,103,104)     51.048                                          !
 ! D284  D(102,100,103,105)    -64.5183                                         !
 ! D285  D(102,100,103,107)    173.6203                                         !
 ! D286  D(100,103,107,108)    -59.7507                                         !
 ! D287  D(100,103,107,109)     56.2719                                         !
 ! D288  D(100,103,107,110)    178.581                                          !
 ! D289  D(104,103,107,108)     60.2922                                         !
 ! D290  D(104,103,107,109)    176.3148                                         !
 ! D291  D(104,103,107,110)    -61.3761                                         !
 ! D292  D(105,103,107,108)    178.8615                                         !
 ! D293  D(105,103,107,109)    -65.1159                                         !
 ! D294  D(105,103,107,110)     57.1932                                         !
 ! D295  D(103,107,110,111)    -58.9586                                         !
 ! D296  D(103,107,110,112)     58.4909                                         !
 ! D297  D(103,107,110,113)    179.9332                                         !
 ! D298  D(108,107,110,111)    179.4013                                         !
 ! D299  D(108,107,110,112)    -63.1492                                         !
 ! D300  D(108,107,110,113)     58.2931                                         !
 ! D301  D(109,107,110,111)     63.2467                                         !
 ! D302  D(109,107,110,112)   -179.3038                                         !
 ! D303  D(109,107,110,113)    -57.8615                                         !
 ! D304  D(107,110,113,114)     61.5881                                         !
 ! D305  D(107,110,113,115)    -62.4548                                         !
 ! D306  D(107,110,113,116)    179.5841                                         !
 ! D307  D(111,110,113,114)    -59.2575                                         !
 ! D308  D(111,110,113,115)    176.6996                                         !
 ! D309  D(111,110,113,116)     58.7385                                         !
 ! D310  D(112,110,113,114)   -177.192                                          !
 ! D311  D(112,110,113,115)     58.7651                                         !
 ! D312  D(112,110,113,116)    -59.196                                          !
 ! D313  D(110,113,116,117)    179.9224                                         !
 ! D314  D(110,113,116,118)    -58.9484                                         !
 ! D315  D(110,113,116,119)     58.7803                                         !
 ! D316  D(114,113,116,117)    -58.0166                                         !
 ! D317  D(114,113,116,118)     63.1126                                         !
 ! D318  D(114,113,116,119)   -179.1587                                         !
 ! D319  D(115,113,116,117)     57.8039                                         !
 ! D320  D(115,113,116,118)    178.9331                                         !
 ! D321  D(115,113,116,119)    -63.3382                                         !
 --------------------------------------------------------------------------------
 Symmetry turned off by external request.
 Stoichiometry    C39H62N9O11(1+)
 Framework group  C1[X(C39H62N9O11)]
 Deg. of freedom   357
 Full point group                 C1      NOp   1
                          Input orientation:                          
 ---------------------------------------------------------------------
 Center     Atomic      Atomic             Coordinates (Angstroms)
 Number     Number       Type             X           Y           Z
 ---------------------------------------------------------------------
      1          7           0       -6.694795   -4.406643   -3.527837
      2          1           0       -7.118433   -4.507840   -2.601432
      3          1           0       -6.963433   -5.212424   -4.099588
      4          1           0       -7.032680   -3.493609   -3.972585
      5          6           0       -5.194455   -4.177315   -3.484440
      6          1           0       -4.861774   -4.316945   -2.453060
      7          6           0       -5.072323   -2.684856   -3.905156
      8          6           0       -4.466353   -5.125017   -4.436258
      9          1           0       -3.393227   -4.917269   -4.412723
     10          1           0       -4.609073   -6.169748   -4.141986
     11          1           0       -4.809713   -4.984709   -5.467054
     12          8           0       -6.104280   -2.116512   -4.303046
     13          7           0       -3.869119   -2.144485   -3.820247
     14          1           0       -3.040320   -2.664670   -3.523852
     15          6           0       -3.558997   -0.770642   -4.208648
     16          1           0       -3.994392   -0.570220   -5.192550
     17          6           0       -2.023422   -0.716998   -4.258418
     18          6           0       -4.125940    0.267721   -3.185488
     19          1           0       -5.142654   -0.059203   -2.938999
     20          1           0       -3.531993    0.218639   -2.265598
     21          8           0       -1.355672   -1.671097   -3.833277
     22          6           0       -4.160175    1.655110   -3.745949
     23          6           0       -3.374763    2.732036   -3.392016
     24          1           0       -2.585568    2.803115   -2.656480
     25          6           0       -5.011478    2.096788   -4.823824
     26          6           0       -4.687564    3.456757   -5.077364
     27          6           0       -6.009227    1.471240   -5.592949
     28          1           0       -6.284633    0.436242   -5.403025
     29          7           0       -3.689549    3.810298   -4.187962
     30          1           0       -3.247388    4.715610   -4.131809
     31          6           0       -6.302900    3.556074   -6.824575
     32          1           0       -6.818140    4.103938   -7.607951
     33          6           0       -5.325361    4.200496   -6.075088
     34          1           0       -5.067699    5.239752   -6.257634
     35          6           0       -6.642962    2.207420   -6.586020
     36          1           0       -7.417768    1.742881   -7.189250
     37          7           0       -1.493233    0.427670   -4.724574
     38          1           0       -2.132502    1.201780   -4.885947
     39          6           0       -0.091095    0.789392   -4.463677
     40          1           0        0.506463   -0.114365   -4.612477
     41          6           0       -0.026384    1.239337   -2.983842
     42          6           0        0.352859    1.906912   -5.402512
     43          1           0        0.075480    1.640777   -6.428190
     44          1           0       -0.187341    2.822093   -5.142920
     45          8           0       -0.226966    2.419885   -2.662483
     46          6           0        1.858429    2.175396   -5.311339
     47          1           0        2.220690    2.141129   -4.276649
     48          1           0        2.440867    1.434830   -5.870346
     49          6           0        2.211141    3.563302   -5.805021
     50          8           0        1.420059    4.455860   -6.018876
     51          8           0        3.544273    3.698983   -5.970272
     52          7           0        0.157010    0.250714   -2.089898
     53          1           0        0.315440   -0.688568   -2.433016
     54          6           0        0.210510    0.482858   -0.639383
     55          1           0       -0.532478    1.257411   -0.415995
     56          6           0        1.635249    1.013141   -0.352481
     57          6           0       -0.126943   -0.787914    0.151599
     58          1           0        0.668980   -1.516173   -0.053487
     59          8           0        2.581702    0.256764   -0.153049
     60          6           0       -0.117650   -0.478444    1.655198
     61          1           0       -0.880242    0.270232    1.906224
     62          1           0       -0.335726   -1.383377    2.231978
     63          1           0        0.852684   -0.102409    1.984113
     64          6           0       -1.484003   -1.372321   -0.272582
     65          1           0       -2.287565   -0.643107   -0.098126
     66          1           0       -1.508886   -1.657513   -1.329471
     67          1           0       -1.711165   -2.261840    0.325824
     68          7           0        1.735858    2.357534   -0.458233
     69          1           0        0.890836    2.881321   -0.640401
     70          6           0        3.011157    3.070356   -0.531436
     71          1           0        3.741892    2.370120   -0.949636
     72          6           0        3.396482    3.482841    0.904651
     73          6           0        2.867461    4.279057   -1.474269
     74          1           0        2.168605    4.987794   -1.007258
     75          8           0        3.083063    4.585094    1.353614
     76          6           0        4.202692    4.973022   -1.696268
     77          1           0        4.598568    5.344240   -0.747687
     78          1           0        4.920706    4.277580   -2.146292
     79          1           0        4.067170    5.815655   -2.380343
     80          8           0        2.385495    3.867557   -2.756606
     81          1           0        1.443005    3.635357   -2.693316
     82          7           0        4.008609    2.503284    1.600692
     83          1           0        4.260377    1.637320    1.138186
     84          6           0        4.270889    2.567291    3.027354
     85          1           0        4.285821    3.624595    3.308011
     86          6           0        5.635412    1.915713    3.309908
     87          6           0        3.166977    1.842581    3.860754
     88          1           0        3.423538    1.989809    4.917742
     89          8           0        6.195647    1.210235    2.460375
     90          6           0        1.788575    2.463121    3.600585
     91          1           0        1.466715    2.289091    2.566591
     92          1           0        1.796565    3.545655    3.763329
     93          1           0        1.040060    2.016501    4.265683
     94          6           0        3.162511    0.329617    3.595050
     95          1           0        3.021346    0.110069    2.529519
     96          1           0        2.350410   -0.149633    4.153763
     97          1           0        4.100885   -0.136361    3.911464
     98          7           0        6.089010    2.127534    4.560140
     99          1           0        5.439225    2.513185    5.265895
    100          6           0        6.912260    1.164526    5.286775
    101          1           0        6.794692    0.173753    4.827873
    102          6           0        6.336155    1.100939    6.769931
    103          6           0        8.392773    1.527347    5.306710
    104          1           0        8.877907    0.841762    6.010550
    105          1           0        8.502898    2.544028    5.711185
    106          8           0        7.001780    0.398942    7.549653
    107          6           0        9.040525    1.451973    3.922100
    108          1           0        8.948843    0.431954    3.526298
    109          1           0        8.497909    2.095996    3.220643
    110          6           0       10.522582    1.857298    3.972845
    111          1           0       10.607268    2.883375    4.359871
    112          1           0       11.061586    1.198377    4.669204
    113          6           0       11.146867    1.774907    2.593768
    114          1           0       10.674161    2.451374    1.877576
    115          1           0       11.139877    0.760427    2.187808
    116          7           0       12.629520    2.193131    2.653962
    117          1           0       13.097596    2.152259    1.740851
    118          1           0       12.712228    3.151848    3.012713
    119          1           0       13.142331    1.585042    3.303560
    120          8           0        5.286727    1.780724    6.947568
    121          1           0        3.698158    4.629227   -6.220631
 ---------------------------------------------------------------------
 Rotational constants (GHZ):           0.0656879           0.0160991           0.0145095
 Standard basis: 6-31G(d) (6D, 7F)
  1009 basis functions,  1900 primitive gaussians,  1009 cartesian basis functions
   223 alpha electrons      223 beta electrons
       nuclear repulsion energy      8858.7995699970 Hartrees.
 NAtoms=  121 NActive=  121 NUniq=  121 SFac= 1.00D+00 NAtFMM=   60 NAOKFM=T Big=T
 Integral buffers will be    131072 words long.
 Raffenetti 2 integral format.
 Two-electron integral symmetry is turned off.
 Nuclear repulsion after empirical dispersion term =     8858.6306763134 Hartrees.
 One-electron integrals computed using PRISM.
 NBasis=  1009 RedAO= T EigKep=  3.68D-04  NBF=  1009
 NBsUse=  1009 1.00D-06 EigRej= -1.00D+00 NBFU=  1009
 Initial guess from the checkpoint file:  "conf-231.chk"
 B after Tr=     0.000000    0.000000    0.000000
         Rot=    1.000000    0.000000    0.000000    0.000000 Ang=   0.00 deg.
 Requested convergence on RMS density matrix=1.00D-08 within 128 cycles.
 Requested convergence on MAX density matrix=1.00D-06.
 Requested convergence on             energy=1.00D-06.
 No special actions if energy rises.
 SCF Done:  E(RB3LYP) =  -2843.73064178     A.U. after    1 cycles
            NFock=  1  Conv=0.81D-08     -V/T= 2.0093
 Hyperfine terms turned off by default for NAtoms > 100.

 **********************************************************************

            Population analysis using the SCF Density.

 **********************************************************************

 Alpha  occ. eigenvalues --  -19.28095 -19.24073 -19.23348 -19.20749 -19.18541
 Alpha  occ. eigenvalues --  -19.18533 -19.17030 -19.13502 -19.11666 -19.04217
 Alpha  occ. eigenvalues --  -19.03201 -14.61066 -14.61057 -14.50412 -14.46432
 Alpha  occ. eigenvalues --  -14.45386 -14.44953 -14.41519 -14.37492 -14.33393
 Alpha  occ. eigenvalues --  -10.44627 -10.42307 -10.39970 -10.37594 -10.37297
 Alpha  occ. eigenvalues --  -10.36882 -10.35106 -10.34783 -10.34184 -10.32301
 Alpha  occ. eigenvalues --  -10.30896 -10.30180 -10.29583 -10.29560 -10.29004
 Alpha  occ. eigenvalues --  -10.28656 -10.28244 -10.27927 -10.26789 -10.26354
 Alpha  occ. eigenvalues --  -10.26157 -10.26096 -10.25711 -10.25664 -10.25655
 Alpha  occ. eigenvalues --  -10.25543 -10.25121 -10.24923 -10.24911 -10.23633
 Alpha  occ. eigenvalues --  -10.23060 -10.22716 -10.22184 -10.21061 -10.20118
 Alpha  occ. eigenvalues --  -10.19595 -10.19199 -10.18569 -10.18117  -1.20429
 Alpha  occ. eigenvalues --   -1.15269  -1.15035  -1.14852  -1.14709  -1.12364
 Alpha  occ. eigenvalues --   -1.08927  -1.07145  -1.06093  -1.06026  -1.05328
 Alpha  occ. eigenvalues --   -1.05235  -1.03179  -1.02941  -1.01036  -0.97658
 Alpha  occ. eigenvalues --   -0.97166  -0.94540  -0.94075  -0.91102  -0.90958
 Alpha  occ. eigenvalues --   -0.90187  -0.90137  -0.88374  -0.88023  -0.87042
 Alpha  occ. eigenvalues --   -0.85372  -0.82665  -0.82313  -0.81474  -0.80945
 Alpha  occ. eigenvalues --   -0.80561  -0.80417  -0.79520  -0.78111  -0.76975
 Alpha  occ. eigenvalues --   -0.75721  -0.75103  -0.74872  -0.74762  -0.73772
 Alpha  occ. eigenvalues --   -0.73525  -0.73150  -0.72288  -0.71494  -0.70945
 Alpha  occ. eigenvalues --   -0.69460  -0.69383  -0.69220  -0.67538  -0.67091
 Alpha  occ. eigenvalues --   -0.66907  -0.66499  -0.64895  -0.64839  -0.64379
 Alpha  occ. eigenvalues --   -0.63912  -0.63542  -0.63346  -0.63026  -0.61590
 Alpha  occ. eigenvalues --   -0.61003  -0.60817  -0.60373  -0.60316  -0.59188
 Alpha  occ. eigenvalues --   -0.58916  -0.58175  -0.58001  -0.57869  -0.57144
 Alpha  occ. eigenvalues --   -0.57003  -0.56520  -0.56100  -0.55652  -0.55513
 Alpha  occ. eigenvalues --   -0.55209  -0.54942  -0.54344  -0.54220  -0.53886
 Alpha  occ. eigenvalues --   -0.53549  -0.52960  -0.52819  -0.52430  -0.52204
 Alpha  occ. eigenvalues --   -0.51702  -0.51257  -0.50943  -0.50896  -0.50488
 Alpha  occ. eigenvalues --   -0.50142  -0.49990  -0.49971  -0.49068  -0.48846
 Alpha  occ. eigenvalues --   -0.48732  -0.48096  -0.47978  -0.47734  -0.47588
 Alpha  occ. eigenvalues --   -0.47259  -0.46686  -0.46459  -0.46172  -0.45992
 Alpha  occ. eigenvalues --   -0.45661  -0.45421  -0.45174  -0.45057  -0.44689
 Alpha  occ. eigenvalues --   -0.44531  -0.44012  -0.43822  -0.43527  -0.42981
 Alpha  occ. eigenvalues --   -0.42666  -0.42445  -0.42435  -0.42297  -0.42171
 Alpha  occ. eigenvalues --   -0.41843  -0.41240  -0.40994  -0.40687  -0.40664
 Alpha  occ. eigenvalues --   -0.40530  -0.40368  -0.40285  -0.40149  -0.39942
 Alpha  occ. eigenvalues --   -0.39839  -0.39498  -0.39247  -0.39073  -0.38340
 Alpha  occ. eigenvalues --   -0.37945  -0.37375  -0.36792  -0.36550  -0.36321
 Alpha  occ. eigenvalues --   -0.36071  -0.35248  -0.35103  -0.34627  -0.34602
 Alpha  occ. eigenvalues --   -0.34204  -0.33836  -0.33721  -0.33482  -0.32334
 Alpha  occ. eigenvalues --   -0.31642  -0.31526  -0.31462  -0.30326  -0.29357
 Alpha  occ. eigenvalues --   -0.27780  -0.27273  -0.26562  -0.25593  -0.25003
 Alpha  occ. eigenvalues --   -0.19375  -0.19015  -0.17470
 Alpha virt. eigenvalues --   -0.13293  -0.12157  -0.11842  -0.09620  -0.08276
 Alpha virt. eigenvalues --   -0.07256  -0.06933  -0.05536  -0.05198  -0.04955
 Alpha virt. eigenvalues --   -0.04402  -0.03515  -0.03086  -0.02544  -0.01943
 Alpha virt. eigenvalues --   -0.01932  -0.01866  -0.00420  -0.00066   0.00501
 Alpha virt. eigenvalues --    0.00647   0.01355   0.01462   0.01564   0.01985
 Alpha virt. eigenvalues --    0.02141   0.02457   0.02846   0.03141   0.03392
 Alpha virt. eigenvalues --    0.03641   0.03984   0.04618   0.05101   0.05197
[...]
 Alpha virt. eigenvalues --    0.85784   0.86116   0.86303   0.86427   0.86476
 Alpha virt. eigenvalues --    0.87060   0.87369   0.87676   0.87974   0.88015
 Alpha virt. eigenvalues --    0.88779   0.88861   0.89226   0.89361   0.89569
 Alpha virt. eigenvalues --    0.89827   0.90256   0.90351   0.90515   0.90870
 Alpha virt. eigenvalues --    0.91140   0.91568   0.91670   0.92068   0.92535
 Alpha virt. eigenvalues --    0.92793   0.92892   0.93407   0.93449   0.93691
 Alpha virt. eigenvalues --    0.93869   0.94767   0.95417   0.95647   0.96054
 Alpha virt. eigenvalues --    0.96703   0.96978   0.97330   0.97454   0.97894
 Alpha virt. eigenvalues --    0.98765   0.99065   0.99675   1.00004   1.00567
 Alpha virt. eigenvalues --    1.00703   1.01349   1.01739   1.01884   1.02562
 Alpha virt. eigenvalues --    1.02829   1.03592   1.04637   1.04945   1.05734
 Alpha virt. eigenvalues --    1.06237   1.06806   1.07136   1.07489   1.07660
 Alpha virt. eigenvalues --    1.08043   1.08775   1.08837   1.09555   1.10164
 Alpha virt. eigenvalues --    1.10565   1.11521   1.11782   1.12378   1.13255
 Alpha virt. eigenvalues --    1.13514   1.14297   1.14532   1.14903   1.15544
 Alpha virt. eigenvalues --    1.15821   1.16009   1.16669   1.17220   1.17408
 Alpha virt. eigenvalues --    1.17982   1.18166   1.18519   1.19367   1.19467
 Alpha virt. eigenvalues --    1.19877   1.20157   1.20447   1.21006   1.21184
 Alpha virt. eigenvalues --    1.21669   1.22113   1.22800   1.23623   1.24175
 Alpha virt. eigenvalues --    1.24829   1.25393   1.26115   1.26938   1.27611
 Alpha virt. eigenvalues --    1.27943   1.28325   1.28761   1.29671   1.29905
 Alpha virt. eigenvalues --    1.30276   1.31184   1.31323   1.32055   1.32295
 Alpha virt. eigenvalues --    1.32837   1.33712   1.34040   1.34850   1.35073
 Alpha virt. eigenvalues --    1.35592   1.36501   1.37338   1.37580   1.38081
 Alpha virt. eigenvalues --    1.38915   1.39514   1.39749   1.40281   1.40416
 Alpha virt. eigenvalues --    1.41080   1.41534   1.42275   1.42696   1.43153
 Alpha virt. eigenvalues --    1.43243   1.43643   1.43905   1.44165   1.44563
 Alpha virt. eigenvalues --    1.45459   1.45968   1.46552   1.47104   1.47956
 Alpha virt. eigenvalues --    1.48088   1.48550   1.49738   1.50529   1.51564
 Alpha virt. eigenvalues --    1.52624   1.52856   1.53137   1.53680   1.54011
 Alpha virt. eigenvalues --    1.54320   1.54542   1.55601   1.55935   1.57321
 Alpha virt. eigenvalues --    1.57713   1.58101   1.58888   1.59619   1.60762
 Alpha virt. eigenvalues --    1.61191   1.61558   1.62666   1.62857   1.63401
 Alpha virt. eigenvalues --    1.63423   1.63857   1.64565   1.65464   1.66011
 Alpha virt. eigenvalues --    1.66404   1.66683   1.67029   1.67293   1.67913
 Alpha virt. eigenvalues --    1.68381   1.69041   1.69592   1.69977   1.70174
 Alpha virt. eigenvalues --    1.70871   1.71020   1.71277   1.71943   1.72132
 Alpha virt. eigenvalues --    1.72409   1.72512   1.73694   1.73967   1.74256
 Alpha virt. eigenvalues --    1.74657   1.74892   1.74975   1.75207   1.75591
 Alpha virt. eigenvalues --    1.75926   1.76496   1.77063   1.77229   1.77373
 Alpha virt. eigenvalues --    1.77996   1.78140   1.78798   1.78908   1.79061
 Alpha virt. eigenvalues --    1.79855   1.80350   1.80607   1.80940   1.81471
 Alpha virt. eigenvalues --    1.81528   1.81579   1.82322   1.82734   1.83255
 Alpha virt. eigenvalues --    1.83394   1.83560   1.84004   1.84832   1.84946
 Alpha virt. eigenvalues --    1.85306   1.85576   1.85918   1.86165   1.86241
 Alpha virt. eigenvalues --    1.87173   1.87371   1.87470   1.87779   1.88504
 Alpha virt. eigenvalues --    1.88906   1.89583   1.89708   1.89822   1.90273
 Alpha virt. eigenvalues --    1.90374   1.90651   1.91006   1.91580   1.91847
 Alpha virt. eigenvalues --    1.92199   1.92499   1.92922   1.93105   1.93474
 Alpha virt. eigenvalues --    1.94101   1.94179   1.94451   1.94488   1.95035
 Alpha virt. eigenvalues --    1.95232   1.95432   1.95823   1.96889   1.97099
 Alpha virt. eigenvalues --    1.97205   1.97868   1.98027   1.98204   1.98578
 Alpha virt. eigenvalues --    1.99631   1.99921   2.00194   2.00567   2.00663
 Alpha virt. eigenvalues --    2.01627   2.02533   2.02901   2.03361   2.03699
 Alpha virt. eigenvalues --    2.03935   2.04304   2.04504   2.04962   2.05233
 Alpha virt. eigenvalues --    2.05948   2.06145   2.06455   2.06847   2.07555
 Alpha virt. eigenvalues --    2.07674   2.08370   2.08678   2.09683   2.10201
 Alpha virt. eigenvalues --    2.10641   2.10796   2.11112   2.11581   2.12228
 Alpha virt. eigenvalues --    2.12718   2.12872   2.13520   2.13982   2.14148
 Alpha virt. eigenvalues --    2.14380   2.14473   2.14878   2.16299   2.16763
 Alpha virt. eigenvalues --    2.17108   2.17470   2.18138   2.18375   2.19068
 Alpha virt. eigenvalues --    2.19171   2.19516   2.19775   2.20141   2.20226
 Alpha virt. eigenvalues --    2.21627   2.22316   2.22435   2.23333   2.23369
 Alpha virt. eigenvalues --    2.24008   2.24255   2.24934   2.25349   2.26185
 Alpha virt. eigenvalues --    2.26414   2.27817   2.28375   2.29350   2.30118
 Alpha virt. eigenvalues --    2.30412   2.31154   2.31387   2.31755   2.32006
 Alpha virt. eigenvalues --    2.32789   2.33029   2.33277   2.33522   2.34510
 Alpha virt. eigenvalues --    2.35883   2.36616   2.37218   2.37483   2.38212
 Alpha virt. eigenvalues --    2.38529   2.39705   2.40006   2.40318   2.40918
 Alpha virt. eigenvalues --    2.41468   2.42254   2.42302   2.43441   2.43766
 Alpha virt. eigenvalues --    2.44139   2.44407   2.45218   2.45615   2.46262
 Alpha virt. eigenvalues --    2.47264   2.48144   2.48661   2.49332   2.50063
 Alpha virt. eigenvalues --    2.50924   2.51239   2.52017   2.52371   2.53238
 Alpha virt. eigenvalues --    2.53867   2.53991   2.54187   2.54942   2.56008
 Alpha virt. eigenvalues --    2.56386   2.56728   2.57191   2.57634   2.58443
 Alpha virt. eigenvalues --    2.59258   2.59336   2.59810   2.61265   2.61861
 Alpha virt. eigenvalues --    2.62154   2.62376   2.63411   2.64087   2.65669
 Alpha virt. eigenvalues --    2.66413   2.66816   2.67415   2.68065   2.68543
 Alpha virt. eigenvalues --    2.69577   2.71232   2.71659   2.71960   2.72640
 Alpha virt. eigenvalues --    2.73493   2.74897   2.76288   2.76436   2.78483
 Alpha virt. eigenvalues --    2.78885   2.79301   2.79383   2.80335   2.81413
 Alpha virt. eigenvalues --    2.81958   2.82366   2.85335   2.85929   2.85990
 Alpha virt. eigenvalues --    2.87838   2.88932   2.89627   2.90729   2.91858
 Alpha virt. eigenvalues --    2.93101   2.93647   2.94761   2.95791   2.97405
 Alpha virt. eigenvalues --    2.97997   2.98448   2.99295   2.99857   3.01794
 Alpha virt. eigenvalues --    3.03784   3.05932   3.06383   3.06776   3.09729
 Alpha virt. eigenvalues --    3.10726   3.12667   3.13338   3.17855   3.18590
 Alpha virt. eigenvalues --    3.23147   3.37423   3.57917   3.62387   3.78353
 Alpha virt. eigenvalues --    3.89012   3.92055   3.94078   3.95661   3.95886
 Alpha virt. eigenvalues --    3.97947   4.00002   4.01587   4.03016   4.03194
 Alpha virt. eigenvalues --    4.04788   4.07028   4.07041   4.07870   4.09998
 Alpha virt. eigenvalues --    4.11068   4.13880   4.15221   4.16353   4.16476
 Alpha virt. eigenvalues --    4.17555   4.18060   4.20668   4.20995   4.21698
 Alpha virt. eigenvalues --    4.22920   4.24215   4.26183   4.26676   4.28070
 Alpha virt. eigenvalues --    4.28696   4.29283   4.32913   4.34196   4.34705
 Alpha virt. eigenvalues --    4.35964   4.36300   4.36952   4.38773   4.40459
 Alpha virt. eigenvalues --    4.41336   4.41435   4.45736   4.49052   4.49836
 Alpha virt. eigenvalues --    4.51577   4.52042   4.52425   4.54084   4.55948
 Alpha virt. eigenvalues --    4.59333   4.60591   4.63865   4.65983   4.71102
 Alpha virt. eigenvalues --    4.73104
          Condensed to atoms (all electrons):
 Mulliken charges:
               1
     1  N   -0.757345
     2  H    0.420544
     3  H    0.416841
     4  H    0.437660
     5  C   -0.108305
     6  H    0.228092
     7  C    0.657044
     8  C   -0.483328
     9  H    0.220788
    10  H    0.198731
    11  H    0.198383
    12  O   -0.538815
    13  N   -0.611686
    14  H    0.377747
    15  C   -0.062544
    16  H    0.210413
    17  C    0.628307
    18  C   -0.367518
    19  H    0.181359
    20  H    0.173100
    21  O   -0.559255
    22  C   -0.003370
    23  C   -0.011210
    24  H    0.196028
    25  C    0.090898
    26  C    0.309615
    27  C   -0.225076
    28  H    0.137002
    29  N   -0.682341
    30  H    0.348464
    31  C   -0.148482
    32  H    0.143117
    33  C   -0.156309
    34  H    0.145112
    35  C   -0.140158
    36  H    0.131650
    37  N   -0.602541
    38  H    0.371763
    39  C   -0.060176
    40  H    0.179115
    41  C    0.635593
    42  C   -0.286424
    43  H    0.159706
    44  H    0.189351
    45  O   -0.571723
    46  C   -0.390124
    47  H    0.213224
    48  H    0.174575
    49  C    0.612484
    50  O   -0.470261
    51  O   -0.567027
    52  N   -0.593407
    53  H    0.362862
    54  C   -0.039868
    55  H    0.157054
    56  C    0.635057
    57  C   -0.102090
    58  H    0.160742
    59  O   -0.532574
    60  C   -0.475665
    61  H    0.141611
    62  H    0.153328
    63  H    0.205788
    64  C   -0.478024
    65  H    0.140284
    66  H    0.142194
    67  H    0.148526
    68  N   -0.604369
    69  H    0.342001
    70  C   -0.057999
    71  H    0.167416
    72  C    0.640139
    73  C    0.107775
    74  H    0.146019
    75  O   -0.549565
    76  C   -0.460547
    77  H    0.177208
    78  H    0.145309
    79  H    0.155880
    80  O   -0.660084
    81  H    0.422587
    82  N   -0.595050
    83  H    0.357482
    84  C   -0.074455
    85  H    0.177164
    86  C    0.595642
    87  C   -0.086920
    88  H    0.183137
    89  O   -0.585167
    90  C   -0.454052
    91  H    0.124896
    92  H    0.160910
    93  H    0.137084
    94  C   -0.483378
    95  H    0.153440
    96  H    0.137532
    97  H    0.172705
    98  N   -0.599630
    99  H    0.357522
   100  C   -0.081846
   101  H    0.136516
   102  C    0.579884
   103  C   -0.252435
   104  H    0.162362
   105  H    0.125675
   106  O   -0.590451
   107  C   -0.263076
   108  H    0.150008
   109  H    0.170979
   110  C   -0.290689
   111  H    0.157960
   112  H    0.160130
   113  C   -0.205552
   114  H    0.225683
   115  H    0.223419
   116  N   -0.731229
   117  H    0.419475
   118  H    0.421961
   119  H    0.422155
   120  O   -0.613861
   121  H    0.413788
 Sum of Mulliken charges =   1.00000
 Mulliken charges with hydrogens summed into heavy atoms:
               1
     1  N    0.517700
     5  C    0.119788
     7  C    0.657044
     8  C    0.134574
    12  O   -0.538815
    13  N   -0.233938
    15  C    0.147869
    17  C    0.628307
    18  C   -0.013059
    21  O   -0.559255
    22  C   -0.003370
    23  C    0.184817
    25  C    0.090898
    26  C    0.309615
    27  C   -0.088075
    29  N   -0.333876
    31  C   -0.005365
    33  C   -0.011198
    35  C   -0.008509
    37  N   -0.230778
    39  C    0.118939
    41  C    0.635593
    42  C    0.062634
    45  O   -0.571723
    46  C   -0.002325
    49  C    0.612484
    50  O   -0.470261
    51  O   -0.153239
    52  N   -0.230545
    54  C    0.117186
    56  C    0.635057
    57  C    0.058652
    59  O   -0.532574
    60  C    0.025062
    64  C   -0.047019
    68  N   -0.262368
    70  C    0.109417
    72  C    0.640139
    73  C    0.253794
    75  O   -0.549565
    76  C    0.017849
    80  O   -0.237498
    82  N   -0.237568
    84  C    0.102709
    86  C    0.595642
    87  C    0.096218
    89  O   -0.585167
    90  C   -0.031162
    94  C   -0.019700
    98  N   -0.242108
   100  C    0.054671
   102  C    0.579884
   103  C    0.035603
   106  O   -0.590451
   107  C    0.057911
   110  C    0.027402
   113  C    0.243550
   116  N    0.532362
   120  O   -0.613861
 Electronic spatial extent (au):  <R**2>=          78118.7356
 Charge=              1.0000 electrons
 Dipole moment (field-independent basis, Debye):
    X=              2.7915    Y=            -12.0049    Z=            -28.4214  Tot=             30.9788
 Quadrupole moment (field-independent basis, Debye-Ang):
   XX=            289.9046   YY=           -243.5569   ZZ=           -418.6513
   XY=            190.6476   XZ=             72.2975   YZ=             49.1592
 Traceless Quadrupole moment (field-independent basis, Debye-Ang):
   XX=            414.0058   YY=           -119.4557   ZZ=           -294.5501
   XY=            190.6476   XZ=             72.2975   YZ=             49.1592
 Octapole moment (field-independent basis, Debye-Ang**2):
  XXX=           5181.9791  YYY=          -1676.0585  ZZZ=           -452.2884  XYY=           -719.4388
  XXY=            176.2575  XXZ=            584.0536  XZZ=          -1330.7315  YZZ=           -692.3989
  YYZ=            -36.0854  XYZ=           -177.1605
 Hexadecapole moment (field-independent basis, Debye-Ang**3):
 XXXX=          51084.9497 YYYY=         -11996.4227 ZZZZ=         -43302.0119 XXXY=          16321.3688
 XXXZ=           4490.5111 YYYX=          -2521.1430 YYYZ=           1807.3527 ZZZX=         -19863.7720
 ZZZY=            421.8188 XXYY=          -3897.6070 XXZZ=         -13889.4274 YYZZ=          -6720.2473
 XXYZ=           5258.5084 YYXZ=          -2145.7393 ZZXY=           -560.4174
 N-N= 8.858630676313D+03 E-N=-2.431665091716D+04  KE= 2.817477874969D+03
 Unable to Open any file for archive entry.
 1\1\GINC-AMR-127\SP\RB3LYP\6-31G(d)\C39H62N9O11(1+)\KENGMITH\25-Jun-20
 22\0\\# B3LYP/6-31G* empiricaldispersion=gd3 guess=read geom=check nos
 ymm integral(ultrafinegrid)\\Candidate Structure: Conf:231 Charge calc
  in gas phase\\1,1\N,0,-6.6947950499,-4.4066431369,-3.5278365304\H,0,-
 7.1184331846,-4.5078399067,-2.6014319159\H,0,-6.9634333488,-5.21242357
 25,-4.0995878331\H,0,-7.0326800985,-3.4936086225,-3.9725853994\C,0,-5.
 194455007,-4.1773146318,-3.4844398709\H,0,-4.8617741238,-4.3169446689,
 -2.4530604688\C,0,-5.0723232969,-2.6848558776,-3.9051556161\C,0,-4.466
 3531816,-5.125016666,-4.4362583084\H,0,-3.3932273995,-4.9172689944,-4.
 4127230998\H,0,-4.6090729176,-6.1697477151,-4.1419859129\H,0,-4.809713
 3315,-4.9847094616,-5.4670538421\O,0,-6.1042795495,-2.1165120682,-4.30
 30460414\N,0,-3.8691192798,-2.1444846376,-3.82024743\H,0,-3.0403203216
 ,-2.6646702387,-3.5238524438\C,0,-3.5589972672,-0.7706423143,-4.208648
 2151\H,0,-3.9943922645,-0.5702203754,-5.1925503747\C,0,-2.0234218505,-
 0.7169982253,-4.2584176414\C,0,-4.1259402235,0.2677214959,-3.185487941
 5\H,0,-5.1426537028,-0.0592029271,-2.938998762\H,0,-3.5319928294,0.218
 6392331,-2.2655984926\O,0,-1.355672097,-1.6710966011,-3.8332765535\C,0
 ,-4.1601753651,1.6551095953,-3.7459488177\C,0,-3.3747628103,2.73203618
 46,-3.392016294\H,0,-2.5855679044,2.8031151433,-2.65647982\C,0,-5.0114
 782605,2.0967875346,-4.8238240296\C,0,-4.687564067,3.4567574046,-5.077
 3643942\C,0,-6.0092273254,1.4712403445,-5.5929490957\H,0,-6.2846333997
 ,0.4362420227,-5.4030249602\N,0,-3.6895486364,3.8102984407,-4.18796203
 34\H,0,-3.247387715,4.7156097299,-4.1318090557\C,0,-6.3029003436,3.556
 0735284,-6.8245750268\H,0,-6.8181397222,4.1039378458,-7.607951036\C,0,
 -5.325361423,4.200496313,-6.0750876552\H,0,-5.0676989687,5.2397523045,
 -6.2576341211\C,0,-6.6429624765,2.2074204403,-6.5860197737\H,0,-7.4177
 677705,1.7428811599,-7.1892500764\N,0,-1.4932325317,0.4276699916,-4.72
 4574294\H,0,-2.1325016072,1.2017804312,-4.8859469144\C,0,-0.091095163,
 0.7893922455,-4.4636768717\H,0,0.506462838,-0.1143645241,-4.6124767829
 \C,0,-0.0263838216,1.2393367665,-2.9838424102\C,0,0.3528592132,1.90691
 20844,-5.4025118222\H,0,0.0754801587,1.6407766296,-6.4281899408\H,0,-0
 .1873408446,2.8220925305,-5.142920027\O,0,-0.2269656725,2.4198845815,-
 2.6624829744\C,0,1.8584293959,2.1753955646,-5.311339492\H,0,2.22069014
 33,2.1411291691,-4.2766485356\H,0,2.4408666096,1.4348302381,-5.8703457
 382\C,0,2.2111413534,3.5633020269,-5.8050211427\O,0,1.4200592215,4.455
 8601366,-6.0188757224\O,0,3.5442733614,3.6989829097,-5.9702717713\N,0,
 0.1570103902,0.2507136571,-2.0898975028\H,0,0.3154401444,-0.6885682468
 ,-2.4330160016\C,0,0.2105097552,0.4828578601,-0.6393830074\H,0,-0.5324
 781184,1.2574109396,-0.4159949637\C,0,1.6352491763,1.0131407579,-0.352
 4811629\C,0,-0.1269431235,-0.7879136066,0.1515993728\H,0,0.6689796938,
 -1.5161726059,-0.0534872763\O,0,2.5817024971,0.2567642539,-0.153049354
 7\C,0,-0.1176500497,-0.4784436259,1.655198238\H,0,-0.8802416366,0.2702
 321009,1.9062241759\H,0,-0.3357263544,-1.3833771825,2.2319781979\H,0,0
 .8526842746,-0.1024090223,1.9841131955\C,0,-1.4840032559,-1.3723209815
 ,-0.2725816013\H,0,-2.28756541,-0.6431067281,-0.0981261253\H,0,-1.5088
 859417,-1.6575125995,-1.3294714515\H,0,-1.7111645203,-2.2618397282,0.3
 25824414\N,0,1.7358578012,2.3575340364,-0.4582331506\H,0,0.8908362396,
 2.8813205129,-0.640400534\C,0,3.0111566084,3.070356338,-0.5314364877\H
 ,0,3.7418915891,2.3701199957,-0.9496361043\C,0,3.3964823163,3.48284112
 53,0.9046507868\C,0,2.8674609998,4.2790565675,-1.4742687283\H,0,2.1686
 053006,4.9877940044,-1.0072579087\O,0,3.0830631845,4.585093657,1.35361
 41582\C,0,4.2026918757,4.9730221347,-1.6962677522\H,0,4.5985684009,5.3
 442397546,-0.7476871839\H,0,4.920705547,4.2775799451,-2.146292191\H,0,
 4.0671699068,5.8156549494,-2.3803430186\O,0,2.3854951632,3.8675572978,
 -2.7566056138\H,0,1.4430049392,3.6353568525,-2.693316031\N,0,4.0086085
 944,2.5032835386,1.600691592\H,0,4.260377322,1.6373196244,1.1381859488
 \C,0,4.2708892179,2.5672907657,3.0273540021\H,0,4.2858208513,3.6245952
 07,3.3080113342\C,0,5.6354120584,1.9157134973,3.3099081856\C,0,3.16697
 68745,1.8425809581,3.8607539598\H,0,3.4235379182,1.9898092707,4.917742
 3209\O,0,6.1956468551,1.210235141,2.4603746284\C,0,1.7885749902,2.4631
 207299,3.6005847379\H,0,1.4667146127,2.2890912652,2.5665907211\H,0,1.7
 965647107,3.5456551706,3.7633285208\H,0,1.0400604336,2.0165007257,4.26
 56829621\C,0,3.1625114949,0.3296172072,3.5950499325\H,0,3.0213461835,0
 .110068672,2.5295190667\H,0,2.350409959,-0.1496334308,4.1537630299\H,0
 ,4.1008848494,-0.1363608612,3.9114636032\N,0,6.0890104781,2.1275341471
 ,4.5601396923\H,0,5.439224859,2.5131845867,5.2658945137\C,0,6.91225993
 2,1.1645262663,5.2867747795\H,0,6.7946920565,0.1737529208,4.8278730218
 \C,0,6.3361548527,1.1009392633,6.7699313703\C,0,8.392773333,1.52734666
 41,5.3067096645\H,0,8.8779067333,0.841761808,6.0105501082\H,0,8.502897
 8421,2.5440283371,5.7111854261\O,0,7.0017803982,0.398941515,7.54965308
 7\C,0,9.040524871,1.4519731776,3.9221004037\H,0,8.9488429263,0.4319538
 059,3.5262979319\H,0,8.4979089036,2.0959958493,3.2206428454\C,0,10.522
 5817659,1.8572983127,3.9728453661\H,0,10.6072677434,2.8833752139,4.359
 8711147\H,0,11.0615858233,1.1983769431,4.6692037467\C,0,11.1468666874,
 1.7749065274,2.5937682204\H,0,10.6741606242,2.4513740511,1.8775759968\
 H,0,11.139876654,0.7604271458,2.1878076387\N,0,12.629519963,2.19313126
 88,2.6539617681\H,0,13.0975956766,2.1522585629,1.7408508978\H,0,12.712
 227708,3.1518478814,3.012712695\H,0,13.1423312297,1.5850423031,3.30356
 04104\O,0,5.2867271149,1.7807236754,6.94756761\H,0,3.6981583834,4.6292
 267371,-6.2206314993\\Version=ES64L-G16RevC.01\HF=-2843.7306418\RMSD=8
 .111e-09\Dipole=-0.9262386,-7.0920024,-9.2861353\Quadrupole=307.803177
 ,-88.8123818,-218.9907953,141.7418505,53.7514104,36.5486563\PG=C01 [X(
 C39H62N9O11)]\\@
 The archive entry for this job was punched.


 DO NOT LET SELFISH MEN OR GREEDY INTERESTS SKIN YOUR COUNTRY OF ITS
 BEAUTY, ITS RICHES, OR ITS ROMANCE. -- THEODORE ROOSEVELT
 Job cpu time:       0 days  0 hours  3 minutes 11.5 seconds.
 Elapsed time:       0 days  0 hours  0 minutes 48.8 seconds.
 File lengths (MBytes):  RWF=    640 Int=      0 D2E=      0 Chk=    104 Scr=     16
 Normal termination of Gaussian 16 at Sat Jun 25 08:58:33 2022.
