 Entering Gaussian System, Link 0=/opt/software/Gaussian/g16-AVX2-C.01/g16/g16
 Input=charge-conf-747.com
 Output=charge-conf-747.log
 Initial command:
 /opt/software/Gaussian/g16-AVX2-C.01/g16/l1.exe "/mnt/gs18/scratch/users/kengmith/Gau-13621.inp" -scrdir="/mnt/gs18/scratch/users/kengmith/"
 Entering Link 1 = /opt/software/Gaussian/g16-AVX2-C.01/g16/l1.exe PID=     13631.
  
 Copyright (c) 1988-2019, Gaussian, Inc.  All Rights Reserved.
  
 This is part of the Gaussian(R) 16 program.  It is based on
 the Gaussian(R) 09 system (copyright 2009, Gaussian, Inc.),
 the Gaussian(R) 03 system (copyright 2003, Gaussian, Inc.),
 the Gaussian(R) 98 system (copyright 1998, Gaussian, Inc.),
 the Gaussian(R) 94 system (copyright 1995, Gaussian, Inc.),
 the Gaussian 92(TM) system (copyright 1992, Gaussian, Inc.),
 the Gaussian 90(TM) system (copyright 1990, Gaussian, Inc.),
 the Gaussian 88(TM) system (copyright 1988, Gaussian, Inc.),
 the Gaussian 86(TM) system (copyright 1986, Carnegie Mellon
 University), and the Gaussian 82(TM) system (copyright 1983,
 Carnegie Mellon University). Gaussian is a federally registered
 trademark of Gaussian, Inc.
  
 This software contains proprietary and confidential information,
 including trade secrets, belonging to Gaussian, Inc.
  
 This software is provided under written license and may be
 used, copied, transmitted, or stored only in accord with that
 written license.
  
 The following legend is applicable only to US Government
 contracts under FAR:
  
                    RESTRICTED RIGHTS LEGEND
  
 Use, reproduction and disclosure by the US Government is
 subject to restrictions as set forth in subparagraphs (a)
 and (c) of the Commercial Computer Software - Restricted
 Rights clause in FAR 52.227-19.
  
 Gaussian, Inc.
 340 Quinnipiac St., Bldg. 40, Wallingford CT 06492
  
  
 ---------------------------------------------------------------
 Warning -- This program may not be used in any manner that
 competes with the business of Gaussian, Inc. or will provide
 assistance to any competitor of Gaussian, Inc.  The licensee
 of this program is prohibited from giving any competitor of
 Gaussian, Inc. access to this program.  By using this program,
 the user acknowledges that Gaussian, Inc. is engaged in the
 business of creating and licensing software in the field of
 computational chemistry and represents and warrants to the
 licensee that it is not a competitor of Gaussian, Inc. and that
 it will not use this program in any manner prohibited above.
 ---------------------------------------------------------------
  

 Cite this work as:
 Gaussian 16, Revision C.01,
 M. J. Frisch, G. W. Trucks, H. B. Schlegel, G. E. Scuseria, 
 M. A. Robb, J. R. Cheeseman, G. Scalmani, V. Barone, 
 G. A. Petersson, H. Nakatsuji, X. Li, M. Caricato, A. V. Marenich, 
 J. Bloino, B. G. Janesko, R. Gomperts, B. Mennucci, H. P. Hratchian, 
 J. V. Ortiz, A. F. Izmaylov, J. L. Sonnenberg, D. Williams-Young, 
 F. Ding, F. Lipparini, F. Egidi, J. Goings, B. Peng, A. Petrone, 
 T. Henderson, D. Ranasinghe, V. G. Zakrzewski, J. Gao, N. Rega, 
 G. Zheng, W. Liang, M. Hada, M. Ehara, K. Toyota, R. Fukuda, 
 J. Hasegawa, M. Ishida, T. Nakajima, Y. Honda, O. Kitao, H. Nakai, 
 T. Vreven, K. Throssell, J. A. Montgomery, Jr., J. E. Peralta, 
 F. Ogliaro, M. J. Bearpark, J. J. Heyd, E. N. Brothers, K. N. Kudin, 
 V. N. Staroverov, T. A. Keith, R. Kobayashi, J. Normand, 
 K. Raghavachari, A. P. Rendell, J. C. Burant, S. S. Iyengar, 
 J. Tomasi, M. Cossi, J. M. Millam, M. Klene, C. Adamo, R. Cammi, 
 J. W. Ochterski, R. L. Martin, K. Morokuma, O. Farkas, 
 J. B. Foresman, and D. J. Fox, Gaussian, Inc., Wallingford CT, 2019.
 
 ******************************************
 Gaussian 16:  ES64L-G16RevC.01  3-Jul-2019
                17-May-2022 
 ******************************************
 %mem=8gb
 %nproc=4
 Will use up to    4 processors via shared memory.
 %chk=conf-747.chk
 ----------------------------------------------------------------------
 # B3LYP/6-31G* empiricaldispersion=gd3 guess=read geom=check nosymm in
 tegral(ultrafinegrid)
 ----------------------------------------------------------------------
 1/29=2,38=1,172=1/1;
 2/12=2,15=1,40=1/2;
 3/5=1,6=6,7=1,11=2,14=-4,25=1,30=1,74=-5,75=-5,116=-2,124=31/1,2,3;
 4/5=1/1;
 5/5=2,38=6/2;
 6/7=2,8=2,9=2,10=2,28=1/1;
 99/5=1,9=1/99;
 ------------------------------------------------------
 Candidate Structure: Conf:747 Charge calc in gas phase
 ------------------------------------------------------
 Structure from the checkpoint file:  "conf-747.chk"
 Charge =  1 Multiplicity = 1
 Redundant internal coordinates found in file.  (old form).
 N,0,-5.71497726,-0.12410121,-5.694984
 H,0,-5.18013283,0.63375471,-6.12054137
 H,0,-5.46253613,-0.9946271,-6.17246569
 H,0,-6.71609287,0.05259916,-5.78725308
 C,0,-5.35592147,-0.30323222,-4.27786649
 H,0,-5.14164784,0.6683892,-3.82607125
 C,0,-4.11166136,-1.18475922,-4.23298332
 C,0,-6.50112562,-0.95452174,-3.49716975
 H,0,-6.69051808,-1.94753005,-3.91045781
 H,0,-6.18800672,-1.08944801,-2.46011767
 O,0,-3.83131752,-1.90434671,-5.19987494
 C,0,-7.75773312,-0.12357108,-3.55440521
 C,0,-7.82072071,1.10248548,-2.8953299
 H,0,-6.96229144,1.42939581,-2.31983449
 C,0,-8.84941585,-0.52924645,-4.31528844
 H,0,-8.80410759,-1.47198658,-4.85206
 C,0,-8.9618261,1.89453574,-2.96897401
 H,0,-8.99190868,2.8397233,-2.43890397
 C,0,-9.98896438,0.26479069,-4.40839922
 H,0,-10.82626095,-0.06820174,-5.01029707
 C,0,-10.04990246,1.47848527,-3.73043911
 H,0,-10.93850655,2.09588986,-3.79622174
 N,0,-3.39066577,-1.17677146,-3.10554277
 H,0,-3.58392405,-0.54103144,-2.34326369
 C,0,-2.28999125,-2.09531823,-2.84651071
 H,0,-2.61827926,-3.12268217,-3.02626449
 C,0,-1.92674037,-1.89717694,-1.37784844
 C,0,-1.07552833,-1.84422731,-3.75187382
 H,0,-0.18116171,-2.30607913,-3.340305
 H,0,-0.92195222,-0.7770409,-3.88133853
 O,0,-2.24862294,-0.89390301,-0.76783761
 O,0,-1.30035873,-2.41756192,-5.09160502
 H,0,-1.10776949,-3.37188443,-5.08654091
 N,0,-1.2040869,-2.90741088,-0.81429572
 H,0,-0.79620073,-3.58626185,-1.43555151
 C,0,-0.37382551,-2.61653906,0.33959494
 H,0,-0.89690361,-1.86688596,0.9313879
 C,0,0.97752927,-2.05602017,-0.14125681
 C,0,-0.17953276,-3.86902613,1.16396191
 H,0,-1.15954585,-4.25112009,1.46585601
 H,0,0.3992837,-3.63540104,2.06847456
 O,0,1.34957557,-2.13575582,-1.30003387
 O,0,0.50487851,-4.80280534,0.33071593
 H,0,0.76203533,-5.55531525,0.86976494
 N,0,1.73184299,-1.48351676,0.81940399
 H,0,1.48502753,-1.50571789,1.79567576
 C,0,3.06665942,-0.99041488,0.53690058
 H,0,3.63702165,-1.76571333,0.01135531
 C,0,3.70190208,-0.74126113,1.92058867
 C,0,3.049885,0.25719944,-0.35423863
 H,0,2.17398662,0.23224356,-1.00215653
 H,0,2.98625511,1.16819987,0.24458683
 O,0,3.09725606,-0.9364708,2.95956816
 C,0,4.30368624,0.38196782,-1.26899627
 O,0,4.1228226,1.01337278,-2.31658898
 O,0,5.37044703,-0.12692711,-0.85348213
 N,0,4.96456602,-0.2807851,1.87384147
 H,0,5.4131983,-0.20270362,0.95744674
 C,0,5.69547424,-0.05105049,3.09172748
 H,0,5.03032406,0.4178042,3.81807094
 C,0,6.8838963,0.90400558,2.75971455
 C,0,6.31071736,-1.31233019,3.65841393
 H,0,6.92936319,-1.7506168,2.86865743
 H,0,5.52484455,-2.02522046,3.90502004
 O,0,6.79177823,2.06248198,3.18324615
 C,0,7.1643446,-0.95687077,4.87952399
 H,0,6.51834139,-0.84511412,5.75116838
 H,0,7.62587844,0.0203102,4.72549637
 C,0,8.25714299,-1.98414967,5.15334684
 H,0,7.81935994,-2.91163145,5.52449476
 H,0,8.78422847,-2.22349359,4.22486596
 N,0,9.24980964,-1.55870535,6.15697206
 H,0,8.96652855,-1.6467975,7.12217265
 N,0,10.38283242,-0.15604144,4.6687536
 H,0,10.98184479,0.64747279,4.55302616
 H,0,9.63525441,-0.22370062,3.98931075
 N,0,10.98020777,-0.23202459,6.94515418
 H,0,11.06608891,-0.88510965,7.71580968
 H,0,11.85393009,0.21189127,6.69582725
 C,0,10.19782684,-0.64536581,5.91189748
 O,0,7.81280011,0.3831923,2.10136499
 H,0,-2.29763493,-2.2905334,-5.26646341
 Recover connectivity data from disk.
                           ----------------------------
                           !    Current Parameters    !
                           ! (Angstroms and Degrees)  !
 --------------------------                            --------------------------
 ! Name  Definition              Value                                          !
 --------------------------------------------------------------------------------
 ! R1    R(1,2)                  1.0205                                         !
 ! R2    R(1,3)                  1.0245                                         !
 ! R3    R(1,4)                  1.0208                                         !
 ! R4    R(1,5)                  1.4728                                         !
 ! R5    R(5,6)                  1.0927                                         !
 ! R6    R(5,7)                  1.5255                                         !
 ! R7    R(5,8)                  1.5314                                         !
 ! R8    R(7,11)                 1.2374                                         !
 ! R9    R(7,23)                 1.3383                                         !
 ! R10   R(8,9)                  1.0921                                         !
 ! R11   R(8,10)                 1.0917                                         !
 ! R12   R(8,12)                 1.5076                                         !
 ! R13   R(12,13)                1.3934                                         !
 ! R14   R(12,15)                1.3911                                         !
 ! R15   R(13,14)                1.084                                          !
 ! R16   R(13,17)                1.391                                          !
 ! R17   R(15,16)                1.0858                                         !
 ! R18   R(15,19)                1.392                                          !
 ! R19   R(17,18)                1.0841                                         !
 ! R20   R(17,21)                1.3917                                         !
 ! R21   R(19,20)                1.0836                                         !
 ! R22   R(19,21)                1.3915                                         !
 ! R23   R(21,22)                1.084                                          !
 ! R24   R(23,24)                1.0112                                         !
 ! R25   R(23,25)                1.4568                                         !
 ! R26   R(25,26)                1.0934                                         !
 ! R27   R(25,27)                1.5258                                         !
 ! R28   R(25,28)                1.5355                                         !
 ! R29   R(27,31)                1.2175                                         !
 ! R30   R(27,34)                1.364                                          !
 ! R31   R(28,29)                1.0875                                         !
 ! R32   R(28,30)                1.0859                                         !
 ! R33   R(28,32)                1.4745                                         !
 ! R34   R(32,33)                0.9736                                         !
 ! R35   R(32,82)                1.0204                                         !
 ! R36   R(34,35)                1.0066                                         !
 ! R37   R(34,36)                1.451                                          !
 ! R38   R(36,37)                1.0889                                         !
 ! R39   R(36,38)                1.54                                           !
 ! R40   R(36,39)                1.512                                          !
 ! R41   R(38,42)                1.2196                                         !
 ! R42   R(38,45)                1.3489                                         !
 ! R43   R(39,40)                1.0943                                         !
 ! R44   R(39,41)                1.099                                          !
 ! R45   R(39,43)                1.4264                                         !
 ! R46   R(43,44)                0.9607                                         !
 ! R47   R(45,46)                1.0072                                         !
 ! R48   R(45,47)                1.4508                                         !
 ! R49   R(47,48)                1.0966                                         !
 ! R50   R(47,49)                1.5428                                         !
 ! R51   R(47,50)                1.5333                                         !
 ! R52   R(49,53)                1.2179                                         !
 ! R53   R(49,57)                1.3448                                         !
 ! R54   R(50,51)                1.0898                                         !
 ! R55   R(50,52)                1.092                                          !
 ! R56   R(50,54)                1.557                                          !
 ! R57   R(54,55)                1.2365                                         !
 ! R58   R(54,56)                1.2528                                         !
 ! R59   R(57,58)                1.0233                                         !
 ! R60   R(57,59)                1.4388                                         !
 ! R61   R(59,60)                1.0908                                         !
 ! R62   R(59,61)                1.5604                                         !
 ! R63   R(59,62)                1.5134                                         !
 ! R64   R(61,65)                1.2369                                         !
 ! R65   R(61,81)                1.252                                          !
 ! R66   R(62,63)                1.0948                                         !
 ! R67   R(62,64)                1.0893                                         !
 ! R68   R(62,66)                1.5317                                         !
 ! R69   R(66,67)                1.0907                                         !
 ! R70   R(66,68)                1.0916                                         !
 ! R71   R(66,69)                1.5246                                         !
 ! R72   R(69,70)                1.0907                                         !
 ! R73   R(69,71)                1.0942                                         !
 ! R74   R(69,72)                1.4743                                         !
 ! R75   R(72,73)                1.0098                                         !
 ! R76   R(72,80)                1.339                                          !
 ! R77   R(74,75)                1.0089                                         !
 ! R78   R(74,76)                1.0125                                         !
 ! R79   R(74,80)                1.3487                                         !
 ! R80   R(77,78)                1.0138                                         !
 ! R81   R(77,79)                1.0112                                         !
 ! R82   R(77,80)                1.3604                                         !
 ! A1    A(2,1,3)              107.9102                                         !
 ! A2    A(2,1,4)              110.3496                                         !
 ! A3    A(2,1,5)              111.3321                                         !
 ! A4    A(3,1,4)              110.2815                                         !
 ! A5    A(3,1,5)              106.5605                                         !
 ! A6    A(4,1,5)              110.3112                                         !
 ! A7    A(1,5,6)              109.723                                          !
 ! A8    A(1,5,7)              107.3029                                         !
 ! A9    A(1,5,8)              111.0958                                         !
 ! A10   A(6,5,7)              109.9804                                         !
 ! A11   A(6,5,8)              108.3014                                         !
 ! A12   A(7,5,8)              110.4373                                         !
 ! A13   A(5,7,11)             119.8553                                         !
 ! A14   A(5,7,23)             117.4352                                         !
 ! A15   A(11,7,23)            122.6614                                         !
 ! A16   A(5,8,9)              108.8722                                         !
 ! A17   A(5,8,10)             108.8059                                         !
 ! A18   A(5,8,12)             111.6883                                         !
 ! A19   A(9,8,10)             107.2688                                         !
 ! A20   A(9,8,12)             110.0136                                         !
 ! A21   A(10,8,12)            110.0761                                         !
 ! A22   A(8,12,13)            120.3118                                         !
 ! A23   A(8,12,15)            120.9393                                         !
 ! A24   A(13,12,15)           118.6738                                         !
 ! A25   A(12,13,14)           118.7308                                         !
 ! A26   A(12,13,17)           120.8683                                         !
 ! A27   A(14,13,17)           120.4008                                         !
 ! A28   A(12,15,16)           119.3956                                         !
 ! A29   A(12,15,19)           120.8404                                         !
 ! A30   A(16,15,19)           119.7595                                         !
 ! A31   A(13,17,18)           119.5595                                         !
 ! A32   A(13,17,21)           120.0076                                         !
 ! A33   A(18,17,21)           120.4296                                         !
 ! A34   A(15,19,20)           119.6306                                         !
 ! A35   A(15,19,21)           120.0513                                         !
 ! A36   A(20,19,21)           120.3181                                         !
 ! A37   A(17,21,19)           119.5428                                         !
 ! A38   A(17,21,22)           120.253                                          !
 ! A39   A(19,21,22)           120.2042                                         !
 ! A40   A(7,23,24)            122.401                                          !
 ! A41   A(7,23,25)            123.5779                                         !
 ! A42   A(24,23,25)           114.001                                          !
 ! A43   A(23,25,26)           109.6549                                         !
 ! A44   A(23,25,27)           105.6128                                         !
 ! A45   A(23,25,28)           112.9318                                         !
 ! A46   A(26,25,27)           110.5929                                         !
 ! A47   A(26,25,28)           107.1089                                         !
 ! A48   A(27,25,28)           110.9779                                         !
 ! A49   A(25,27,31)           121.7581                                         !
 ! A50   A(25,27,34)           115.3181                                         !
 ! A51   A(31,27,34)           122.9155                                         !
 ! A52   A(25,28,29)           110.9705                                         !
 ! A53   A(25,28,30)           110.0513                                         !
 ! A54   A(25,28,32)           110.5825                                         !
 ! A55   A(29,28,30)           110.2541                                         !
 ! A56   A(29,28,32)           107.7063                                         !
 ! A57   A(30,28,32)           107.1794                                         !
 ! A58   A(28,32,33)           110.2585                                         !
 ! A59   A(28,32,82)           104.8513                                         !
 ! A60   A(33,32,82)           108.4359                                         !
 ! A61   A(27,34,35)           117.3358                                         !
 ! A62   A(27,34,36)           118.8984                                         !
 ! A63   A(35,34,36)           113.2131                                         !
 ! A64   A(34,36,37)           107.1768                                         !
 ! A65   A(34,36,38)           109.0726                                         !
 ! A66   A(34,36,39)           109.9411                                         !
 ! A67   A(37,36,38)           109.9156                                         !
 ! A68   A(37,36,39)           109.6148                                         !
 ! A69   A(38,36,39)           111.0383                                         !
 ! A70   A(36,38,42)           122.7207                                         !
 ! A71   A(36,38,45)           115.0118                                         !
 ! A72   A(42,38,45)           122.2618                                         !
 ! A73   A(36,39,40)           108.9394                                         !
 ! A74   A(36,39,41)           109.8969                                         !
 ! A75   A(36,39,43)           106.5855                                         !
 ! A76   A(40,39,41)           108.5926                                         !
 ! A77   A(40,39,43)           111.2397                                         !
 ! A78   A(41,39,43)           111.5456                                         !
 ! A79   A(39,43,44)           108.2661                                         !
 ! A80   A(38,45,46)           122.949                                          !
 ! A81   A(38,45,47)           121.3377                                         !
 ! A82   A(46,45,47)           114.9416                                         !
 ! A83   A(45,47,48)           109.3636                                         !
 ! A84   A(45,47,49)           105.0159                                         !
 ! A85   A(45,47,50)           112.3137                                         !
 ! A86   A(48,47,49)           109.2588                                         !
 ! A87   A(48,47,50)           107.6032                                         !
 ! A88   A(49,47,50)           113.2259                                         !
 ! A89   A(47,49,53)           122.3322                                         !
 ! A90   A(47,49,57)           114.2498                                         !
 ! A91   A(53,49,57)           123.4144                                         !
 ! A92   A(47,50,51)           109.6154                                         !
 ! A93   A(47,50,52)           111.1449                                         !
 ! A94   A(47,50,54)           113.4436                                         !
 ! A95   A(51,50,52)           107.3549                                         !
 ! A96   A(51,50,54)           107.4427                                         !
 ! A97   A(52,50,54)           107.5915                                         !
 ! A98   A(50,54,55)           114.8908                                         !
 ! A99   A(50,54,56)           117.2743                                         !
 ! A100  A(55,54,56)           127.8047                                         !
 ! A101  A(49,57,58)           117.9622                                         !
 ! A102  A(49,57,59)           120.1457                                         !
 ! A103  A(58,57,59)           121.5415                                         !
 ! A104  A(57,59,60)           108.8141                                         !
 ! A105  A(57,59,61)           107.7294                                         !
 ! A106  A(57,59,62)           112.9782                                         !
 ! A107  A(60,59,61)           110.0619                                         !
 ! A108  A(60,59,62)           110.9022                                         !
 ! A109  A(61,59,62)           106.2691                                         !
 ! A110  A(59,61,65)           116.3392                                         !
 ! A111  A(59,61,81)           114.9833                                         !
 ! A112  A(65,61,81)           128.6757                                         !
 ! A113  A(59,62,63)           107.0526                                         !
 ! A114  A(59,62,64)           109.6874                                         !
 ! A115  A(59,62,66)           109.3697                                         !
 ! A116  A(63,62,64)           107.9981                                         !
 ! A117  A(63,62,66)           110.6761                                         !
 ! A118  A(64,62,66)           111.9286                                         !
 ! A119  A(62,66,67)           109.318                                          !
 ! A120  A(62,66,68)           109.3221                                         !
 ! A121  A(62,66,69)           112.7227                                         !
 ! A122  A(67,66,68)           105.7514                                         !
 ! A123  A(67,66,69)           110.49                                           !
 ! A124  A(68,66,69)           108.9929                                         !
 ! A125  A(66,69,70)           110.2662                                         !
 ! A126  A(66,69,71)           109.8933                                         !
 ! A127  A(66,69,72)           114.2314                                         !
 ! A128  A(70,69,71)           107.2235                                         !
 ! A129  A(70,69,72)           106.4985                                         !
 ! A130  A(71,69,72)           108.4473                                         !
 ! A131  A(69,72,73)           115.8889                                         !
 ! A132  A(69,72,80)           123.2936                                         !
 ! A133  A(73,72,80)           115.6629                                         !
 ! A134  A(75,74,76)           114.4969                                         !
 ! A135  A(75,74,80)           118.4325                                         !
 ! A136  A(76,74,80)           119.5388                                         !
 ! A137  A(78,77,79)           113.3918                                         !
 ! A138  A(78,77,80)           115.4904                                         !
 ! A139  A(79,77,80)           116.2971                                         !
 ! A140  A(72,80,74)           120.8824                                         !
 ! A141  A(72,80,77)           118.3867                                         !
 ! A142  A(74,80,77)           120.7275                                         !
 ! D1    D(2,1,5,6)             35.5489                                         !
 ! D2    D(2,1,5,7)            -83.9154                                         !
 ! D3    D(2,1,5,8)            155.275                                          !
 ! D4    D(3,1,5,6)            152.9722                                         !
 ! D5    D(3,1,5,7)             33.5079                                         !
 ! D6    D(3,1,5,8)            -87.3017                                         !
 ! D7    D(4,1,5,6)            -87.3137                                         !
 ! D8    D(4,1,5,7)            153.222                                          !
 ! D9    D(4,1,5,8)             32.4125                                         !
 ! D10   D(1,5,7,11)           -20.8316                                         !
 ! D11   D(1,5,7,23)           161.6235                                         !
 ! D12   D(6,5,7,11)          -140.1308                                         !
 ! D13   D(6,5,7,23)            42.3243                                         !
 ! D14   D(8,5,7,11)           100.3933                                         !
 ! D15   D(8,5,7,23)           -77.1516                                         !
 ! D16   D(1,5,8,9)             62.1644                                         !
 ! D17   D(1,5,8,10)           178.7684                                         !
 ! D18   D(1,5,8,12)           -59.5169                                         !
 ! D19   D(6,5,8,9)           -177.2661                                         !
 ! D20   D(6,5,8,10)           -60.6621                                         !
 ! D21   D(6,5,8,12)            61.0526                                         !
 ! D22   D(7,5,8,9)            -56.7801                                         !
 ! D23   D(7,5,8,10)            59.8239                                         !
 ! D24   D(7,5,8,12)          -178.4613                                         !
 ! D25   D(5,7,23,24)           -6.9445                                         !
 ! D26   D(5,7,23,25)          171.3247                                         !
 ! D27   D(11,7,23,24)         175.5847                                         !
 ! D28   D(11,7,23,25)          -6.1461                                         !
 ! D29   D(5,8,12,13)          -69.1283                                         !
 ! D30   D(5,8,12,15)          107.6787                                         !
 ! D31   D(9,8,12,13)          169.8518                                         !
 ! D32   D(9,8,12,15)          -13.3412                                         !
 ! D33   D(10,8,12,13)          51.8505                                         !
 ! D34   D(10,8,12,15)        -131.3426                                         !
 ! D35   D(8,12,13,14)          -1.8031                                         !
 ! D36   D(8,12,13,17)         178.3214                                         !
 ! D37   D(15,12,13,14)       -178.6817                                         !
 ! D38   D(15,12,13,17)          1.4429                                         !
 ! D39   D(8,12,15,16)           1.7586                                         !
 ! D40   D(8,12,15,19)        -177.4788                                         !
 ! D41   D(13,12,15,16)        178.6169                                         !
 ! D42   D(13,12,15,19)         -0.6206                                         !
 ! D43   D(12,13,17,18)        179.3302                                         !
 ! D44   D(12,13,17,21)         -1.3224                                         !
 ! D45   D(14,13,17,18)         -0.5432                                         !
 ! D46   D(14,13,17,21)        178.8042                                         !
 ! D47   D(12,15,19,20)        179.7211                                         !
 ! D48   D(12,15,19,21)         -0.3213                                         !
 ! D49   D(16,15,19,20)          0.4864                                         !
 ! D50   D(16,15,19,21)       -179.556                                          !
 ! D51   D(13,17,21,19)          0.3551                                         !
 ! D52   D(13,17,21,22)       -179.5708                                         !
 ! D53   D(18,17,21,19)        179.6968                                         !
 ! D54   D(18,17,21,22)         -0.2292                                         !
 ! D55   D(15,19,21,17)          0.4566                                         !
 ! D56   D(15,19,21,22)       -179.6174                                         !
 ! D57   D(20,19,21,17)       -179.5861                                         !
 ! D58   D(20,19,21,22)          0.3399                                         !
 ! D59   D(7,23,25,26)         -51.1761                                         !
 ! D60   D(7,23,25,27)        -170.3593                                         !
 ! D61   D(7,23,25,28)          68.1844                                         !
 ! D62   D(24,23,25,26)        127.2243                                         !
 ! D63   D(24,23,25,27)          8.0411                                         !
 ! D64   D(24,23,25,28)       -113.4153                                         !
 ! D65   D(23,25,27,31)        -19.5081                                         !
 ! D66   D(23,25,27,34)        161.5131                                         !
 ! D67   D(26,25,27,31)       -138.068                                          !
 ! D68   D(26,25,27,34)         42.9532                                         !
 ! D69   D(28,25,27,31)        103.2046                                         !
 ! D70   D(28,25,27,34)        -75.7742                                         !
 ! D71   D(23,25,28,29)        161.8127                                         !
 ! D72   D(23,25,28,30)         39.4992                                         !
 ! D73   D(23,25,28,32)        -78.725                                          !
 ! D74   D(26,25,28,29)        -77.3666                                         !
 ! D75   D(26,25,28,30)        160.32                                           !
 ! D76   D(26,25,28,32)         42.0957                                         !
 ! D77   D(27,25,28,29)         43.441                                          !
 ! D78   D(27,25,28,30)        -78.8725                                         !
 ! D79   D(27,25,28,32)        162.9033                                         !
 ! D80   D(25,27,34,35)         13.2706                                         !
 ! D81   D(25,27,34,36)        155.6575                                         !
 ! D82   D(31,27,34,35)       -165.6951                                         !
 ! D83   D(31,27,34,36)        -23.3082                                         !
 ! D84   D(25,28,32,33)        -81.5783                                         !
 ! D85   D(25,28,32,82)         34.9486                                         !
 ! D86   D(29,28,32,33)         39.834                                          !
 ! D87   D(29,28,32,82)        156.3609                                         !
 ! D88   D(30,28,32,33)        158.4588                                         !
 ! D89   D(30,28,32,82)        -85.0143                                         !
 ! D90   D(27,34,36,37)         35.3097                                         !
 ! D91   D(27,34,36,38)        -83.6451                                         !
 ! D92   D(27,34,36,39)        154.3826                                         !
 ! D93   D(35,34,36,37)        179.1577                                         !
 ! D94   D(35,34,36,38)         60.2029                                         !
 ! D95   D(35,34,36,39)        -61.7694                                         !
 ! D96   D(34,36,38,42)        -14.2284                                         !
 ! D97   D(34,36,38,45)        166.621                                          !
 ! D98   D(37,36,38,42)       -131.4617                                         !
 ! D99   D(37,36,38,45)         49.3877                                         !
 ! D100  D(39,36,38,42)        107.0785                                         !
 ! D101  D(39,36,38,45)        -72.0721                                         !
 ! D102  D(34,36,39,40)        -57.8059                                         !
 ! D103  D(34,36,39,41)       -176.6665                                         !
 ! D104  D(34,36,39,43)         62.3155                                         !
 ! D105  D(37,36,39,40)         59.7624                                         !
 ! D106  D(37,36,39,41)        -59.0983                                         !
 ! D107  D(37,36,39,43)        179.8837                                         !
 ! D108  D(38,36,39,40)       -178.6017                                         !
 ! D109  D(38,36,39,41)         62.5376                                         !
 ! D110  D(38,36,39,43)        -58.4804                                         !
 ! D111  D(36,38,45,46)          6.4429                                         !
 ! D112  D(36,38,45,47)        175.8674                                         !
 ! D113  D(42,38,45,46)       -172.712                                          !
 ! D114  D(42,38,45,47)         -3.2876                                         !
 ! D115  D(36,39,43,44)        171.3313                                         !
 ! D116  D(40,39,43,44)        -70.0421                                         !
 ! D117  D(41,39,43,44)         51.3726                                         !
 ! D118  D(38,45,47,48)        -49.5355                                         !
 ! D119  D(38,45,47,49)       -166.6807                                         !
 ! D120  D(38,45,47,50)         69.8535                                         !
 ! D121  D(46,45,47,48)        120.6852                                         !
 ! D122  D(46,45,47,49)          3.5401                                         !
 ! D123  D(46,45,47,50)       -119.9258                                         !
 ! D124  D(45,47,49,53)         -1.0159                                         !
 ! D125  D(45,47,49,57)        179.6463                                         !
 ! D126  D(48,47,49,53)       -118.2325                                         !
 ! D127  D(48,47,49,57)         62.4297                                         !
 ! D128  D(50,47,49,53)        121.8642                                         !
 ! D129  D(50,47,49,57)        -57.4736                                         !
 ! D130  D(45,47,50,51)        -29.4304                                         !
 ! D131  D(45,47,50,52)         89.0832                                         !
 ! D132  D(45,47,50,54)       -149.5228                                         !
 ! D133  D(48,47,50,51)         90.982                                          !
 ! D134  D(48,47,50,52)       -150.5044                                         !
 ! D135  D(48,47,50,54)        -29.1104                                         !
 ! D136  D(49,47,50,51)       -148.1732                                         !
 ! D137  D(49,47,50,52)        -29.6597                                         !
 ! D138  D(49,47,50,54)         91.7344                                         !
 ! D139  D(47,49,57,58)         -4.4311                                         !
 ! D140  D(47,49,57,59)       -177.7377                                         !
 ! D141  D(53,49,57,58)        176.2392                                         !
 ! D142  D(53,49,57,59)          2.9326                                         !
 ! D143  D(47,50,54,55)        153.0853                                         !
 ! D144  D(47,50,54,56)        -28.7539                                         !
 ! D145  D(51,50,54,55)         31.7667                                         !
 ! D146  D(51,50,54,56)       -150.0726                                         !
 ! D147  D(52,50,54,55)        -83.5503                                         !
 ! D148  D(52,50,54,56)         94.6105                                         !
 ! D149  D(49,57,59,60)        -41.7732                                         !
 ! D150  D(49,57,59,61)       -161.0738                                         !
 ! D151  D(49,57,59,62)         81.8593                                         !
 ! D152  D(58,57,59,60)        145.1648                                         !
 ! D153  D(58,57,59,61)         25.8642                                         !
 ! D154  D(58,57,59,62)        -91.2027                                         !
 ! D155  D(57,59,61,65)        108.1869                                         !
 ! D156  D(57,59,61,81)        -72.2488                                         !
 ! D157  D(60,59,61,65)        -10.3161                                         !
 ! D158  D(60,59,61,81)        169.2482                                         !
 ! D159  D(62,59,61,65)       -130.4645                                         !
 ! D160  D(62,59,61,81)         49.0998                                         !
 ! D161  D(57,59,62,63)         55.2299                                         !
 ! D162  D(57,59,62,64)        -61.7071                                         !
 ! D163  D(57,59,62,66)        175.1846                                         !
 ! D164  D(60,59,62,63)        177.7033                                         !
 ! D165  D(60,59,62,64)         60.7663                                         !
 ! D166  D(60,59,62,66)        -62.342                                          !
 ! D167  D(61,59,62,63)        -62.6948                                         !
 ! D168  D(61,59,62,64)       -179.6318                                         !
 ! D169  D(61,59,62,66)         57.2599                                         !
 ! D170  D(59,62,66,67)         81.1707                                         !
 ! D171  D(59,62,66,68)        -34.1535                                         !
 ! D172  D(59,62,66,69)       -155.5348                                         !
 ! D173  D(63,62,66,67)       -161.1243                                         !
 ! D174  D(63,62,66,68)         83.5514                                         !
 ! D175  D(63,62,66,69)        -37.8299                                         !
 ! D176  D(64,62,66,67)        -40.5973                                         !
 ! D177  D(64,62,66,68)       -155.9216                                         !
 ! D178  D(64,62,66,69)         82.6971                                         !
 ! D179  D(62,66,69,70)        -70.8714                                         !
 ! D180  D(62,66,69,71)         47.1165                                         !
 ! D181  D(62,66,69,72)        169.2499                                         !
 ! D182  D(67,66,69,70)         51.7687                                         !
 ! D183  D(67,66,69,71)        169.7566                                         !
 ! D184  D(67,66,69,72)        -68.11                                           !
 ! D185  D(68,66,69,70)        167.5605                                         !
 ! D186  D(68,66,69,71)        -74.4516                                         !
 ! D187  D(68,66,69,72)         47.6818                                         !
 ! D188  D(66,69,72,73)         79.4768                                         !
 ! D189  D(66,69,72,80)        -73.985                                          !
 ! D190  D(70,69,72,73)        -42.4925                                         !
 ! D191  D(70,69,72,80)        164.0457                                         !
 ! D192  D(71,69,72,73)       -157.6015                                         !
 ! D193  D(71,69,72,80)         48.9366                                         !
 ! D194  D(69,72,80,74)         -6.9147                                         !
 ! D195  D(69,72,80,77)        173.7459                                         !
 ! D196  D(73,72,80,74)       -160.431                                          !
 ! D197  D(73,72,80,77)         20.2296                                         !
 ! D198  D(75,74,80,72)        168.7568                                         !
 ! D199  D(75,74,80,77)        -11.9193                                         !
 ! D200  D(76,74,80,72)         20.6782                                         !
 ! D201  D(76,74,80,77)       -159.9979                                         !
 ! D202  D(78,77,80,72)         24.407                                          !
 ! D203  D(78,77,80,74)       -154.9334                                         !
 ! D204  D(79,77,80,72)        160.9765                                         !
 ! D205  D(79,77,80,74)        -18.364                                          !
 --------------------------------------------------------------------------------
 Symmetry turned off by external request.
 Stoichiometry    C25H39N8O10(1+)
 Framework group  C1[X(C25H39N8O10)]
 Deg. of freedom   240
 Full point group                 C1      NOp   1
                          Input orientation:                          
 ---------------------------------------------------------------------
 Center     Atomic      Atomic             Coordinates (Angstroms)
 Number     Number       Type             X           Y           Z
 ---------------------------------------------------------------------
      1          7           0       -5.714977   -0.124101   -5.694984
      2          1           0       -5.180133    0.633755   -6.120541
      3          1           0       -5.462536   -0.994627   -6.172466
      4          1           0       -6.716093    0.052599   -5.787253
      5          6           0       -5.355921   -0.303232   -4.277866
      6          1           0       -5.141648    0.668389   -3.826071
      7          6           0       -4.111661   -1.184759   -4.232983
      8          6           0       -6.501126   -0.954522   -3.497170
      9          1           0       -6.690518   -1.947530   -3.910458
     10          1           0       -6.188007   -1.089448   -2.460118
     11          8           0       -3.831318   -1.904347   -5.199875
     12          6           0       -7.757733   -0.123571   -3.554405
     13          6           0       -7.820721    1.102485   -2.895330
     14          1           0       -6.962291    1.429396   -2.319834
     15          6           0       -8.849416   -0.529246   -4.315288
     16          1           0       -8.804108   -1.471987   -4.852060
     17          6           0       -8.961826    1.894536   -2.968974
     18          1           0       -8.991909    2.839723   -2.438904
     19          6           0       -9.988964    0.264791   -4.408399
     20          1           0      -10.826261   -0.068202   -5.010297
     21          6           0      -10.049902    1.478485   -3.730439
     22          1           0      -10.938507    2.095890   -3.796222
     23          7           0       -3.390666   -1.176771   -3.105543
     24          1           0       -3.583924   -0.541031   -2.343264
     25          6           0       -2.289991   -2.095318   -2.846511
     26          1           0       -2.618279   -3.122682   -3.026264
     27          6           0       -1.926740   -1.897177   -1.377848
     28          6           0       -1.075528   -1.844227   -3.751874
     29          1           0       -0.181162   -2.306079   -3.340305
     30          1           0       -0.921952   -0.777041   -3.881339
     31          8           0       -2.248623   -0.893903   -0.767838
     32          8           0       -1.300359   -2.417562   -5.091605
     33          1           0       -1.107769   -3.371884   -5.086541
     34          7           0       -1.204087   -2.907411   -0.814296
     35          1           0       -0.796201   -3.586262   -1.435552
     36          6           0       -0.373826   -2.616539    0.339595
     37          1           0       -0.896904   -1.866886    0.931388
     38          6           0        0.977529   -2.056020   -0.141257
     39          6           0       -0.179533   -3.869026    1.163962
     40          1           0       -1.159546   -4.251120    1.465856
     41          1           0        0.399284   -3.635401    2.068475
     42          8           0        1.349576   -2.135756   -1.300034
     43          8           0        0.504879   -4.802805    0.330716
     44          1           0        0.762035   -5.555315    0.869765
     45          7           0        1.731843   -1.483517    0.819404
     46          1           0        1.485028   -1.505718    1.795676
     47          6           0        3.066659   -0.990415    0.536901
     48          1           0        3.637022   -1.765713    0.011355
     49          6           0        3.701902   -0.741261    1.920589
     50          6           0        3.049885    0.257199   -0.354239
     51          1           0        2.173987    0.232244   -1.002157
     52          1           0        2.986255    1.168200    0.244587
     53          8           0        3.097256   -0.936471    2.959568
     54          6           0        4.303686    0.381968   -1.268996
     55          8           0        4.122823    1.013373   -2.316589
     56          8           0        5.370447   -0.126927   -0.853482
     57          7           0        4.964566   -0.280785    1.873841
     58          1           0        5.413198   -0.202704    0.957447
     59          6           0        5.695474   -0.051050    3.091727
     60          1           0        5.030324    0.417804    3.818071
     61          6           0        6.883896    0.904006    2.759715
     62          6           0        6.310717   -1.312330    3.658414
     63          1           0        6.929363   -1.750617    2.868657
     64          1           0        5.524845   -2.025220    3.905020
     65          8           0        6.791778    2.062482    3.183246
     66          6           0        7.164345   -0.956871    4.879524
     67          1           0        6.518341   -0.845114    5.751168
     68          1           0        7.625878    0.020310    4.725496
     69          6           0        8.257143   -1.984150    5.153347
     70          1           0        7.819360   -2.911631    5.524495
     71          1           0        8.784228   -2.223494    4.224866
     72          7           0        9.249810   -1.558705    6.156972
     73          1           0        8.966529   -1.646798    7.122173
     74          7           0       10.382832   -0.156041    4.668754
     75          1           0       10.981845    0.647473    4.553026
     76          1           0        9.635254   -0.223701    3.989311
     77          7           0       10.980208   -0.232025    6.945154
     78          1           0       11.066089   -0.885110    7.715810
     79          1           0       11.853930    0.211891    6.695827
     80          6           0       10.197827   -0.645366    5.911897
     81          8           0        7.812800    0.383192    2.101365
     82          1           0       -2.297635   -2.290533   -5.266463
 ---------------------------------------------------------------------
 Rotational constants (GHZ):           0.1855832           0.0176563           0.0175952
 Standard basis: 6-31G(d) (6D, 7F)
   723 basis functions,  1360 primitive gaussians,   723 cartesian basis functions
   162 alpha electrons      162 beta electrons
       nuclear repulsion energy      4972.5451337390 Hartrees.
 NAtoms=   82 NActive=   82 NUniq=   82 SFac= 1.00D+00 NAtFMM=   60 NAOKFM=T Big=T
 Integral buffers will be    131072 words long.
 Raffenetti 2 integral format.
 Two-electron integral symmetry is turned off.
 Nuclear repulsion after empirical dispersion term =     4972.4464160580 Hartrees.
 One-electron integrals computed using PRISM.
 NBasis=   723 RedAO= T EigKep=  4.49D-04  NBF=   723
 NBsUse=   723 1.00D-06 EigRej= -1.00D+00 NBFU=   723
 Initial guess from the checkpoint file:  "conf-747.chk"
 B after Tr=     0.000000    0.000000    0.000000
         Rot=    1.000000    0.000000    0.000000    0.000000 Ang=   0.00 deg.
 Requested convergence on RMS density matrix=1.00D-08 within 128 cycles.
 Requested convergence on MAX density matrix=1.00D-06.
 Requested convergence on             energy=1.00D-06.
 No special actions if energy rises.
 SCF Done:  E(RB3LYP) =  -2166.11397110     A.U. after    3 cycles
            NFock=  3  Conv=0.59D-08     -V/T= 2.0087

 **********************************************************************

            Population analysis using the SCF Density.

 **********************************************************************

 Alpha  occ. eigenvalues --  -19.44665 -19.30946 -19.24796 -19.22358 -19.16446
 Alpha  occ. eigenvalues --  -19.11249 -19.05485 -19.05309 -19.04540 -19.04496
 Alpha  occ. eigenvalues --  -14.63960 -14.52486 -14.48238 -14.47683 -14.46880
 Alpha  occ. eigenvalues --  -14.46822 -14.38634 -14.32552 -10.45222 -10.43985
 Alpha  occ. eigenvalues --  -10.43161 -10.42373 -10.41924 -10.40360 -10.35591
 Alpha  occ. eigenvalues --  -10.33221 -10.32930 -10.31772 -10.31416 -10.31402
 Alpha  occ. eigenvalues --  -10.30971 -10.30965 -10.30811 -10.30650 -10.29455
 Alpha  occ. eigenvalues --  -10.27377 -10.22921 -10.22906 -10.22507 -10.21977
 Alpha  occ. eigenvalues --  -10.18945 -10.18447 -10.16337  -1.32137  -1.23305
 Alpha  occ. eigenvalues --   -1.19105  -1.17316  -1.12357  -1.10221  -1.09583
 Alpha  occ. eigenvalues --   -1.08622  -1.03918  -1.03460  -1.01709  -1.00531
 Alpha  occ. eigenvalues --   -0.99543  -0.98790  -0.98673  -0.96479  -0.95364
 Alpha  occ. eigenvalues --   -0.94000  -0.90682  -0.89777  -0.89317  -0.88954
 Alpha  occ. eigenvalues --   -0.86967  -0.86395  -0.84128  -0.83875  -0.81988
 Alpha  occ. eigenvalues --   -0.81261  -0.78195  -0.78023  -0.77238  -0.76483
 Alpha  occ. eigenvalues --   -0.76093  -0.73469  -0.73325  -0.73259  -0.71631
 Alpha  occ. eigenvalues --   -0.71052  -0.70313  -0.69367  -0.68936  -0.68883
 Alpha  occ. eigenvalues --   -0.67667  -0.66728  -0.65723  -0.65274  -0.64212
 Alpha  occ. eigenvalues --   -0.63809  -0.62382  -0.61587  -0.60564  -0.60367
 Alpha  occ. eigenvalues --   -0.60155  -0.59728  -0.59456  -0.59344  -0.58915
 Alpha  occ. eigenvalues --   -0.58418  -0.57768  -0.57102  -0.56285  -0.55673
 Alpha  occ. eigenvalues --   -0.55548  -0.54676  -0.54447  -0.54221  -0.53587
 Alpha  occ. eigenvalues --   -0.53470  -0.52954  -0.52721  -0.52608  -0.51044
 Alpha  occ. eigenvalues --   -0.50759  -0.49872  -0.49487  -0.48803  -0.48530
 Alpha  occ. eigenvalues --   -0.47387  -0.46979  -0.46440  -0.46402  -0.45963
 Alpha  occ. eigenvalues --   -0.45350  -0.44726  -0.43859  -0.43450  -0.43250
 Alpha  occ. eigenvalues --   -0.42770  -0.42450  -0.42065  -0.41168  -0.39649
 Alpha  occ. eigenvalues --   -0.39290  -0.39067  -0.38866  -0.38343  -0.37742
 Alpha  occ. eigenvalues --   -0.37734  -0.37349  -0.36968  -0.36786  -0.36312
 Alpha  occ. eigenvalues --   -0.35390  -0.35169  -0.35122  -0.34379  -0.33438
 Alpha  occ. eigenvalues --   -0.33023  -0.32406  -0.30373  -0.28558  -0.25626
 Alpha  occ. eigenvalues --   -0.23989  -0.20766  -0.20483  -0.19248  -0.18798
 Alpha  occ. eigenvalues --   -0.18431  -0.18048
 Alpha virt. eigenvalues --   -0.17134  -0.14173  -0.13624  -0.12719  -0.12348
 Alpha virt. eigenvalues --   -0.11406  -0.09023  -0.08076  -0.06005  -0.05572
 Alpha virt. eigenvalues --   -0.05058  -0.04509  -0.03248  -0.02669  -0.02356
 Alpha virt. eigenvalues --   -0.01888  -0.00703  -0.00087   0.00071   0.00081
 Alpha virt. eigenvalues --    0.00855   0.01285   0.01477   0.02212   0.02679
 Alpha virt. eigenvalues --    0.02801   0.03183   0.03941   0.04003   0.04502
 Alpha virt. eigenvalues --    0.05001   0.05538   0.05853   0.06190   0.07692
 Alpha virt. eigenvalues --    0.07875   0.08082   0.08441   0.08721   0.09186
 Alpha virt. eigenvalues --    0.09341   0.09651   0.09884   0.10068   0.10332
 Alpha virt. eigenvalues --    0.11135   0.11248   0.11715   0.12114   0.12468
 Alpha virt. eigenvalues --    0.13424   0.14111   0.14529   0.14923   0.16008
 Alpha virt. eigenvalues --    0.16528   0.16711   0.17363   0.17646   0.18344
 Alpha virt. eigenvalues --    0.18941   0.19218   0.19724   0.19899   0.19960
 Alpha virt. eigenvalues --    0.20644   0.20996   0.22429   0.22869   0.23149
 Alpha virt. eigenvalues --    0.24187   0.25042   0.25105   0.25994   0.26493
 Alpha virt. eigenvalues --    0.27146   0.27522   0.28044   0.29303   0.30546
 Alpha virt. eigenvalues --    0.31115   0.31249   0.31960   0.33582   0.33866
 Alpha virt. eigenvalues --    0.34496   0.35188   0.36121   0.36563   0.37591
 Alpha virt. eigenvalues --    0.38865   0.38972   0.40259   0.41187   0.41213
 Alpha virt. eigenvalues --    0.41607   0.41815   0.42875   0.43266   0.43361
 Alpha virt. eigenvalues --    0.43491   0.44104   0.44734   0.44903   0.45809
 Alpha virt. eigenvalues --    0.45905   0.46198   0.46469   0.46737   0.46991
 Alpha virt. eigenvalues --    0.47426   0.47581   0.48220   0.48726   0.49699
 Alpha virt. eigenvalues --    0.49906   0.50068   0.50237   0.50251   0.50784
 Alpha virt. eigenvalues --    0.51430   0.51603   0.51745   0.53479   0.53666
 Alpha virt. eigenvalues --    0.53769   0.54484   0.55159   0.55540   0.55939
 Alpha virt. eigenvalues --    0.56062   0.56320   0.56998   0.57817   0.57853
 Alpha virt. eigenvalues --    0.58315   0.58888   0.58996   0.59717   0.60099
 Alpha virt. eigenvalues --    0.60751   0.61085   0.61204   0.61485   0.61897
 Alpha virt. eigenvalues --    0.62730   0.62990   0.63341   0.63783   0.64809
 Alpha virt. eigenvalues --    0.64907   0.65149   0.65545   0.65682   0.66514
 Alpha virt. eigenvalues --    0.67318   0.67561   0.67820   0.68296   0.68436
 Alpha virt. eigenvalues --    0.68728   0.68873   0.70217   0.70271   0.70494
 Alpha virt. eigenvalues --    0.70668   0.70680   0.71780   0.72299   0.72812
 Alpha virt. eigenvalues --    0.73001   0.73279   0.73399   0.73870   0.74202
 Alpha virt. eigenvalues --    0.74636   0.75028   0.75602   0.75776   0.75940
 Alpha virt. eigenvalues --    0.76250   0.76551   0.76961   0.77227   0.77777
 Alpha virt. eigenvalues --    0.77987   0.78362   0.78714   0.79243   0.79346
 Alpha virt. eigenvalues --    0.79756   0.79895   0.79944   0.80489   0.80891
 Alpha virt. eigenvalues --    0.81332   0.81614   0.81998   0.82722   0.83055
 Alpha virt. eigenvalues --    0.83517   0.83926   0.84200   0.84630   0.85693
 Alpha virt. eigenvalues --    0.85786   0.86389   0.86772   0.87361   0.87797
 Alpha virt. eigenvalues --    0.87931   0.88198   0.88580   0.89320   0.89405
 Alpha virt. eigenvalues --    0.89926   0.90145   0.91186   0.91392   0.91536
 Alpha virt. eigenvalues --    0.92236   0.93028   0.93264   0.93808   0.94423
 Alpha virt. eigenvalues --    0.94482   0.95075   0.95661   0.96561   0.97029
 Alpha virt. eigenvalues --    0.97251   0.97759   0.98790   0.98840   0.99487
 Alpha virt. eigenvalues --    0.99715   1.00327   1.01079   1.01841   1.02670
 Alpha virt. eigenvalues --    1.03918   1.04608   1.05058   1.05486   1.05760
 Alpha virt. eigenvalues --    1.06483   1.06869   1.07331   1.07455   1.08586
 Alpha virt. eigenvalues --    1.09186   1.09573   1.10146   1.10702   1.11305
 Alpha virt. eigenvalues --    1.12333   1.12982   1.13812   1.14741   1.15161
 Alpha virt. eigenvalues --    1.15859   1.16516   1.17291   1.17594   1.18440
 Alpha virt. eigenvalues --    1.19245   1.19694   1.20276   1.21164   1.22200
 Alpha virt. eigenvalues --    1.22783   1.23149   1.24304   1.25469   1.26454
 Alpha virt. eigenvalues --    1.27540   1.28291   1.29216   1.30076   1.30220
 Alpha virt. eigenvalues --    1.30893   1.31117   1.31988   1.32481   1.33486
 Alpha virt. eigenvalues --    1.33630   1.34970   1.35601   1.35744   1.36116
 Alpha virt. eigenvalues --    1.36746   1.37341   1.38323   1.39022   1.39472
 Alpha virt. eigenvalues --    1.39791   1.41358   1.42029   1.43604   1.44261
 Alpha virt. eigenvalues --    1.45172   1.46502   1.47345   1.48283   1.49229
 Alpha virt. eigenvalues --    1.49934   1.50240   1.51143   1.51765   1.53543
 Alpha virt. eigenvalues --    1.54202   1.55277   1.55771   1.56801   1.57662
 Alpha virt. eigenvalues --    1.57746   1.58374   1.58485   1.59513   1.59700
 Alpha virt. eigenvalues --    1.61944   1.62715   1.63482   1.63721   1.63939
 Alpha virt. eigenvalues --    1.64126   1.65368   1.65453   1.66119   1.67229
 Alpha virt. eigenvalues --    1.67716   1.68375   1.69115   1.69793   1.70244
 Alpha virt. eigenvalues --    1.70660   1.71177   1.72347   1.73413   1.73631
 Alpha virt. eigenvalues --    1.73999   1.74478   1.74830   1.75963   1.76322
 Alpha virt. eigenvalues --    1.76503   1.76818   1.77334   1.78402   1.78628
 Alpha virt. eigenvalues --    1.78879   1.79405   1.79861   1.80682   1.80757
 Alpha virt. eigenvalues --    1.82329   1.82540   1.82777   1.83609   1.84094
 Alpha virt. eigenvalues --    1.84333   1.84753   1.85073   1.85453   1.86164
 Alpha virt. eigenvalues --    1.86356   1.87018   1.87302   1.88530   1.89492
 Alpha virt. eigenvalues --    1.89703   1.90308   1.90440   1.91013   1.91317
 Alpha virt. eigenvalues --    1.91804   1.92404   1.92631   1.93427   1.93711
 Alpha virt. eigenvalues --    1.94318   1.94658   1.95060   1.95350   1.95618
 Alpha virt. eigenvalues --    1.95972   1.96306   1.97162   1.97950   1.98800
 Alpha virt. eigenvalues --    1.99474   2.00342   2.00719   2.01011   2.01803
 Alpha virt. eigenvalues --    2.02159   2.02425   2.03123   2.04070   2.04328
 Alpha virt. eigenvalues --    2.05286   2.06066   2.06551   2.07206   2.07366
 Alpha virt. eigenvalues --    2.07894   2.08793   2.09005   2.10368   2.10834
 Alpha virt. eigenvalues --    2.11257   2.11640   2.11888   2.12975   2.13387
 Alpha virt. eigenvalues --    2.14255   2.15128   2.15609   2.16553   2.17030
 Alpha virt. eigenvalues --    2.17597   2.18001   2.18433   2.18929   2.19902
 Alpha virt. eigenvalues --    2.20644   2.21218   2.22836   2.23441   2.24768
 Alpha virt. eigenvalues --    2.25146   2.25694   2.25972   2.27376   2.28869
 Alpha virt. eigenvalues --    2.30083   2.31305   2.31547   2.32547   2.33985
 Alpha virt. eigenvalues --    2.34370   2.35684   2.36150   2.36592   2.37756
 Alpha virt. eigenvalues --    2.39099   2.39459   2.39701   2.41036   2.41675
 Alpha virt. eigenvalues --    2.43249   2.43436   2.43852   2.44893   2.45567
 Alpha virt. eigenvalues --    2.46198   2.46732   2.48249   2.49028   2.50505
 Alpha virt. eigenvalues --    2.51070   2.51395   2.52016   2.52233   2.53627
 Alpha virt. eigenvalues --    2.54464   2.54905   2.55236   2.56361   2.57341
 Alpha virt. eigenvalues --    2.58389   2.58685   2.60413   2.60506   2.61051
 Alpha virt. eigenvalues --    2.62211   2.62516   2.63253   2.63980   2.64276
 Alpha virt. eigenvalues --    2.65121   2.66674   2.67852   2.69885   2.71684
 Alpha virt. eigenvalues --    2.73524   2.74579   2.75379   2.76581   2.78602
 Alpha virt. eigenvalues --    2.79639   2.79953   2.80034   2.83511   2.85064
 Alpha virt. eigenvalues --    2.86003   2.86797   2.88832   2.90778   2.91121
 Alpha virt. eigenvalues --    2.91445   2.92884   2.93859   2.96973   2.97988
 Alpha virt. eigenvalues --    2.98845   3.00604   3.01416   3.02169   3.03203
 Alpha virt. eigenvalues --    3.04553   3.06241   3.07346   3.17403   3.20739
 Alpha virt. eigenvalues --    3.22446   3.23463   3.30315   3.62273   3.66142
 Alpha virt. eigenvalues --    3.68803   3.69397   3.78311   3.88090   3.89060
 Alpha virt. eigenvalues --    3.92986   3.96049   3.97023   3.98169   3.99911
 Alpha virt. eigenvalues --    3.99945   4.02550   4.04402   4.07385   4.09981
 Alpha virt. eigenvalues --    4.11208   4.12859   4.15875   4.19396   4.21319
 Alpha virt. eigenvalues --    4.22190   4.23304   4.25874   4.26024   4.27210
 Alpha virt. eigenvalues --    4.29260   4.32507   4.32737   4.34947   4.39496
 Alpha virt. eigenvalues --    4.40763   4.44816   4.46792   4.49129   4.49902
 Alpha virt. eigenvalues --    4.54706   4.58353   4.59580   4.66307   4.67560
 Alpha virt. eigenvalues --    4.75763
          Condensed to atoms (all electrons):
 Mulliken charges:
               1
     1  N   -0.715858
     2  H    0.427814
     3  H    0.426476
     4  H    0.415224
     5  C   -0.136259
     6  H    0.219532
     7  C    0.621989
     8  C   -0.381020
     9  H    0.184165
    10  H    0.213057
    11  O   -0.629971
    12  C    0.138141
    13  C   -0.188932
    14  H    0.141021
    15  C   -0.215938
    16  H    0.139049
    17  C   -0.121994
    18  H    0.171705
    19  C   -0.122096
    20  H    0.167886
    21  C   -0.123882
    22  H    0.172944
    23  N   -0.616540
    24  H    0.378260
    25  C   -0.107058
    26  H    0.189152
    27  C    0.616410
    28  C   -0.129480
    29  H    0.280107
    30  H    0.257168
    31  O   -0.491849
    32  O   -0.583236
    33  H    0.486212
    34  N   -0.573319
    35  H    0.341572
    36  C   -0.117120
    37  H    0.207720
    38  C    0.645616
    39  C   -0.041597
    40  H    0.141764
    41  H    0.168459
    42  O   -0.550787
    43  O   -0.627067
    44  H    0.413724
    45  N   -0.620516
    46  H    0.340565
    47  C   -0.023122
    48  H    0.189253
    49  C    0.574390
    50  C   -0.372035
    51  H    0.130055
    52  H    0.158151
    53  O   -0.576571
    54  C    0.594520
    55  O   -0.542428
    56  O   -0.572669
    57  N   -0.636528
    58  H    0.405433
    59  C    0.022899
    60  H    0.138799
    61  C    0.518607
    62  C   -0.271182
    63  H    0.158791
    64  H    0.133174
    65  O   -0.548606
    66  C   -0.287094
    67  H    0.140939
    68  H    0.176998
    69  C   -0.198128
    70  H    0.178907
    71  H    0.198524
    72  N   -0.573672
    73  H    0.359410
    74  N   -0.733252
    75  H    0.380240
    76  H    0.416927
    77  N   -0.737176
    78  H    0.367783
    79  H    0.371445
    80  C    0.762141
    81  O   -0.601977
    82  H    0.485839
 Sum of Mulliken charges =   1.00000
 Mulliken charges with hydrogens summed into heavy atoms:
               1
     1  N    0.553657
     5  C    0.083273
     7  C    0.621989
     8  C    0.016203
    11  O   -0.629971
    12  C    0.138141
    13  C   -0.047911
    15  C   -0.076889
    17  C    0.049712
    19  C    0.045790
    21  C    0.049063
    23  N   -0.238281
    25  C    0.082094
    27  C    0.616410
    28  C    0.407795
    31  O   -0.491849
    32  O    0.388814
    34  N   -0.231746
    36  C    0.090600
    38  C    0.645616
    39  C    0.268627
    42  O   -0.550787
    43  O   -0.213343
    45  N   -0.279951
    47  C    0.166131
    49  C    0.574390
    50  C   -0.083828
    53  O   -0.576571
    54  C    0.594520
    55  O   -0.542428
    56  O   -0.572669
    57  N   -0.231096
    59  C    0.161698
    61  C    0.518607
    62  C    0.020782
    65  O   -0.548606
    66  C    0.030843
    69  C    0.179303
    72  N   -0.214262
    74  N    0.063915
    77  N    0.002052
    80  C    0.762141
    81  O   -0.601977
 Electronic spatial extent (au):  <R**2>=          59832.1971
 Charge=              1.0000 electrons
 Dipole moment (field-independent basis, Debye):
    X=            -24.6973    Y=            -16.4493    Z=            -10.4767  Tot=             31.4690
 Quadrupole moment (field-independent basis, Debye-Ang):
   XX=            113.9514   YY=           -206.6279   ZZ=             18.3217
   XY=            -53.6188   XZ=            344.6978   YZ=             -4.8115
 Traceless Quadrupole moment (field-independent basis, Debye-Ang):
   XX=            138.7364   YY=           -181.8430   ZZ=             43.1066
   XY=            -53.6188   XZ=            344.6978   YZ=             -4.8115
 Octapole moment (field-independent basis, Debye-Ang**2):
  XXX=            803.8647  YYY=            416.8215  ZZZ=            186.4506  XYY=           -300.5793
  XXY=            -47.2614  XXZ=           1333.7547  XZZ=            326.2599  YZZ=           -131.6796
  YYZ=            -30.5830  XYZ=           -240.9479
 Hexadecapole moment (field-independent basis, Debye-Ang**3):
 XXXX=          -6473.1488 YYYY=          -3498.0660 ZZZZ=          -7517.7160 XXXY=          -2839.0018
 XXXZ=          17437.4822 YYYX=            480.7100 YYYZ=             34.2459 ZZZX=            185.3447
 ZZZY=           -453.9647 XXYY=          -9405.5198 XXZZ=           7042.8291 YYZZ=          -3074.3320
 XXYZ=          -2008.2410 YYXZ=          -4124.8443 ZZXY=          -1148.7193
 N-N= 4.972446416058D+03 E-N=-1.497821992386D+04  KE= 2.147498683431D+03
 Unable to Open any file for archive entry.
 1\1\GINC-SKL-150\SP\RB3LYP\6-31G(d)\C25H39N8O10(1+)\KENGMITH\17-May-20
 22\0\\# B3LYP/6-31G* empiricaldispersion=gd3 guess=read geom=check nos
 ymm integral(ultrafinegrid)\\Candidate Structure: Conf:747 Charge calc
  in gas phase\\1,1\N,0,-5.71497726,-0.12410121,-5.694984\H,0,-5.180132
 83,0.63375471,-6.12054137\H,0,-5.46253613,-0.9946271,-6.17246569\H,0,-
 6.71609287,0.05259916,-5.78725308\C,0,-5.35592147,-0.30323222,-4.27786
 649\H,0,-5.14164784,0.6683892,-3.82607125\C,0,-4.11166136,-1.18475922,
 -4.23298332\C,0,-6.50112562,-0.95452174,-3.49716975\H,0,-6.69051808,-1
 .94753005,-3.91045781\H,0,-6.18800672,-1.08944801,-2.46011767\O,0,-3.8
 3131752,-1.90434671,-5.19987494\C,0,-7.75773312,-0.12357108,-3.5544052
 1\C,0,-7.82072071,1.10248548,-2.8953299\H,0,-6.96229144,1.42939581,-2.
 31983449\C,0,-8.84941585,-0.52924645,-4.31528844\H,0,-8.80410759,-1.47
 198658,-4.85206\C,0,-8.9618261,1.89453574,-2.96897401\H,0,-8.99190868,
 2.8397233,-2.43890397\C,0,-9.98896438,0.26479069,-4.40839922\H,0,-10.8
 2626095,-0.06820174,-5.01029707\C,0,-10.04990246,1.47848527,-3.7304391
 1\H,0,-10.93850655,2.09588986,-3.79622174\N,0,-3.39066577,-1.17677146,
 -3.10554277\H,0,-3.58392405,-0.54103144,-2.34326369\C,0,-2.28999125,-2
 .09531823,-2.84651071\H,0,-2.61827926,-3.12268217,-3.02626449\C,0,-1.9
 2674037,-1.89717694,-1.37784844\C,0,-1.07552833,-1.84422731,-3.7518738
 2\H,0,-0.18116171,-2.30607913,-3.340305\H,0,-0.92195222,-0.7770409,-3.
 88133853\O,0,-2.24862294,-0.89390301,-0.76783761\O,0,-1.30035873,-2.41
 756192,-5.09160502\H,0,-1.10776949,-3.37188443,-5.08654091\N,0,-1.2040
 869,-2.90741088,-0.81429572\H,0,-0.79620073,-3.58626185,-1.43555151\C,
 0,-0.37382551,-2.61653906,0.33959494\H,0,-0.89690361,-1.86688596,0.931
 3879\C,0,0.97752927,-2.05602017,-0.14125681\C,0,-0.17953276,-3.8690261
 3,1.16396191\H,0,-1.15954585,-4.25112009,1.46585601\H,0,0.3992837,-3.6
 3540104,2.06847456\O,0,1.34957557,-2.13575582,-1.30003387\O,0,0.504878
 51,-4.80280534,0.33071593\H,0,0.76203533,-5.55531525,0.86976494\N,0,1.
 73184299,-1.48351676,0.81940399\H,0,1.48502753,-1.50571789,1.79567576\
 C,0,3.06665942,-0.99041488,0.53690058\H,0,3.63702165,-1.76571333,0.011
 35531\C,0,3.70190208,-0.74126113,1.92058867\C,0,3.049885,0.25719944,-0
 .35423863\H,0,2.17398662,0.23224356,-1.00215653\H,0,2.98625511,1.16819
 987,0.24458683\O,0,3.09725606,-0.9364708,2.95956816\C,0,4.30368624,0.3
 8196782,-1.26899627\O,0,4.1228226,1.01337278,-2.31658898\O,0,5.3704470
 3,-0.12692711,-0.85348213\N,0,4.96456602,-0.2807851,1.87384147\H,0,5.4
 131983,-0.20270362,0.95744674\C,0,5.69547424,-0.05105049,3.09172748\H,
 0,5.03032406,0.4178042,3.81807094\C,0,6.8838963,0.90400558,2.75971455\
 C,0,6.31071736,-1.31233019,3.65841393\H,0,6.92936319,-1.7506168,2.8686
 5743\H,0,5.52484455,-2.02522046,3.90502004\O,0,6.79177823,2.06248198,3
 .18324615\C,0,7.1643446,-0.95687077,4.87952399\H,0,6.51834139,-0.84511
 412,5.75116838\H,0,7.62587844,0.0203102,4.72549637\C,0,8.25714299,-1.9
 8414967,5.15334684\H,0,7.81935994,-2.91163145,5.52449476\H,0,8.7842284
 7,-2.22349359,4.22486596\N,0,9.24980964,-1.55870535,6.15697206\H,0,8.9
 6652855,-1.6467975,7.12217265\N,0,10.38283242,-0.15604144,4.6687536\H,
 0,10.98184479,0.64747279,4.55302616\H,0,9.63525441,-0.22370062,3.98931
 075\N,0,10.98020777,-0.23202459,6.94515418\H,0,11.06608891,-0.88510965
 ,7.71580968\H,0,11.85393009,0.21189127,6.69582725\C,0,10.19782684,-0.6
 4536581,5.91189748\O,0,7.81280011,0.3831923,2.10136499\H,0,-2.29763493
 ,-2.2905334,-5.26646341\\Version=ES64L-G16RevC.01\HF=-2166.1139711\RMS
 D=5.868e-09\Dipole=-11.4068187,-4.8251093,-3.7278488\Quadrupole=103.14
 70846,-135.1957871,32.0487025,-39.8642354,256.274374,-3.5772559\PG=C01
  [X(C25H39N8O10)]\\@
 The archive entry for this job was punched.


 DEMOCRATS BUY MOST OF THE BOOKS THAT HAVE BEEN
 BANNED; REPUBLICANS FORM CENSORSHIP COMMITTEES AND
 READ THEM AS A GROUP.
 Job cpu time:       0 days  0 hours  3 minutes  5.0 seconds.
 Elapsed time:       0 days  0 hours  0 minutes 46.9 seconds.
 File lengths (MBytes):  RWF=    384 Int=      0 D2E=      0 Chk=     56 Scr=     16
 Normal termination of Gaussian 16 at Tue May 17 19:49:17 2022.
