 Entering Gaussian System, Link 0=/opt/software/Gaussian/g16-AVX2-C.01/g16/g16
 Input=charge-conf-306.com
 Output=charge-conf-306.log
 Initial command:
 /opt/software/Gaussian/g16-AVX2-C.01/g16/l1.exe "/mnt/gs21/scratch/kengmith/Gau-15750.inp" -scrdir="/mnt/gs21/scratch/kengmith/"
 Entering Link 1 = /opt/software/Gaussian/g16-AVX2-C.01/g16/l1.exe PID=     15761.
  
 Copyright (c) 1988-2019, Gaussian, Inc.  All Rights Reserved.
  
 This is part of the Gaussian(R) 16 program.  It is based on
 the Gaussian(R) 09 system (copyright 2009, Gaussian, Inc.),
 the Gaussian(R) 03 system (copyright 2003, Gaussian, Inc.),
 the Gaussian(R) 98 system (copyright 1998, Gaussian, Inc.),
 the Gaussian(R) 94 system (copyright 1995, Gaussian, Inc.),
 the Gaussian 92(TM) system (copyright 1992, Gaussian, Inc.),
 the Gaussian 90(TM) system (copyright 1990, Gaussian, Inc.),
 the Gaussian 88(TM) system (copyright 1988, Gaussian, Inc.),
 the Gaussian 86(TM) system (copyright 1986, Carnegie Mellon
 University), and the Gaussian 82(TM) system (copyright 1983,
 Carnegie Mellon University). Gaussian is a federally registered
 trademark of Gaussian, Inc.
  
 This software contains proprietary and confidential information,
 including trade secrets, belonging to Gaussian, Inc.
  
 This software is provided under written license and may be
 used, copied, transmitted, or stored only in accord with that
 written license.
  
 The following legend is applicable only to US Government
 contracts under FAR:
  
                    RESTRICTED RIGHTS LEGEND
  
 Use, reproduction and disclosure by the US Government is
 subject to restrictions as set forth in subparagraphs (a)
 and (c) of the Commercial Computer Software - Restricted
 Rights clause in FAR 52.227-19.
  
 Gaussian, Inc.
 340 Quinnipiac St., Bldg. 40, Wallingford CT 06492
  
  
 ---------------------------------------------------------------
 Warning -- This program may not be used in any manner that
 competes with the business of Gaussian, Inc. or will provide
 assistance to any competitor of Gaussian, Inc.  The licensee
 of this program is prohibited from giving any competitor of
 Gaussian, Inc. access to this program.  By using this program,
 the user acknowledges that Gaussian, Inc. is engaged in the
 business of creating and licensing software in the field of
 computational chemistry and represents and warrants to the
 licensee that it is not a competitor of Gaussian, Inc. and that
 it will not use this program in any manner prohibited above.
 ---------------------------------------------------------------
  

 Cite this work as:
 Gaussian 16, Revision C.01,
 M. J. Frisch, G. W. Trucks, H. B. Schlegel, G. E. Scuseria, 
 M. A. Robb, J. R. Cheeseman, G. Scalmani, V. Barone, 
 G. A. Petersson, H. Nakatsuji, X. Li, M. Caricato, A. V. Marenich, 
 J. Bloino, B. G. Janesko, R. Gomperts, B. Mennucci, H. P. Hratchian, 
 J. V. Ortiz, A. F. Izmaylov, J. L. Sonnenberg, D. Williams-Young, 
 F. Ding, F. Lipparini, F. Egidi, J. Goings, B. Peng, A. Petrone, 
 T. Henderson, D. Ranasinghe, V. G. Zakrzewski, J. Gao, N. Rega, 
 G. Zheng, W. Liang, M. Hada, M. Ehara, K. Toyota, R. Fukuda, 
 J. Hasegawa, M. Ishida, T. Nakajima, Y. Honda, O. Kitao, H. Nakai, 
 T. Vreven, K. Throssell, J. A. Montgomery, Jr., J. E. Peralta, 
 F. Ogliaro, M. J. Bearpark, J. J. Heyd, E. N. Brothers, K. N. Kudin, 
 V. N. Staroverov, T. A. Keith, R. Kobayashi, J. Normand, 
 K. Raghavachari, A. P. Rendell, J. C. Burant, S. S. Iyengar, 
 J. Tomasi, M. Cossi, J. M. Millam, M. Klene, C. Adamo, R. Cammi, 
 J. W. Ochterski, R. L. Martin, K. Morokuma, O. Farkas, 
 J. B. Foresman, and D. J. Fox, Gaussian, Inc., Wallingford CT, 2019.
 
 ******************************************
 Gaussian 16:  ES64L-G16RevC.01  3-Jul-2019
                 9-Sep-2022 
 ******************************************
 %mem=8gb
 %nproc=4
 Will use up to    4 processors via shared memory.
 %chk=conf-306.chk
 ----------------------------------------------------------------------
 # B3LYP/6-31G** empiricaldispersion=gd3bj guess=read geom=check nosymm
  integral(ultrafinegrid)
 ----------------------------------------------------------------------
 1/29=2,38=1,172=1/1;
 2/12=2,15=1,40=1/2;
 3/5=1,6=6,7=101,11=2,14=-4,25=1,30=1,74=-5,75=-5,116=-2,124=41/1,2,3;
 4/5=1/1;
 5/5=2,38=6/2;
 6/7=2,8=2,9=2,10=2,28=1/1;
 99/5=1,9=1/99;
 ------------------------------------------------------
 Candidate Structure: Conf:306 Charge calc in gas phase
 ------------------------------------------------------
 Structure from the checkpoint file:  "conf-306.chk"
 Charge =  1 Multiplicity = 1
 Redundant internal coordinates found in file.  (old form).
 N,0,-9.0299109525,-3.7988087932,-9.2202018523
 H,0,-9.689925929,-3.8040978851,-9.9968408418
 H,0,-8.8227328608,-2.8208081705,-8.8788492103
 H,0,-8.1065076673,-4.189855025,-9.5265903681
 C,0,-9.5715168684,-4.4464734097,-7.9728208122
 H,0,-10.6440545754,-4.6120625469,-8.0909725437
 C,0,-9.2983529495,-3.3724002122,-6.8809693021
 C,0,-8.8576378355,-5.7807666204,-7.7067607921
 H,0,-8.8422956594,-6.3862618547,-8.6209573179
 H,0,-7.8281606916,-5.6200318421,-7.3821613791
 O,0,-8.6927479204,-2.3512375085,-7.2309819232
 C,0,-9.5818756637,-6.5697654725,-6.6375688487
 O,0,-10.6937435203,-6.2785521041,-6.2300126228
 O,0,-8.8784129728,-7.6105591861,-6.205795269
 N,0,-9.6994507756,-3.6234123189,-5.6280125002
 H,0,-10.1264147371,-4.5312319285,-5.4685983687
 C,0,-8.9040696729,-3.085049731,-4.5278105752
 H,0,-8.7670142269,-2.0146021088,-4.6958267929
 C,0,-7.541124182,-3.8135940469,-4.5793843227
 C,0,-9.5954449146,-3.3297130846,-3.1617260466
 H,0,-10.6205763678,-2.953508648,-3.2327868791
 H,0,-9.0839581449,-2.7166138826,-2.4137542858
 O,0,-7.4042324429,-4.8448822,-5.2320675953
 C,0,-9.5656961391,-4.7835484853,-2.7501212446
 C,0,-10.5357553616,-5.6860896505,-3.201002551
 H,0,-11.3939176955,-5.3263005278,-3.7606753642
 C,0,-8.5052455376,-5.2833872493,-1.9822122073
 H,0,-7.7562504548,-4.5992776051,-1.593367643
 C,0,-10.4328209626,-7.0503838275,-2.9435109006
 H,0,-11.1955278468,-7.7434230081,-3.2818876362
 C,0,-8.3922019839,-6.6430688274,-1.7081215554
 H,0,-7.5653130671,-7.0114949181,-1.1059728705
 O,0,-9.2888175868,-8.881119657,-1.998994471
 H,0,-8.5515035877,-9.0905868948,-1.4103465483
 C,0,-9.3504024162,-7.5364314858,-2.2027007479
 N,0,-6.5461186385,-3.2650812599,-3.8494200316
 H,0,-6.7374154506,-2.534025552,-3.1714167597
 C,0,-5.3143571089,-3.9908955377,-3.6070880953
 H,0,-5.5264899842,-5.0578525773,-3.7330745678
 C,0,-4.9143181922,-3.7048731005,-2.1541580943
 C,0,-4.1895121787,-3.5844561835,-4.6024872819
 H,0,-3.2947697486,-4.1796305751,-4.390790057
 H,0,-3.9287979919,-2.5365503752,-4.4238494899
 O,0,-5.5223570478,-2.8537910272,-1.4926751478
 C,0,-4.629068256,-3.7864023009,-6.031549002
 C,0,-4.613389443,-5.0613344378,-6.6090706764
 H,0,-4.1947668397,-5.8978295866,-6.0575442939
 C,0,-5.1670447735,-2.7244623407,-6.7631127847
 H,0,-5.1864337548,-1.7290327458,-6.3321434235
 C,0,-5.1596138037,-5.2860574944,-7.8696525462
 H,0,-5.163576065,-6.2737137955,-8.3171548347
 C,0,-5.7193378952,-2.931611183,-8.0260543573
 H,0,-6.1603434304,-2.1050019075,-8.5729749803
 O,0,-6.3881984433,-4.4825114486,-9.7740041818
 H,0,-5.9477338622,-4.0062790244,-10.4926295456
 C,0,-5.7254102127,-4.216427927,-8.5578384189
 N,0,-3.8833264822,-4.4182802317,-1.6646074703
 H,0,-3.3861864999,-5.0575791583,-2.2685885845
 C,0,-3.3594170283,-4.2194164661,-0.3055119551
 H,0,-4.2178488812,-3.9654548574,0.3219216863
 C,0,-2.3815805643,-3.0256867438,-0.3143785876
 C,0,-2.6943889609,-5.5007129498,0.2004831728
 H,0,-3.3812804671,-6.3323576961,0.0037046352
 H,0,-1.7797210978,-5.6711399485,-0.3748994964
 O,0,-1.1605461411,-3.1763516621,-0.2553185707
 C,0,-2.3678336133,-5.4388328417,1.6764197314
 C,0,-1.0435481932,-5.3452664569,2.1145328418
 H,0,-0.24470101,-5.2899397419,1.382767858
 C,0,-3.3953974355,-5.4750761386,2.6268158453
 H,0,-4.4298946078,-5.5548796141,2.2998837843
 C,0,-0.7507664123,-5.3059468107,3.477255684
 H,0,0.281230422,-5.2345667235,3.8041344323
 C,0,-3.1062797022,-5.4223674502,3.9894833297
 H,0,-3.9122959446,-5.4513568373,4.7158087278
 C,0,-1.7803463255,-5.3429267719,4.4179172331
 H,0,-1.551601946,-5.3057193368,5.4777965479
 N,0,-2.9822652983,-1.8229661378,-0.4427365874
 H,0,-3.9948649461,-1.7908688216,-0.4951026323
 C,0,-2.2245187941,-0.5829505784,-0.6205460914
 H,0,-1.3017958924,-0.8551346553,-1.1442049228
 C,0,-1.8344081977,-0.0055271236,0.7553437676
 C,0,-3.0341971516,0.416723927,-1.4334422298
 H,0,-2.4520629557,1.3241507123,-1.6019871698
 H,0,-3.30779873,-0.0151956573,-2.400394062
 H,0,-3.9385306724,0.7081178518,-0.8937126725
 O,0,-2.3250825609,1.0462222971,1.1762551653
 N,0,-0.9441784604,-0.749472726,1.443668931
 H,0,-0.6113564071,-1.6144274081,1.0262909302
 C,0,-0.6022339993,-0.4552013319,2.8386679911
 H,0,-1.5043774678,-0.0383511563,3.2980897378
 C,0,0.488445964,0.6357736712,2.8796912267
 C,0,-0.1584173842,-1.7141934284,3.5745367937
 H,0,-0.8180374499,-2.5414515037,3.2917201431
 H,0,0.8545288279,-1.9624445286,3.2415502775
 O,0,1.6646528209,0.3864381107,3.1636226067
 C,0,-0.1793147424,-1.5288834508,5.1030899251
 H,0,0.246215492,-0.5454588628,5.3317875647
 C,0,-1.6073154943,-1.5777105709,5.6593023917
 H,0,-2.0583020688,-2.560406014,5.4765075901
 H,0,-1.5945473995,-1.3860745901,6.7345232088
 H,0,-2.256910356,-0.8255325962,5.1968305125
 C,0,0.7060598816,-2.5653520276,5.7995747923
 H,0,0.3480271038,-3.583251419,5.6086537909
 H,0,0.6994525857,-2.4026779281,6.8806644909
 H,0,1.7408123556,-2.4983073408,5.4481684848
 N,0,0.0466463759,1.8723592075,2.5617279521
 H,0,-0.9151002875,1.9515712777,2.2355300378
 C,0,0.9680738767,2.982166224,2.3146519678
 H,0,1.8764323355,2.5559701256,1.8719209399
 C,0,1.3984013202,3.6440904288,3.6348912253
 C,0,0.3517523392,4.0021402999,1.3694188052
 H,0,1.0898867467,4.7733148256,1.1432060489
 H,0,-0.5121694693,4.4857352752,1.8313402521
 H,0,0.0400125405,3.5131763747,0.4421991924
 O,0,1.0932684051,4.8044374361,3.9265127723
 N,0,2.1675912644,2.8692568351,4.4339659564
 H,0,2.356687655,1.9113216468,4.137294882
 C,0,2.776116049,3.4119219379,5.644363307
 H,0,2.1180678613,4.217384154,5.9887216631
 C,0,4.1176436049,4.0649237727,5.2632378732
 C,0,2.9343001214,2.3522384374,6.7292857998
 H,0,3.3940279899,2.8382348208,7.5977892306
 H,0,3.6551616761,1.597508917,6.4011565654
 O,0,5.2078617414,3.6287936161,5.6444226021
 C,0,1.6420345356,1.6934394507,7.1040367985
 C,0,1.3686697233,0.4941075607,7.7202781132
 H,0,2.0773394268,-0.25940648,8.0335269492
 N,0,0.3990301267,2.2784861696,6.9236472903
 H,0,0.2173116849,3.1494027582,6.4471485684
 C,0,-0.5413029093,1.4207210108,7.4228608737
 H,0,-1.5993418791,1.6379315557,7.3890387596
 N,0,0.0119669136,0.3333925187,7.9180210542
 N,0,3.979359018,5.1171999165,4.4282574923
 H,0,3.0408000361,5.3722058732,4.1305976707
 C,0,5.1031154131,5.622501159,3.6507435334
 H,0,5.7931180846,4.7825963733,3.4929850053
 C,0,5.850933484,6.7035192673,4.4454495606
 C,0,4.6140648277,6.1416227128,2.2890257389
 H,0,3.9946426271,7.0259107974,2.4610716947
 O,0,5.771876598,7.9006556178,4.1614321445
 C,0,5.7730307346,6.4985026509,1.3663778074
 H,0,6.3846435817,7.3025771521,1.7811476866
 H,0,6.4152437742,5.6222593096,1.2020330283
 H,0,5.3834917823,6.8217933688,0.3978896034
 O,0,3.7375004379,5.1751102396,1.6905050039
 H,0,4.2892725342,4.4355869578,1.399768285
 N,0,6.5934986514,6.2211299782,5.4639412375
 H,0,6.5470731718,5.2239131657,5.6558374002
 C,0,7.3615252657,7.1075819407,6.3388827603
 H,0,6.8284010628,8.0650388618,6.3506772391
 C,0,8.7438378201,7.3238345322,5.6774915113
 C,0,7.4687410027,6.5527553072,7.7653281141
 H,0,8.1321320906,5.6799099755,7.7261714553
 O,0,9.7878091349,6.8655174784,6.1411976311
 C,0,8.1171547034,7.5964509832,8.6834170996
 H,0,7.4972897915,8.4993781458,8.7426941431
 H,0,9.1088299749,7.87299146,8.3221704327
 H,0,8.2216758841,7.1989975375,9.6976215445
 C,0,6.0985397439,6.1257303104,8.3083002001
 H,0,5.3918605625,6.9637887898,8.2861522489
 H,0,6.1938819215,5.7981596781,9.3482126799
 H,0,5.6623741335,5.3014566348,7.7381764357
 N,0,8.6888333946,8.0053186784,4.5084864216
 H,0,7.7928650946,8.3027503144,4.1265807555
 C,0,9.8554948657,8.1154252733,3.6505059007
 H,0,10.6861887,8.5260102195,4.2323352023
 C,0,9.4721476372,9.0663529866,2.5092423467
 C,0,10.2884712741,6.7223703519,3.0966157382
 H,0,9.967102943,5.9867617761,3.8352380578
 H,0,9.7429921255,6.5108239153,2.1686325585
 O,0,10.4366030226,9.8163653053,1.9913766779
 C,0,11.8030443363,6.566311897,2.9127368319
 H,0,12.0540055711,5.4992933186,2.8980298155
 H,0,12.2900313571,6.9834915494,3.7998826547
 C,0,12.3907437015,7.2384819562,1.6533133432
 H,0,11.760783486,8.0547536412,1.3047253688
 H,0,12.4545290984,6.5241931787,0.8273824231
 N,0,13.7339311369,7.7836158025,1.8535589326
 H,0,14.45890483,7.0904758079,1.9855804425
 N,0,12.8950662344,9.6358806184,2.9917357252
 H,0,13.1922336399,10.4852879104,3.4645770507
 H,0,11.3371831768,9.7025352835,2.4486755077
 N,0,15.2264476788,9.1588515621,2.9573637444
 H,0,15.4074803414,10.0746233547,3.3426999183
 H,0,15.9102606244,8.8880879424,2.2628665625
 C,0,13.9029028179,8.9118891349,2.6181963975
 O,0,8.3350130652,9.0932208515,2.0765574916
 H,0,-9.3730947901,-8.0159758804,-5.4695662883
 Recover connectivity data from disk.
                           ----------------------------
                           !    Current Parameters    !
                           ! (Angstroms and Degrees)  !
 --------------------------                            --------------------------
 ! Name  Definition              Value                                          !
 --------------------------------------------------------------------------------
 ! R1    R(1,2)                  1.0192                                         !
 ! R2    R(1,3)                  1.0564                                         !
 ! R3    R(1,4)                  1.0486                                         !
 ! R4    R(1,5)                  1.5062                                         !
 ! R5    R(5,6)                  1.0917                                         !
 ! R6    R(5,7)                  1.5558                                         !
 ! R7    R(5,8)                  1.5365                                         !
 ! R8    R(7,11)                 1.2378                                         !
 ! R9    R(7,15)                 1.3393                                         !
 ! R10   R(8,9)                  1.0966                                         !
 ! R11   R(8,10)                 1.0913                                         !
 ! R12   R(8,12)                 1.5133                                         !
 ! R13   R(12,13)                1.2195                                         !
 ! R14   R(12,14)                1.3284                                         !
 ! R15   R(14,188)               0.9752                                         !
 ! R16   R(15,16)                1.0158                                         !
 ! R17   R(15,17)                1.4604                                         !
 ! R18   R(17,18)                1.0922                                         !
 ! R19   R(17,19)                1.5463                                         !
 ! R20   R(17,20)                1.5505                                         !
 ! R21   R(19,23)                1.2281                                         !
 ! R22   R(19,36)                1.3505                                         !
 ! R23   R(20,21)                1.0943                                         !
 ! R24   R(20,22)                1.0941                                         !
 ! R25   R(20,24)                1.5113                                         !
 ! R26   R(24,25)                1.3996                                         !
 ! R27   R(24,27)                1.4015                                         !
 ! R28   R(25,26)                1.0859                                         !
 ! R29   R(25,29)                1.3922                                         !
 ! R30   R(27,28)                1.0864                                         !
 ! R31   R(27,31)                1.3916                                         !
 ! R32   R(29,30)                1.0847                                         !
 ! R33   R(29,35)                1.3988                                         !
 ! R34   R(31,32)                1.0872                                         !
 ! R35   R(31,35)                1.4003                                         !
 ! R36   R(33,34)                0.9664                                         !
 ! R37   R(33,35)                1.3614                                         !
 ! R38   R(36,37)                1.0152                                         !
 ! R39   R(36,38)                1.4501                                         !
 ! R40   R(38,39)                1.0951                                         !
 ! R41   R(38,40)                1.5339                                         !
 ! R42   R(38,41)                1.556                                          !
 ! R43   R(40,44)                1.2376                                         !
 ! R44   R(40,57)                1.3459                                         !
 ! R45   R(41,42)                1.0953                                         !
 ! R46   R(41,43)                1.0945                                         !
 ! R47   R(41,45)                1.5087                                         !
 ! R48   R(45,46)                1.3997                                         !
 ! R49   R(45,48)                1.3973                                         !
 ! R50   R(46,47)                1.0859                                         !
 ! R51   R(46,50)                1.3921                                         !
 ! R52   R(48,49)                1.0849                                         !
 ! R53   R(48,52)                1.3939                                         !
 ! R54   R(50,51)                1.0843                                         !
 ! R55   R(50,56)                1.3921                                         !
 ! R56   R(52,53)                1.0848                                         !
 ! R57   R(52,56)                1.3905                                         !
 ! R58   R(54,55)                0.9681                                         !
 ! R59   R(54,56)                1.4104                                         !
 ! R60   R(57,58)                1.0103                                         !
 ! R61   R(57,59)                1.4701                                         !
 ! R62   R(59,60)                1.0932                                         !
 ! R63   R(59,61)                1.5431                                         !
 ! R64   R(59,62)                1.5297                                         !
 ! R65   R(61,65)                1.2317                                         !
 ! R66   R(61,77)                1.3505                                         !
 ! R67   R(62,63)                1.0964                                         !
 ! R68   R(62,64)                1.094                                          !
 ! R69   R(62,66)                1.5129                                         !
 ! R70   R(66,67)                1.398                                          !
 ! R71   R(66,69)                1.4002                                         !
 ! R72   R(67,68)                1.0848                                         !
 ! R73   R(67,71)                1.3944                                         !
 ! R74   R(69,70)                1.0879                                         !
 ! R75   R(69,73)                1.394                                          !
 ! R76   R(71,72)                1.0849                                         !
 ! R77   R(71,75)                1.3951                                         !
 ! R78   R(73,74)                1.0854                                         !
 ! R79   R(73,75)                1.3957                                         !
 ! R80   R(75,76)                1.0849                                         !
 ! R81   R(77,78)                1.0145                                         !
 ! R82   R(77,79)                1.464                                          !
 ! R83   R(79,80)                1.0953                                         !
 ! R84   R(79,81)                1.5423                                         !
 ! R85   R(79,82)                1.5218                                         !
 ! R86   R(81,86)                1.2345                                         !
 ! R87   R(81,87)                1.349                                          !
 ! R88   R(82,83)                1.0912                                         !
 ! R89   R(82,84)                1.0938                                         !
 ! R90   R(82,85)                1.0927                                         !
 ! R91   R(87,88)                1.0164                                         !
 ! R92   R(87,89)                1.4661                                         !
 ! R93   R(89,90)                1.0948                                         !
 ! R94   R(89,91)                1.5432                                         !
 ! R95   R(89,92)                1.5243                                         !
 ! R96   R(91,95)                1.2354                                         !
 ! R97   R(91,106)               1.3511                                         !
 ! R98   R(92,93)                1.0952                                         !
 ! R99   R(92,94)                1.0948                                         !
 ! R100  R(92,96)                1.5399                                         !
 ! R101  R(96,97)                1.0957                                         !
 ! R102  R(96,98)                1.5333                                         !
 ! R103  R(96,102)               1.5308                                         !
 ! R104  R(98,99)                1.0966                                         !
 ! R105  R(98,100)               1.0922                                         !
 ! R106  R(98,101)               1.0962                                         !
 ! R107  R(102,103)              1.0958                                         !
 ! R108  R(102,104)              1.0933                                         !
 ! R109  R(102,105)              1.0948                                         !
 ! R110  R(106,107)              1.0186                                         !
 ! R111  R(106,108)              1.4635                                         !
 ! R112  R(108,109)              1.0967                                         !
 ! R113  R(108,110)              1.5383                                         !
 ! R114  R(108,111)              1.5211                                         !
 ! R115  R(110,115)              1.2347                                         !
 ! R116  R(110,116)              1.353                                          !
 ! R117  R(111,112)              1.0912                                         !
 ! R118  R(111,113)              1.0925                                         !
 ! R119  R(111,114)              1.0936                                         !
 ! R120  R(116,117)              1.0205                                         !
 ! R121  R(116,118)              1.4594                                         !
 ! R122  R(118,119)              1.0956                                         !
 ! R123  R(118,120)              1.5399                                         !
 ! R124  R(118,121)              1.5248                                         !
 ! R125  R(120,124)              1.2345                                         !
 ! R126  R(120,133)              1.3504                                         !
 ! R127  R(121,122)              1.0963                                         !
 ! R128  R(121,123)              1.094                                          !
 ! R129  R(121,125)              1.4981                                         !
 ! R130  R(125,126)              1.3758                                         !
 ! R131  R(125,128)              1.3856                                         !
 ! R132  R(126,127)              1.0808                                         !
 ! R133  R(126,132)              1.3804                                         !
 ! R134  R(128,129)              1.0092                                         !
 ! R135  R(128,130)              1.3672                                         !
 ! R136  R(130,131)              1.0806                                         !
 ! R137  R(130,132)              1.3167                                         !
 ! R138  R(133,134)              1.0171                                         !
 ! R139  R(133,135)              1.4569                                         !
 ! R140  R(135,136)              1.0984                                         !
 ! R141  R(135,137)              1.536                                          !
 ! R142  R(135,138)              1.5372                                         !
 ! R143  R(137,140)              1.2329                                         !
 ! R144  R(137,147)              1.3496                                         !
 ! R145  R(138,139)              1.0933                                         !
 ! R146  R(138,141)              1.5238                                         !
 ! R147  R(138,145)              1.4355                                         !
 ! R148  R(141,142)              1.0921                                         !
 ! R149  R(141,143)              1.0987                                         !
 ! R150  R(141,144)              1.0928                                         !
 ! R151  R(145,146)              0.9674                                         !
 ! R152  R(147,148)              1.0166                                         !
 ! R153  R(147,149)              1.4633                                         !
 ! R154  R(149,150)              1.0959                                         !
 ! R155  R(149,151)              1.5476                                         !
 ! R156  R(149,152)              1.5343                                         !
 ! R157  R(151,154)              1.2308                                         !
 ! R158  R(151,163)              1.3543                                         !
 ! R159  R(152,153)              1.097                                          !
 ! R160  R(152,155)              1.5338                                         !
 ! R161  R(152,159)              1.5345                                         !
 ! R162  R(155,156)              1.0968                                         !
 ! R163  R(155,157)              1.0911                                         !
 ! R164  R(155,158)              1.0943                                         !
 ! R165  R(159,160)              1.0965                                         !
 ! R166  R(159,161)              1.0944                                         !
 ! R167  R(159,162)              1.093                                          !
 ! R168  R(163,164)              1.0184                                         !
 ! R169  R(163,165)              1.4524                                         !
 ! R170  R(165,166)              1.0941                                         !
 ! R171  R(165,167)              1.5342                                         !
 ! R172  R(165,168)              1.5604                                         !
 ! R173  R(167,171)              1.327                                          !
 ! R174  R(167,187)              1.217                                          !
 ! R175  R(168,169)              1.0909                                         !
 ! R176  R(168,170)              1.097                                          !
 ! R177  R(168,172)              1.5337                                         !
 ! R178  R(172,173)              1.0962                                         !
 ! R179  R(172,174)              1.0946                                         !
 ! R180  R(172,175)              1.5438                                         !
 ! R181  R(175,176)              1.0884                                         !
 ! R182  R(175,177)              1.0938                                         !
 ! R183  R(175,178)              1.4634                                         !
 ! R184  R(178,179)              1.0117                                         !
 ! R185  R(178,186)              1.3734                                         !
 ! R186  R(180,181)              1.0166                                         !
 ! R187  R(180,182)              1.6512                                         !
 ! R188  R(180,186)              1.2959                                         !
 ! R189  R(183,184)              1.0099                                         !
 ! R190  R(183,185)              1.0116                                         !
 ! R191  R(183,186)              1.3885                                         !
 ! A1    A(2,1,3)              112.2119                                         !
 ! A2    A(2,1,4)              110.2237                                         !
 ! A3    A(2,1,5)              113.3256                                         !
 ! A4    A(3,1,4)              105.4844                                         !
 ! A5    A(3,1,5)              101.5957                                         !
 ! A6    A(4,1,5)              113.4708                                         !
 ! A7    A(1,5,6)              109.2001                                         !
 ! A8    A(1,5,7)              102.78                                           !
 ! A9    A(1,5,8)              110.4716                                         !
 ! A10   A(6,5,7)              110.6824                                         !
 ! A11   A(6,5,8)              110.0902                                         !
 ! A12   A(7,5,8)              113.3553                                         !
 ! A13   A(5,7,11)             117.1953                                         !
 ! A14   A(5,7,15)             118.3322                                         !
 ! A15   A(11,7,15)            124.4505                                         !
 ! A16   A(5,8,9)              109.9762                                         !
 ! A17   A(5,8,10)             111.2161                                         !
 ! A18   A(5,8,12)             110.6553                                         !
 ! A19   A(9,8,10)             108.4256                                         !
 ! A20   A(9,8,12)             107.9269                                         !
 ! A21   A(10,8,12)            108.5474                                         !
 ! A22   A(8,12,13)            123.2264                                         !
 ! A23   A(8,12,14)            112.6254                                         !
 ! A24   A(13,12,14)           124.1464                                         !
 ! A25   A(12,14,188)          107.6063                                         !
 ! A26   A(7,15,16)            116.1158                                         !
 ! A27   A(7,15,17)            118.201                                          !
 ! A28   A(16,15,17)           116.1124                                         !
 ! A29   A(15,17,18)           108.285                                          !
 ! A30   A(15,17,19)           106.3336                                         !
 ! A31   A(15,17,20)           111.2671                                         !
 ! A32   A(18,17,19)           110.2451                                         !
 ! A33   A(18,17,20)           110.2519                                         !
 ! A34   A(19,17,20)           110.3693                                         !
 ! A35   A(17,19,23)           120.7712                                         !
 ! A36   A(17,19,36)           116.1056                                         !
 ! A37   A(23,19,36)           123.1071                                         !
 ! A38   A(17,20,21)           107.834                                          !
 ! A39   A(17,20,22)           107.7857                                         !
 ! A40   A(17,20,24)           112.5187                                         !
 ! A41   A(21,20,22)           106.8403                                         !
 ! A42   A(21,20,24)           111.5214                                         !
 ! A43   A(22,20,24)           110.1017                                         !
 ! A44   A(20,24,25)           121.2628                                         !
 ! A45   A(20,24,27)           120.4796                                         !
 ! A46   A(25,24,27)           118.0977                                         !
 ! A47   A(24,25,26)           120.0084                                         !
 ! A48   A(24,25,29)           121.4064                                         !
 ! A49   A(26,25,29)           118.5846                                         !
 ! A50   A(24,27,28)           119.5523                                         !
 ! A51   A(24,27,31)           121.1884                                         !
 ! A52   A(28,27,31)           119.2592                                         !
 ! A53   A(25,29,30)           121.0941                                         !
 ! A54   A(25,29,35)           119.7142                                         !
 ! A55   A(30,29,35)           119.1646                                         !
 ! A56   A(27,31,32)           120.129                                          !
 ! A57   A(27,31,35)           119.8798                                         !
 ! A58   A(32,31,35)           119.9901                                         !
 ! A59   A(34,33,35)           109.86                                           !
 ! A60   A(29,35,31)           119.6617                                         !
 ! A61   A(29,35,33)           117.2225                                         !
 ! A62   A(31,35,33)           123.1158                                         !
 ! A63   A(19,36,37)           120.972                                          !
 ! A64   A(19,36,38)           120.8563                                         !
 ! A65   A(37,36,38)           114.134                                          !
 ! A66   A(36,38,39)           107.6915                                         !
 ! A67   A(36,38,40)           106.6481                                         !
 ! A68   A(36,38,41)           112.1111                                         !
 ! A69   A(39,38,40)           109.9478                                         !
 ! A70   A(39,38,41)           108.7186                                         !
 ! A71   A(40,38,41)           111.6352                                         !
 ! A72   A(38,40,44)           120.4231                                         !
 ! A73   A(38,40,57)           116.4528                                         !
 ! A74   A(44,40,57)           123.1235                                         !
 ! A75   A(38,41,42)           108.963                                          !
 ! A76   A(38,41,43)           108.5335                                         !
 ! A77   A(38,41,45)           111.1219                                         !
 ! A78   A(42,41,43)           107.1051                                         !
 ! A79   A(42,41,45)           110.3863                                         !
 ! A80   A(43,41,45)           110.6185                                         !
 ! A81   A(41,45,46)           120.6286                                         !
 ! A82   A(41,45,48)           120.4227                                         !
 ! A83   A(46,45,48)           118.7212                                         !
 ! A84   A(45,46,47)           119.763                                          !
 ! A85   A(45,46,50)           121.0816                                         !
 ! A86   A(47,46,50)           119.1327                                         !
 ! A87   A(45,48,49)           119.7516                                         !
 ! A88   A(45,48,52)           120.9299                                         !
 ! A89   A(49,48,52)           119.288                                          !
 ! A90   A(46,50,51)           121.4791                                         !
 ! A91   A(46,50,56)           118.8883                                         !
 ! A92   A(51,50,56)           119.6283                                         !
 ! A93   A(48,52,53)           120.3058                                         !
 ! A94   A(48,52,56)           119.0481                                         !
 ! A95   A(53,52,56)           120.6275                                         !
 ! A96   A(55,54,56)           109.4795                                         !
 ! A97   A(50,56,52)           121.2736                                         !
 ! A98   A(50,56,54)           118.1858                                         !
 ! A99   A(52,56,54)           120.4072                                         !
 ! A100  A(40,57,58)           119.6633                                         !
 ! A101  A(40,57,59)           122.5169                                         !
 ! A102  A(58,57,59)           117.5766                                         !
 ! A103  A(57,59,60)           106.3909                                         !
 ! A104  A(57,59,61)           108.9753                                         !
 ! A105  A(57,59,62)           110.3302                                         !
 ! A106  A(60,59,61)           108.7342                                         !
 ! A107  A(60,59,62)           110.25                                           !
 ! A108  A(61,59,62)           111.9855                                         !
 ! A109  A(59,61,65)           122.2273                                         !
 ! A110  A(59,61,77)           114.0559                                         !
 ! A111  A(65,61,77)           123.6713                                         !
 ! A112  A(59,62,63)           107.6741                                         !
 ! A113  A(59,62,64)           108.6633                                         !
 ! A114  A(59,62,66)           112.4747                                         !
 ! A115  A(63,62,64)           108.1342                                         !
 ! A116  A(63,62,66)           109.9581                                         !
 ! A117  A(64,62,66)           109.817                                          !
 ! A118  A(62,66,67)           120.8592                                         !
 ! A119  A(62,66,69)           120.1805                                         !
 ! A120  A(67,66,69)           118.9603                                         !
 ! A121  A(66,67,68)           119.3145                                         !
 ! A122  A(66,67,71)           120.468                                          !
 ! A123  A(68,67,71)           120.2124                                         !
 ! A124  A(66,69,70)           119.7224                                         !
 ! A125  A(66,69,73)           120.6859                                         !
 ! A126  A(70,69,73)           119.589                                          !
 ! A127  A(67,71,72)           119.7396                                         !
 ! A128  A(67,71,75)           120.2156                                         !
 ! A129  A(72,71,75)           120.0409                                         !
 ! A130  A(69,73,74)           119.9418                                         !
 ! A131  A(69,73,75)           119.9508                                         !
 ! A132  A(74,73,75)           120.1055                                         !
 ! A133  A(71,75,73)           119.7125                                         !
 ! A134  A(71,75,76)           120.1455                                         !
 ! A135  A(73,75,76)           120.1414                                         !
 ! A136  A(61,77,78)           118.4933                                         !
 ! A137  A(61,77,79)           122.3869                                         !
 ! A138  A(78,77,79)           118.9177                                         !
 ! A139  A(77,79,80)           106.4755                                         !
 ! A140  A(77,79,81)           109.8568                                         !
 ! A141  A(77,79,82)           110.2363                                         !
 ! A142  A(80,79,81)           107.8458                                         !
 ! A143  A(80,79,82)           110.86                                           !
 ! A144  A(81,79,82)           111.4189                                         !
 ! A145  A(79,81,86)           121.5056                                         !
 ! A146  A(79,81,87)           114.5604                                         !
 ! A147  A(86,81,87)           123.928                                          !
 ! A148  A(79,82,83)           110.1787                                         !
 ! A149  A(79,82,84)           110.2379                                         !
 ! A150  A(79,82,85)           110.5895                                         !
 ! A151  A(83,82,84)           108.9822                                         !
 ! A152  A(83,82,85)           107.2201                                         !
 ! A153  A(84,82,85)           109.5687                                         !
 ! A154  A(81,87,88)           118.4156                                         !
 ! A155  A(81,87,89)           121.9192                                         !
 ! A156  A(88,87,89)           119.0218                                         !
 ! A157  A(87,89,90)           106.4694                                         !
 ! A158  A(87,89,91)           109.3917                                         !
 ! A159  A(87,89,92)           111.19                                           !
 ! A160  A(90,89,91)           107.5805                                         !
 ! A161  A(90,89,92)           110.5977                                         !
 ! A162  A(91,89,92)           111.4253                                         !
 ! A163  A(89,91,95)           122.4335                                         !
 ! A164  A(89,91,106)          114.1845                                         !
 ! A165  A(95,91,106)          123.3761                                         !
 ! A166  A(89,92,93)           108.8961                                         !
 ! A167  A(89,92,94)           108.05                                           !
 ! A168  A(89,92,96)           112.0772                                         !
 ! A169  A(93,92,94)           107.9048                                         !
 ! A170  A(93,92,96)           109.8197                                         !
 ! A171  A(94,92,96)           109.9842                                         !
 ! A172  A(92,96,97)           108.0552                                         !
 ! A173  A(92,96,98)           111.6476                                         !
 ! A174  A(92,96,102)          111.2422                                         !
 ! A175  A(97,96,98)           108.3349                                         !
 ! A176  A(97,96,102)          106.7458                                         !
 ! A177  A(98,96,102)          110.6133                                         !
 ! A178  A(96,98,99)           110.5543                                         !
 ! A179  A(96,98,100)          109.9155                                         !
 ! A180  A(96,98,101)          112.1486                                         !
 ! A181  A(99,98,100)          109.0344                                         !
 ! A182  A(99,98,101)          107.51                                           !
 ! A183  A(100,98,101)         107.569                                          !
 ! A184  A(96,102,103)         111.1438                                         !
 ! A185  A(96,102,104)         110.223                                          !
 ! A186  A(96,102,105)         111.0474                                         !
 ! A187  A(103,102,104)        107.9708                                         !
 ! A188  A(103,102,105)        108.0449                                         !
 ! A189  A(104,102,105)        108.2995                                         !
 ! A190  A(91,106,107)         117.082                                          !
 ! A191  A(91,106,108)         121.8652                                         !
 ! A192  A(107,106,108)        118.7779                                         !
 ! A193  A(106,108,109)        107.154                                          !
 ! A194  A(106,108,110)        110.9495                                         !
 ! A195  A(106,108,111)        110.9967                                         !
 ! A196  A(109,108,110)        106.3788                                         !
 ! A197  A(109,108,111)        110.2018                                         !
 ! A198  A(110,108,111)        110.9863                                         !
 ! A199  A(108,110,115)        122.544                                          !
 ! A200  A(108,110,116)        114.8029                                         !
 ! A201  A(115,110,116)        122.6288                                         !
 ! A202  A(108,111,112)        109.1861                                         !
 ! A203  A(108,111,113)        110.7619                                         !
 ! A204  A(108,111,114)        110.0329                                         !
 ! A205  A(112,111,113)        108.0429                                         !
 ! A206  A(112,111,114)        109.4532                                         !
 ! A207  A(113,111,114)        109.3277                                         !
 ! A208  A(110,116,117)        118.1142                                         !
 ! A209  A(110,116,118)        120.9267                                         !
 ! A210  A(117,116,118)        120.8568                                         !
 ! A211  A(116,118,119)        106.4754                                         !
 ! A212  A(116,118,120)        108.4006                                         !
 ! A213  A(116,118,121)        112.0218                                         !
 ! A214  A(119,118,120)        106.8149                                         !
 ! A215  A(119,118,121)        110.4623                                         !
 ! A216  A(120,118,121)        112.3598                                         !
 ! A217  A(118,120,124)        122.8949                                         !
 ! A218  A(118,120,133)        113.2194                                         !
 ! A219  A(124,120,133)        123.8229                                         !
 ! A220  A(118,121,122)        107.4035                                         !
 ! A221  A(118,121,123)        109.5348                                         !
 ! A222  A(118,121,125)        113.2103                                         !
 ! A223  A(122,121,123)        105.4929                                         !
 ! A224  A(122,121,125)        111.008                                          !
 ! A225  A(123,121,125)        109.878                                          !
 ! A226  A(121,125,126)        131.8181                                         !
 ! A227  A(121,125,128)        123.7501                                         !
 ! A228  A(126,125,128)        104.3674                                         !
 ! A229  A(125,126,127)        127.3936                                         !
 ! A230  A(125,126,132)        111.1573                                         !
 ! A231  A(127,126,132)        121.4489                                         !
 ! A232  A(125,128,129)        125.9696                                         !
 ! A233  A(125,128,130)        107.7318                                         !
 ! A234  A(129,128,130)        126.1542                                         !
 ! A235  A(128,130,131)        122.4029                                         !
 ! A236  A(128,130,132)        111.4953                                         !
 ! A237  A(131,130,132)        126.0994                                         !
 ! A238  A(126,132,130)        105.2464                                         !
 ! A239  A(120,133,134)        118.0868                                         !
 ! A240  A(120,133,135)        121.4156                                         !
 ! A241  A(134,133,135)        117.9441                                         !
 ! A242  A(133,135,136)        107.2163                                         !
 ! A243  A(133,135,137)        110.0899                                         !
 ! A244  A(133,135,138)        110.15                                           !
 ! A245  A(136,135,137)        107.8562                                         !
 ! A246  A(136,135,138)        109.3213                                         !
 ! A247  A(137,135,138)        112.0576                                         !
 ! A248  A(135,137,140)        122.2052                                         !
 ! A249  A(135,137,147)        114.0017                                         !
 ! A250  A(140,137,147)        123.7927                                         !
 ! A251  A(135,138,139)        108.3007                                         !
 ! A252  A(135,138,141)        111.9319                                         !
 ! A253  A(135,138,145)        109.6478                                         !
 ! A254  A(139,138,141)        109.681                                          !
 ! A255  A(139,138,145)        105.321                                          !
 ! A256  A(141,138,145)        111.6952                                         !
 ! A257  A(138,141,142)        111.6195                                         !
 ! A258  A(138,141,143)        110.3866                                         !
 ! A259  A(138,141,144)        109.5599                                         !
 ! A260  A(142,141,143)        108.4599                                         !
 ! A261  A(142,141,144)        108.5666                                         !
 ! A262  A(143,141,144)        108.1626                                         !
 ! A263  A(138,145,146)        106.9603                                         !
 ! A264  A(137,147,148)        117.9015                                         !
 ! A265  A(137,147,149)        121.5668                                         !
 ! A266  A(148,147,149)        120.3555                                         !
 ! A267  A(147,149,150)        106.2818                                         !
 ! A268  A(147,149,151)        107.3333                                         !
 ! A269  A(147,149,152)        111.9323                                         !
 ! A270  A(150,149,151)        108.4832                                         !
 ! A271  A(150,149,152)        109.8714                                         !
 ! A272  A(151,149,152)        112.6713                                         !
 ! A273  A(149,151,154)        122.9949                                         !
 ! A274  A(149,151,163)        113.7627                                         !
 ! A275  A(154,151,163)        123.1637                                         !
 ! A276  A(149,152,153)        107.2649                                         !
 ! A277  A(149,152,155)        109.8747                                         !
 ! A278  A(149,152,159)        111.5436                                         !
 ! A279  A(153,152,155)        107.8859                                         !
 ! A280  A(153,152,159)        109.3409                                         !
 ! A281  A(155,152,159)        110.7963                                         !
 ! A282  A(152,155,156)        110.7076                                         !
 ! A283  A(152,155,157)        111.0095                                         !
 ! A284  A(152,155,158)        110.364                                          !
 ! A285  A(156,155,157)        108.8389                                         !
 ! A286  A(156,155,158)        107.631                                          !
 ! A287  A(157,155,158)        108.1863                                         !
 ! A288  A(152,159,160)        110.8339                                         !
 ! A289  A(152,159,161)        109.9817                                         !
 ! A290  A(152,159,162)        112.4339                                         !
 ! A291  A(160,159,161)        107.7043                                         !
 ! A292  A(160,159,162)        107.9793                                         !
 ! A293  A(161,159,162)        107.7379                                         !
 ! A294  A(151,163,164)        120.4259                                         !
 ! A295  A(151,163,165)        121.0283                                         !
 ! A296  A(164,163,165)        117.5843                                         !
 ! A297  A(163,165,166)        108.9157                                         !
 ! A298  A(163,165,167)        106.6022                                         !
 ! A299  A(163,165,168)        111.4019                                         !
 ! A300  A(166,165,167)        110.6518                                         !
 ! A301  A(166,165,168)        108.2464                                         !
 ! A302  A(167,165,168)        111.0161                                         !
 ! A303  A(165,167,171)        117.3246                                         !
 ! A304  A(165,167,187)        120.7738                                         !
 ! A305  A(171,167,187)        121.8632                                         !
 ! A306  A(165,168,169)        106.2558                                         !
 ! A307  A(165,168,170)        109.5393                                         !
 ! A308  A(165,168,172)        114.0433                                         !
 ! A309  A(169,168,170)        107.2323                                         !
 ! A310  A(169,168,172)        107.668                                          !
 ! A311  A(170,168,172)        111.716                                          !
 ! A312  A(168,172,173)        109.0707                                         !
 ! A313  A(168,172,174)        107.662                                          !
 ! A314  A(168,172,175)        115.4327                                         !
 ! A315  A(173,172,174)        106.2591                                         !
 ! A316  A(173,172,175)        109.008                                          !
 ! A317  A(174,172,175)        109.0177                                         !
 ! A318  A(172,175,176)        111.5597                                         !
 ! A319  A(172,175,177)        110.7241                                         !
 ! A320  A(172,175,178)        113.577                                          !
 ! A321  A(176,175,177)        106.3593                                         !
 ! A322  A(176,175,178)        107.1996                                         !
 ! A323  A(177,175,178)        107.0416                                         !
 ! A324  A(175,178,179)        114.8593                                         !
 ! A325  A(175,178,186)        119.6795                                         !
 ! A326  A(179,178,186)        113.7059                                         !
 ! A327  A(181,180,182)        113.27                                           !
 ! A328  A(181,180,186)        111.934                                          !
 ! A329  A(182,180,186)        131.4151                                         !
 ! A330  A(184,183,185)        112.5512                                         !
 ! A331  A(184,183,186)        115.1745                                         !
 ! A332  A(185,183,186)        115.4091                                         !
 ! A333  A(178,186,180)        121.5842                                         !
 ! A334  A(178,186,183)        113.541                                          !
 ! A335  A(180,186,183)        124.8591                                         !
 ! D1    D(2,1,5,6)            -11.5269                                         !
 ! D2    D(2,1,5,7)           -129.0741                                         !
 ! D3    D(2,1,5,8)            109.6885                                         !
 ! D4    D(3,1,5,6)            109.0527                                         !
 ! D5    D(3,1,5,7)             -8.4945                                         !
 ! D6    D(3,1,5,8)           -129.7319                                         !
 ! D7    D(4,1,5,6)           -138.2279                                         !
 ! D8    D(4,1,5,7)            104.2248                                         !
 ! D9    D(4,1,5,8)            -17.0125                                         !
 ! D10   D(1,5,7,11)            -3.3296                                         !
 ! D11   D(1,5,7,15)           178.3016                                         !
 ! D12   D(6,5,7,11)          -119.8223                                         !
 ! D13   D(6,5,7,15)            61.8089                                         !
 ! D14   D(8,5,7,11)           115.9178                                         !
 ! D15   D(8,5,7,15)           -62.451                                          !
 ! D16   D(1,5,8,9)            -49.0154                                         !
 ! D17   D(1,5,8,10)            71.1083                                         !
 ! D18   D(1,5,8,12)          -168.1614                                         !
 ! D19   D(6,5,8,9)             71.6702                                         !
 ! D20   D(6,5,8,10)          -168.2062                                         !
 ! D21   D(6,5,8,12)           -47.4759                                         !
 ! D22   D(7,5,8,9)           -163.7488                                         !
 ! D23   D(7,5,8,10)           -43.6252                                         !
 ! D24   D(7,5,8,12)            77.1051                                         !
 ! D25   D(5,7,15,16)            2.5497                                         !
 ! D26   D(5,7,15,17)          147.5419                                         !
 ! D27   D(11,7,15,16)        -175.6908                                         !
 ! D28   D(11,7,15,17)         -30.6985                                         !
 ! D29   D(5,8,12,13)           11.7245                                         !
 ! D30   D(5,8,12,14)         -168.7297                                         !
 ! D31   D(9,8,12,13)         -108.6523                                         !
 ! D32   D(9,8,12,14)           70.8935                                         !
 ! D33   D(10,8,12,13)         134.0288                                         !
 ! D34   D(10,8,12,14)         -46.4254                                         !
 ! D35   D(8,12,14,188)        175.0138                                         !
 ! D36   D(13,12,14,188)        -5.4453                                         !
 ! D37   D(7,15,17,18)          52.1507                                         !
 ! D38   D(7,15,17,19)         -66.3128                                         !
 ! D39   D(7,15,17,20)         173.4701                                         !
 ! D40   D(16,15,17,18)       -162.8558                                         !
 ! D41   D(16,15,17,19)         78.6807                                         !
 ! D42   D(16,15,17,20)        -41.5365                                         !
 ! D43   D(15,17,19,23)        -15.8789                                         !
 ! D44   D(15,17,19,36)        165.5386                                         !
 ! D45   D(18,17,19,23)       -133.0438                                         !
 ! D46   D(18,17,19,36)         48.3737                                         !
 ! D47   D(20,17,19,23)        104.9177                                         !
 ! D48   D(20,17,19,36)        -73.6649                                         !
 ! D49   D(15,17,20,21)        -52.2206                                         !
 ! D50   D(15,17,20,22)       -167.2327                                         !
 ! D51   D(15,17,20,24)         71.1847                                         !
 ! D52   D(18,17,20,21)         67.9425                                         !
 ! D53   D(18,17,20,22)        -47.0695                                         !
 ! D54   D(18,17,20,24)       -168.6521                                         !
 ! D55   D(19,17,20,21)       -170.023                                          !
 ! D56   D(19,17,20,22)         74.965                                          !
 ! D57   D(19,17,20,24)        -46.6176                                         !
 ! D58   D(17,19,36,37)         11.6577                                         !
 ! D59   D(17,19,36,38)        167.7328                                         !
 ! D60   D(23,19,36,37)       -166.8883                                         !
 ! D61   D(23,19,36,38)        -10.8132                                         !
 ! D62   D(17,20,24,25)        -84.7845                                         !
 ! D63   D(17,20,24,27)         90.5309                                         !
 ! D64   D(21,20,24,25)         36.5396                                         !
 ! D65   D(21,20,24,27)       -148.145                                          !
 ! D66   D(22,20,24,25)        154.9602                                         !
 ! D67   D(22,20,24,27)        -29.7244                                         !
 ! D68   D(20,24,25,26)         -7.2931                                         !
 ! D69   D(20,24,25,29)        172.9926                                         !
 ! D70   D(27,24,25,26)        177.2832                                         !
 ! D71   D(27,24,25,29)         -2.431                                          !
 ! D72   D(20,24,27,28)          6.4772                                         !
 ! D73   D(20,24,27,31)       -173.4766                                         !
 ! D74   D(25,24,27,28)       -178.0618                                         !
 ! D75   D(25,24,27,31)          1.9843                                         !
 ! D76   D(24,25,29,30)        179.0276                                         !
 ! D77   D(24,25,29,35)          0.9363                                         !
 ! D78   D(26,25,29,30)         -0.6906                                         !
 ! D79   D(26,25,29,35)       -178.782                                          !
 ! D80   D(24,27,31,32)       -179.6708                                         !
 ! D81   D(24,27,31,35)         -0.0538                                         !
 ! D82   D(28,27,31,32)          0.3753                                         !
 ! D83   D(28,27,31,35)        179.9922                                         !
 ! D84   D(25,29,35,31)          1.0572                                         !
 ! D85   D(25,29,35,33)       -178.9884                                         !
 ! D86   D(30,29,35,31)       -177.0711                                         !
 ! D87   D(30,29,35,33)          2.8833                                         !
 ! D88   D(27,31,35,29)         -1.491                                          !
 ! D89   D(27,31,35,33)        178.5575                                         !
 ! D90   D(32,31,35,29)        178.1265                                         !
 ! D91   D(32,31,35,33)         -1.8251                                         !
 ! D92   D(34,33,35,29)       -174.7422                                         !
 ! D93   D(34,33,35,31)          5.2105                                         !
 ! D94   D(19,36,38,39)        -22.336                                          !
 ! D95   D(19,36,38,40)       -140.3152                                         !
 ! D96   D(19,36,38,41)         97.2143                                         !
 ! D97   D(37,36,38,39)        135.2671                                         !
 ! D98   D(37,36,38,40)         17.2879                                         !
 ! D99   D(37,36,38,41)       -105.1826                                         !
 ! D100  D(36,38,40,44)         -8.3987                                         !
 ! D101  D(36,38,40,57)        171.862                                          !
 ! D102  D(39,38,40,44)       -124.8836                                         !
 ! D103  D(39,38,40,57)         55.3771                                         !
 ! D104  D(41,38,40,44)        114.3703                                         !
 ! D105  D(41,38,40,57)        -65.3689                                         !
 ! D106  D(36,38,41,42)       -178.5484                                         !
 ! D107  D(36,38,41,43)         65.1429                                         !
 ! D108  D(36,38,41,45)        -56.7047                                         !
 ! D109  D(39,38,41,42)        -59.6013                                         !
 ! D110  D(39,38,41,43)       -175.91                                           !
 ! D111  D(39,38,41,45)         62.2423                                         !
 ! D112  D(40,38,41,42)         61.8596                                         !
 ! D113  D(40,38,41,43)        -54.4491                                         !
 ! D114  D(40,38,41,45)       -176.2968                                         !
 ! D115  D(38,40,57,58)          3.6374                                         !
 ! D116  D(38,40,57,59)        177.8315                                         !
 ! D117  D(44,40,57,58)       -176.0941                                         !
 ! D118  D(44,40,57,59)         -1.9                                            !
 ! D119  D(38,41,45,46)        -79.2682                                         !
 ! D120  D(38,41,45,48)         95.1813                                         !
 ! D121  D(42,41,45,46)         41.7426                                         !
 ! D122  D(42,41,45,48)       -143.8079                                         !
 ! D123  D(43,41,45,46)        160.1067                                         !
 ! D124  D(43,41,45,48)        -25.4437                                         !
 ! D125  D(41,45,46,47)         -5.7621                                         !
 ! D126  D(41,45,46,50)        172.4903                                         !
 ! D127  D(48,45,46,47)        179.6953                                         !
 ! D128  D(48,45,46,50)         -2.0523                                         !
 ! D129  D(41,45,48,49)          5.5273                                         !
 ! D130  D(41,45,48,52)       -172.4479                                         !
 ! D131  D(46,45,48,49)       -179.9186                                         !
 ! D132  D(46,45,48,52)          2.1062                                         !
 ! D133  D(45,46,50,51)       -179.1193                                         !
 ! D134  D(45,46,50,56)          0.1224                                         !
 ! D135  D(47,46,50,51)         -0.8561                                         !
 ! D136  D(47,46,50,56)        178.3856                                         !
 ! D137  D(45,48,52,53)        178.2081                                         !
 ! D138  D(45,48,52,56)         -0.233                                          !
 ! D139  D(49,48,52,53)          0.2236                                         !
 ! D140  D(49,48,52,56)       -178.2175                                         !
 ! D141  D(46,50,56,52)          1.8249                                         !
 ! D142  D(46,50,56,54)       -173.9927                                         !
 ! D143  D(51,50,56,52)       -178.919                                          !
 ! D144  D(51,50,56,54)          5.2634                                         !
 ! D145  D(48,52,56,50)         -1.7721                                         !
 ! D146  D(48,52,56,54)        173.9533                                         !
 ! D147  D(53,52,56,50)        179.792                                          !
 ! D148  D(53,52,56,54)         -4.4826                                         !
 ! D149  D(55,54,56,50)       -118.9729                                         !
 ! D150  D(55,54,56,52)         65.1718                                         !
 ! D151  D(40,57,59,60)         34.3894                                         !
 ! D152  D(40,57,59,61)        -82.686                                          !
 ! D153  D(40,57,59,62)        153.9755                                         !
 ! D154  D(58,57,59,60)       -151.3019                                         !
 ! D155  D(58,57,59,61)         91.6227                                         !
 ! D156  D(58,57,59,62)        -31.7158                                         !
 ! D157  D(57,59,61,65)       -105.0462                                         !
 ! D158  D(57,59,61,77)         72.5843                                         !
 ! D159  D(60,59,61,65)        139.3774                                         !
 ! D160  D(60,59,61,77)        -42.9921                                         !
 ! D161  D(62,59,61,65)         17.2997                                         !
 ! D162  D(62,59,61,77)       -165.0698                                         !
 ! D163  D(57,59,62,63)        -48.0486                                         !
 ! D164  D(57,59,62,64)         68.8505                                         !
 ! D165  D(57,59,62,66)       -169.348                                          !
 ! D166  D(60,59,62,63)         69.1742                                         !
 ! D167  D(60,59,62,64)       -173.9268                                         !
 ! D168  D(60,59,62,66)        -52.1252                                         !
 ! D169  D(61,59,62,63)       -169.6188                                         !
 ! D170  D(61,59,62,64)        -52.7198                                         !
 ! D171  D(61,59,62,66)         69.0818                                         !
 ! D172  D(59,61,77,78)          1.6692                                         !
 ! D173  D(59,61,77,79)       -173.1061                                         !
 ! D174  D(65,61,77,78)        179.2606                                         !
 ! D175  D(65,61,77,79)          4.4854                                         !
 ! D176  D(59,62,66,67)       -109.3889                                         !
 ! D177  D(59,62,66,69)         70.6229                                         !
 ! D178  D(63,62,66,67)        130.6256                                         !
 ! D179  D(63,62,66,69)        -49.3627                                         !
 ! D180  D(64,62,66,67)         11.7548                                         !
 ! D181  D(64,62,66,69)       -168.2334                                         !
 ! D182  D(62,66,67,68)          1.6407                                         !
 ! D183  D(62,66,67,71)       -179.1781                                         !
 ! D184  D(69,66,67,68)       -178.3709                                         !
 ! D185  D(69,66,67,71)          0.8103                                         !
 ! D186  D(62,66,69,70)          0.4207                                         !
 ! D187  D(62,66,69,73)        179.8254                                         !
 ! D188  D(67,66,69,70)       -179.5678                                         !
 ! D189  D(67,66,69,73)         -0.1631                                         !
 ! D190  D(66,67,71,72)        179.9198                                         !
 ! D191  D(66,67,71,75)         -0.8016                                         !
 ! D192  D(68,67,71,72)         -0.9063                                         !
 ! D193  D(68,67,71,75)        178.3723                                         !
 ! D194  D(66,69,73,74)       -179.9963                                         !
 ! D195  D(66,69,73,75)         -0.4956                                         !
 ! D196  D(70,69,73,74)         -0.5908                                         !
 ! D197  D(70,69,73,75)        178.9099                                         !
 ! D198  D(67,71,75,73)          0.1342                                         !
 ! D199  D(67,71,75,76)       -179.5992                                         !
 ! D200  D(72,71,75,73)        179.4105                                         !
 ! D201  D(72,71,75,76)         -0.3228                                         !
 ! D202  D(69,73,75,71)          0.5096                                         !
 ! D203  D(69,73,75,76)       -179.757                                          !
 ! D204  D(74,73,75,71)       -179.9905                                         !
 ! D205  D(74,73,75,76)         -0.2571                                         !
 ! D206  D(61,77,79,80)         29.8314                                         !
 ! D207  D(61,77,79,81)        -86.6935                                         !
 ! D208  D(61,77,79,82)        150.1487                                         !
 ! D209  D(78,77,79,80)       -144.9226                                         !
 ! D210  D(78,77,79,81)         98.5525                                         !
 ! D211  D(78,77,79,82)        -24.6053                                         !
 ! D212  D(77,79,81,86)       -111.7342                                         !
 ! D213  D(77,79,81,87)         67.4037                                         !
 ! D214  D(80,79,81,86)        132.6049                                         !
 ! D215  D(80,79,81,87)        -48.2572                                         !
 ! D216  D(82,79,81,86)         10.7257                                         !
 ! D217  D(82,79,81,87)       -170.1364                                         !
 ! D218  D(77,79,82,83)       -177.5741                                         !
 ! D219  D(77,79,82,84)        -57.2534                                         !
 ! D220  D(77,79,82,85)         64.0677                                         !
 ! D221  D(80,79,82,83)        -59.9322                                         !
 ! D222  D(80,79,82,84)         60.3885                                         !
 ! D223  D(80,79,82,85)       -178.2904                                         !
 ! D224  D(81,79,82,83)         60.1847                                         !
 ! D225  D(81,79,82,84)       -179.4947                                         !
 ! D226  D(81,79,82,85)        -58.1736                                         !
 ! D227  D(79,81,87,88)         -0.6284                                         !
 ! D228  D(79,81,87,89)       -171.3392                                         !
 ! D229  D(86,81,87,88)        178.4858                                         !
 ! D230  D(86,81,87,89)          7.775                                          !
 ! D231  D(81,87,89,90)         32.1011                                         !
 ! D232  D(81,87,89,91)        -83.8734                                         !
 ! D233  D(81,87,89,92)        152.6362                                         !
 ! D234  D(88,87,89,90)       -138.5553                                         !
 ! D235  D(88,87,89,91)        105.4702                                         !
 ! D236  D(88,87,89,92)        -18.0202                                         !
 ! D237  D(87,89,91,95)       -106.2025                                         !
 ! D238  D(87,89,91,106)        72.9355                                         !
 ! D239  D(90,89,91,95)        138.5325                                         !
 ! D240  D(90,89,91,106)       -42.3294                                         !
 ! D241  D(92,89,91,95)         17.1488                                         !
 ! D242  D(92,89,91,106)      -163.7132                                         !
 ! D243  D(87,89,92,93)        -42.0688                                         !
 ! D244  D(87,89,92,94)         74.8881                                         !
 ! D245  D(87,89,92,96)       -163.7751                                         !
 ! D246  D(90,89,92,93)         75.9996                                         !
 ! D247  D(90,89,92,94)       -167.0436                                         !
 ! D248  D(90,89,92,96)        -45.7067                                         !
 ! D249  D(91,89,92,93)       -164.3898                                         !
 ! D250  D(91,89,92,94)        -47.4329                                         !
 ! D251  D(91,89,92,96)         73.9039                                         !
 ! D252  D(89,91,106,107)       -6.2811                                         !
 ! D253  D(89,91,106,108)     -168.9294                                         !
 ! D254  D(95,91,106,107)      172.8477                                         !
 ! D255  D(95,91,106,108)       10.1994                                         !
 ! D256  D(89,92,96,97)        -43.0368                                         !
 ! D257  D(89,92,96,98)         75.9986                                         !
 ! D258  D(89,92,96,102)      -159.8996                                         !
 ! D259  D(93,92,96,97)       -164.2124                                         !
 ! D260  D(93,92,96,98)        -45.177                                          !
 ! D261  D(93,92,96,102)        78.9247                                         !
 ! D262  D(94,92,96,97)         77.1807                                         !
 ! D263  D(94,92,96,98)       -163.784                                          !
 ! D264  D(94,92,96,102)       -39.6822                                         !
 ! D265  D(92,96,98,99)         62.8419                                         !
 ! D266  D(92,96,98,100)      -176.7395                                         !
 ! D267  D(92,96,98,101)       -57.1287                                         !
 ! D268  D(97,96,98,99)       -178.289                                          !
 ! D269  D(97,96,98,100)       -57.8704                                         !
 ! D270  D(97,96,98,101)        61.7404                                         !
 ! D271  D(102,96,98,99)       -61.6128                                         !
 ! D272  D(102,96,98,100)       58.8058                                         !
 ! D273  D(102,96,98,101)      178.4166                                         !
 ! D274  D(92,96,102,103)      -61.7852                                         !
 ! D275  D(92,96,102,104)      178.5447                                         !
 ! D276  D(92,96,102,105)       58.5254                                         !
 ! D277  D(97,96,102,103)     -179.4445                                         !
 ! D278  D(97,96,102,104)       60.8854                                         !
 ! D279  D(97,96,102,105)      -59.1338                                         !
 ! D280  D(98,96,102,103)       62.9005                                         !
 ! D281  D(98,96,102,104)      -56.7696                                         !
 ! D282  D(98,96,102,105)     -176.7889                                         !
 ! D283  D(91,106,108,109)      32.1307                                         !
[...]
 Alpha virt. eigenvalues --    3.32861   3.32953   3.33376   3.33987   3.35518
 Alpha virt. eigenvalues --    3.35820   3.36112   3.37289   3.37345   3.37947
 Alpha virt. eigenvalues --    3.38103   3.38513   3.39861   3.40186   3.40458
 Alpha virt. eigenvalues --    3.40624   3.41421   3.41636   3.41712   3.42207
 Alpha virt. eigenvalues --    3.42531   3.42745   3.43292   3.43496   3.43807
 Alpha virt. eigenvalues --    3.43949   3.44287   3.44931   3.45073   3.45693
 Alpha virt. eigenvalues --    3.45863   3.47107   3.47247   3.47959   3.48051
 Alpha virt. eigenvalues --    3.48270   3.49377   3.49617   3.50267   3.50695
 Alpha virt. eigenvalues --    3.51192   3.51281   3.51912   3.52328   3.53536
 Alpha virt. eigenvalues --    3.53829   3.53877   3.54139   3.54447   3.54675
 Alpha virt. eigenvalues --    3.57131   3.58484   3.65595   3.68647   3.72780
 Alpha virt. eigenvalues --    3.75610   3.84716   3.88188   3.92478   3.92727
 Alpha virt. eigenvalues --    3.94440   3.99192   3.99280   4.00025   4.01637
 Alpha virt. eigenvalues --    4.02002   4.04205   4.04606   4.05580   4.06614
 Alpha virt. eigenvalues --    4.07099   4.07708   4.08411   4.08881   4.09293
 Alpha virt. eigenvalues --    4.10133   4.10846   4.11213   4.11250   4.12286
 Alpha virt. eigenvalues --    4.12325   4.13531   4.16097   4.16871   4.17075
 Alpha virt. eigenvalues --    4.17308   4.17475   4.17884   4.18353   4.18617
 Alpha virt. eigenvalues --    4.20438   4.21364   4.22753   4.23938   4.24138
 Alpha virt. eigenvalues --    4.25029   4.27371   4.27991   4.29772   4.30600
 Alpha virt. eigenvalues --    4.31119   4.32626   4.33801   4.34479   4.36154
 Alpha virt. eigenvalues --    4.37661   4.38964   4.39463   4.39890   4.40059
 Alpha virt. eigenvalues --    4.40838   4.42108   4.42619   4.42894   4.43068
 Alpha virt. eigenvalues --    4.43783   4.44500   4.44876   4.45696   4.47081
 Alpha virt. eigenvalues --    4.48876   4.49140   4.50212   4.50849   4.51837
 Alpha virt. eigenvalues --    4.52436   4.53812   4.54845   4.56112   4.56768
 Alpha virt. eigenvalues --    4.58381   4.58537   4.59976   4.60887   4.61884
 Alpha virt. eigenvalues --    4.61927   4.62297   4.63539   4.65347   4.66023
 Alpha virt. eigenvalues --    4.67251   4.68806   4.69367   4.71478   4.72459
 Alpha virt. eigenvalues --    4.73183   4.73940   4.75841   4.76319   4.76593
 Alpha virt. eigenvalues --    4.79051   4.79584   4.80049   4.82333
          Condensed to atoms (all electrons):
 Mulliken charges:
               1
     1  N   -0.591443
     2  H    0.337955
     3  H    0.355888
     4  H    0.376828
     5  C   -0.081174
     6  H    0.192298
     7  C    0.636387
     8  C   -0.281093
     9  H    0.163285
    10  H    0.211750
    11  O   -0.537661
    12  C    0.625736
    13  O   -0.486765
    14  O   -0.461694
    15  N   -0.505053
    16  H    0.310877
    17  C   -0.044163
    18  H    0.156984
    19  C    0.645552
    20  C   -0.273528
    21  H    0.143063
    22  H    0.132066
    23  O   -0.551106
    24  C    0.102979
    25  C   -0.133304
    26  H    0.105715
    27  C   -0.132637
    28  H    0.099996
    29  C   -0.134267
    30  H    0.115660
    31  C   -0.126727
    32  H    0.086957
    33  O   -0.549797
    34  H    0.326584
    35  C    0.328862
    36  N   -0.529563
    37  H    0.289486
    38  C   -0.018309
    39  H    0.154553
    40  C    0.627039
    41  C   -0.247598
    42  H    0.115143
    43  H    0.126694
    44  O   -0.563317
    45  C    0.135787
    46  C   -0.093113
    47  H    0.097764
    48  C   -0.121291
    49  H    0.106745
    50  C   -0.089414
    51  H    0.116651
    52  C   -0.089526
    53  H    0.097492
    54  O   -0.611728
    55  H    0.347348
    56  C    0.249590
    57  N   -0.526192
    58  H    0.276748
    59  C   -0.023786
    60  H    0.150384
    61  C    0.629493
    62  C   -0.256840
    63  H    0.106876
    64  H    0.124758
    65  O   -0.539580
    66  C    0.107433
    67  C   -0.112842
    68  H    0.102174
    69  C   -0.120696
    70  H    0.071205
    71  C   -0.089204
    72  H    0.106215
    73  C   -0.086858
    74  H    0.098069
    75  C   -0.079018
    76  H    0.107964
    77  N   -0.521508
    78  H    0.294286
    79  C   -0.032602
    80  H    0.142031
    81  C    0.622185
    82  C   -0.319552
    83  H    0.138528
    84  H    0.090127
    85  H    0.136186
    86  O   -0.546701
    87  N   -0.536185
    88  H    0.297164
    89  C   -0.019909
    90  H    0.132715
    91  C    0.629142
    92  C   -0.187797
    93  H    0.099492
    94  H    0.113055
    95  O   -0.555738
    96  C   -0.055274
    97  H    0.113424
    98  C   -0.327711
    99  H    0.086772
   100  H    0.138620
   101  H    0.079357
   102  C   -0.326491
   103  H    0.083319
   104  H    0.123258
   105  H    0.101349
   106  N   -0.530226
   107  H    0.301550
   108  C   -0.021369
   109  H    0.129022
   110  C    0.626785
   111  C   -0.334087
   112  H    0.155929
   113  H    0.129099
   114  H    0.095178
   115  O   -0.557657
   116  N   -0.525429
   117  H    0.304728
   118  C   -0.061214
   119  H    0.139182
   120  C    0.634094
   121  C   -0.235429
   122  H    0.144082
   123  H    0.141427
   124  O   -0.556166
   125  C    0.292615
   126  C   -0.023561
   127  H    0.090630
   128  N   -0.536551
   129  H    0.276079
   130  C    0.256922
   131  H    0.111732
   132  N   -0.449234
   133  N   -0.524133
   134  H    0.305212
   135  C   -0.033934
   136  H    0.114452
   137  C    0.631989
   138  C    0.149920
   139  H    0.135196
   140  O   -0.545553
   141  C   -0.355536
   142  H    0.178306
   143  H    0.079345
   144  H    0.116806
   145  O   -0.553276
   146  H    0.299445
   147  N   -0.540204
   148  H    0.294164
   149  C    0.003335
   150  H    0.132486
   151  C    0.615003
   152  C   -0.070295
   153  H    0.109037
   154  O   -0.550284
   155  C   -0.322044
   156  H    0.094649
   157  H    0.132082
   158  H    0.097778
   159  C   -0.323912
   160  H    0.099924
   161  H    0.100329
   162  H    0.106035
   163  N   -0.562908
   164  H    0.311651
   165  C    0.023324
   166  H    0.129788
   167  C    0.566238
   168  C   -0.193318
   169  H    0.129817
   170  H    0.098758
   171  O   -0.528596
   172  C   -0.191068
   173  H    0.092037
   174  H    0.129829
   175  C   -0.075402
   176  H    0.140613
   177  H    0.107208
   178  N   -0.523447
   179  H    0.261151
   180  N   -0.666924
   181  H    0.232509
   182  H    0.391128
   183  N   -0.631315
   184  H    0.271328
   185  H    0.271942
   186  C    0.665205
   187  O   -0.475401
   188  H    0.348110
 Sum of Mulliken charges =   1.00000
 Mulliken charges with hydrogens summed into heavy atoms:
               1
     1  N    0.479229
     5  C    0.111125
     7  C    0.636387
     8  C    0.093942
    11  O   -0.537661
    12  C    0.625736
    13  O   -0.486765
    14  O   -0.113585
    15  N   -0.194176
    17  C    0.112821
    19  C    0.645552
    20  C    0.001601
    23  O   -0.551106
    24  C    0.102979
    25  C   -0.027589
    27  C   -0.032642
    29  C   -0.018607
    31  C   -0.039771
    33  O   -0.223214
    35  C    0.328862
    36  N   -0.240077
    38  C    0.136244
    40  C    0.627039
    41  C   -0.005761
    44  O   -0.563317
    45  C    0.135787
    46  C    0.004651
    48  C   -0.014545
    50  C    0.027237
    52  C    0.007967
    54  O   -0.264380
    56  C    0.249590
    57  N   -0.249444
    59  C    0.126598
    61  C    0.629493
    62  C   -0.025206
    65  O   -0.539580
    66  C    0.107433
    67  C   -0.010668
    69  C   -0.049490
    71  C    0.017011
    73  C    0.011212
    75  C    0.028946
    77  N   -0.227222
    79  C    0.109428
    81  C    0.622185
    82  C    0.045288
    86  O   -0.546701
    87  N   -0.239021
    89  C    0.112805
    91  C    0.629142
    92  C    0.024750
    95  O   -0.555738
    96  C    0.058150
    98  C   -0.022963
   102  C   -0.018565
   106  N   -0.228677
   108  C    0.107653
   110  C    0.626785
   111  C    0.046120
   115  O   -0.557657
   116  N   -0.220701
   118  C    0.077969
   120  C    0.634094
   121  C    0.050081
   124  O   -0.556166
   125  C    0.292615
   126  C    0.067069
   128  N   -0.260472
   130  C    0.368654
   132  N   -0.449234
   133  N   -0.218921
   135  C    0.080518
   137  C    0.631989
   138  C    0.285116
   140  O   -0.545553
   141  C    0.018922
   145  O   -0.253830
   147  N   -0.246040
   149  C    0.135821
   151  C    0.615003
   152  C    0.038743
   154  O   -0.550284
   155  C    0.002466
   159  C   -0.017625
   163  N   -0.251257
   165  C    0.153112
   167  C    0.566238
   168  C    0.035257
   171  O   -0.137468
   172  C    0.030798
   175  C    0.172419
   178  N   -0.262296
   180  N   -0.434415
   183  N   -0.088046
   186  C    0.665205
   187  O   -0.475401
 Electronic spatial extent (au):  <R**2>=         254515.4388
 Charge=              1.0000 electrons
 Dipole moment (field-independent basis, Debye):
    X=            -31.0714    Y=            -25.5751    Z=            -37.6914  Tot=             55.1377
 Quadrupole moment (field-independent basis, Debye-Ang):
   XX=            -85.8679   YY=           -472.4542   ZZ=           -294.4298
   XY=            221.8967   XZ=            273.0061   YZ=            135.4862
 Traceless Quadrupole moment (field-independent basis, Debye-Ang):
   XX=            198.3827   YY=           -188.2036   ZZ=            -10.1792
   XY=            221.8967   XZ=            273.0061   YZ=            135.4862
 Octapole moment (field-independent basis, Debye-Ang**2):
  XXX=           1163.8695  YYY=          -1508.0930  ZZZ=          -4416.3296  XYY=           -197.2312
  XXY=            113.6403  XXZ=          -2562.7938  XZZ=          -2509.2341  YZZ=          -1370.3385
  YYZ=           -963.3841  XYZ=           -990.0503
 Hexadecapole moment (field-independent basis, Debye-Ang**3):
 XXXX=         -73771.0884 YYYY=         -90371.3513 ZZZZ=         -53916.4613 XXXY=         -12505.5636
 XXXZ=         -11682.8437 YYYX=         -44309.9113 YYYZ=         -23155.6798 ZZZX=         -15698.5901
 ZZZY=         -15755.1753 XXYY=         -19603.1624 XXZZ=         -18948.8916 YYZZ=         -23583.0665
 XXYZ=           4380.3189 YYXZ=          -5769.4605 ZZXY=          -8724.7010
 N-N= 1.799271968906D+04 E-N=-4.677618183487D+04  KE= 4.606512373264D+03
 Unable to Open any file for archive entry.
 1\1\GINC-LAC-304\SP\RB3LYP\6-31G(d,p)\C64H91N16O17(1+)\KENGMITH\09-Sep
 -2022\0\\# B3LYP/6-31G** empiricaldispersion=gd3bj guess=read geom=che
 ck nosymm integral(ultrafinegrid)\\Candidate Structure: Conf:306 Charg
 e calc in gas phase\\1,1\N,0,-9.0299109525,-3.7988087932,-9.2202018523
 \H,0,-9.689925929,-3.8040978851,-9.9968408418\H,0,-8.8227328608,-2.820
 8081705,-8.8788492103\H,0,-8.1065076673,-4.189855025,-9.5265903681\C,0
 ,-9.5715168684,-4.4464734097,-7.9728208122\H,0,-10.6440545754,-4.61206
 25469,-8.0909725437\C,0,-9.2983529495,-3.3724002122,-6.8809693021\C,0,
 -8.8576378355,-5.7807666204,-7.7067607921\H,0,-8.8422956594,-6.3862618
 547,-8.6209573179\H,0,-7.8281606916,-5.6200318421,-7.3821613791\O,0,-8
 .6927479204,-2.3512375085,-7.2309819232\C,0,-9.5818756637,-6.569765472
 5,-6.6375688487\O,0,-10.6937435203,-6.2785521041,-6.2300126228\O,0,-8.
 8784129728,-7.6105591861,-6.205795269\N,0,-9.6994507756,-3.6234123189,
 -5.6280125002\H,0,-10.1264147371,-4.5312319285,-5.4685983687\C,0,-8.90
 40696729,-3.085049731,-4.5278105752\H,0,-8.7670142269,-2.0146021088,-4
 .6958267929\C,0,-7.541124182,-3.8135940469,-4.5793843227\C,0,-9.595444
 9146,-3.3297130846,-3.1617260466\H,0,-10.6205763678,-2.953508648,-3.23
 27868791\H,0,-9.0839581449,-2.7166138826,-2.4137542858\O,0,-7.40423244
 29,-4.8448822,-5.2320675953\C,0,-9.5656961391,-4.7835484853,-2.7501212
 446\C,0,-10.5357553616,-5.6860896505,-3.201002551\H,0,-11.3939176955,-
 5.3263005278,-3.7606753642\C,0,-8.5052455376,-5.2833872493,-1.98221220
 73\H,0,-7.7562504548,-4.5992776051,-1.593367643\C,0,-10.4328209626,-7.
 0503838275,-2.9435109006\H,0,-11.1955278468,-7.7434230081,-3.281887636
 2\C,0,-8.3922019839,-6.6430688274,-1.7081215554\H,0,-7.5653130671,-7.0
 114949181,-1.1059728705\O,0,-9.2888175868,-8.881119657,-1.998994471\H,
 0,-8.5515035877,-9.0905868948,-1.4103465483\C,0,-9.3504024162,-7.53643
 14858,-2.2027007479\N,0,-6.5461186385,-3.2650812599,-3.8494200316\H,0,
 -6.7374154506,-2.534025552,-3.1714167597\C,0,-5.3143571089,-3.99089553
 77,-3.6070880953\H,0,-5.5264899842,-5.0578525773,-3.7330745678\C,0,-4.
 9143181922,-3.7048731005,-2.1541580943\C,0,-4.1895121787,-3.5844561835
 ,-4.6024872819\H,0,-3.2947697486,-4.1796305751,-4.390790057\H,0,-3.928
 7979919,-2.5365503752,-4.4238494899\O,0,-5.5223570478,-2.8537910272,-1
 .4926751478\C,0,-4.629068256,-3.7864023009,-6.031549002\C,0,-4.6133894
 43,-5.0613344378,-6.6090706764\H,0,-4.1947668397,-5.8978295866,-6.0575
 442939\C,0,-5.1670447735,-2.7244623407,-6.7631127847\H,0,-5.1864337548
 ,-1.7290327458,-6.3321434235\C,0,-5.1596138037,-5.2860574944,-7.869652
 5462\H,0,-5.163576065,-6.2737137955,-8.3171548347\C,0,-5.7193378952,-2
 .931611183,-8.0260543573\H,0,-6.1603434304,-2.1050019075,-8.5729749803
 \O,0,-6.3881984433,-4.4825114486,-9.7740041818\H,0,-5.9477338622,-4.00
 62790244,-10.4926295456\C,0,-5.7254102127,-4.216427927,-8.5578384189\N
 ,0,-3.8833264822,-4.4182802317,-1.6646074703\H,0,-3.3861864999,-5.0575
 791583,-2.2685885845\C,0,-3.3594170283,-4.2194164661,-0.3055119551\H,0
 ,-4.2178488812,-3.9654548574,0.3219216863\C,0,-2.3815805643,-3.0256867
 438,-0.3143785876\C,0,-2.6943889609,-5.5007129498,0.2004831728\H,0,-3.
 3812804671,-6.3323576961,0.0037046352\H,0,-1.7797210978,-5.6711399485,
 -0.3748994964\O,0,-1.1605461411,-3.1763516621,-0.2553185707\C,0,-2.367
 8336133,-5.4388328417,1.6764197314\C,0,-1.0435481932,-5.3452664569,2.1
 145328418\H,0,-0.24470101,-5.2899397419,1.382767858\C,0,-3.3953974355,
 -5.4750761386,2.6268158453\H,0,-4.4298946078,-5.5548796141,2.299883784
 3\C,0,-0.7507664123,-5.3059468107,3.477255684\H,0,0.281230422,-5.23456
 67235,3.8041344323\C,0,-3.1062797022,-5.4223674502,3.9894833297\H,0,-3
 .9122959446,-5.4513568373,4.7158087278\C,0,-1.7803463255,-5.3429267719
 ,4.4179172331\H,0,-1.551601946,-5.3057193368,5.4777965479\N,0,-2.98226
 52983,-1.8229661378,-0.4427365874\H,0,-3.9948649461,-1.7908688216,-0.4
 951026323\C,0,-2.2245187941,-0.5829505784,-0.6205460914\H,0,-1.3017958
 924,-0.8551346553,-1.1442049228\C,0,-1.8344081977,-0.0055271236,0.7553
 437676\C,0,-3.0341971516,0.416723927,-1.4334422298\H,0,-2.4520629557,1
 .3241507123,-1.6019871698\H,0,-3.30779873,-0.0151956573,-2.400394062\H
 ,0,-3.9385306724,0.7081178518,-0.8937126725\O,0,-2.3250825609,1.046222
 2971,1.1762551653\N,0,-0.9441784604,-0.749472726,1.443668931\H,0,-0.61
 13564071,-1.6144274081,1.0262909302\C,0,-0.6022339993,-0.4552013319,2.
 8386679911\H,0,-1.5043774678,-0.0383511563,3.2980897378\C,0,0.48844596
 4,0.6357736712,2.8796912267\C,0,-0.1584173842,-1.7141934284,3.57453679
 37\H,0,-0.8180374499,-2.5414515037,3.2917201431\H,0,0.8545288279,-1.96
 24445286,3.2415502775\O,0,1.6646528209,0.3864381107,3.1636226067\C,0,-
 0.1793147424,-1.5288834508,5.1030899251\H,0,0.246215492,-0.5454588628,
 5.3317875647\C,0,-1.6073154943,-1.5777105709,5.6593023917\H,0,-2.05830
 20688,-2.560406014,5.4765075901\H,0,-1.5945473995,-1.3860745901,6.7345
 232088\H,0,-2.256910356,-0.8255325962,5.1968305125\C,0,0.7060598816,-2
 .5653520276,5.7995747923\H,0,0.3480271038,-3.583251419,5.6086537909\H,
 0,0.6994525857,-2.4026779281,6.8806644909\H,0,1.7408123556,-2.49830734
 08,5.4481684848\N,0,0.0466463759,1.8723592075,2.5617279521\H,0,-0.9151
 002875,1.9515712777,2.2355300378\C,0,0.9680738767,2.982166224,2.314651
 9678\H,0,1.8764323355,2.5559701256,1.8719209399\C,0,1.3984013202,3.644
 0904288,3.6348912253\C,0,0.3517523392,4.0021402999,1.3694188052\H,0,1.
 0898867467,4.7733148256,1.1432060489\H,0,-0.5121694693,4.4857352752,1.
 8313402521\H,0,0.0400125405,3.5131763747,0.4421991924\O,0,1.0932684051
 ,4.8044374361,3.9265127723\N,0,2.1675912644,2.8692568351,4.4339659564\
 H,0,2.356687655,1.9113216468,4.137294882\C,0,2.776116049,3.4119219379,
 5.644363307\H,0,2.1180678613,4.217384154,5.9887216631\C,0,4.1176436049
 ,4.0649237727,5.2632378732\C,0,2.9343001214,2.3522384374,6.7292857998\
 H,0,3.3940279899,2.8382348208,7.5977892306\H,0,3.6551616761,1.59750891
 7,6.4011565654\O,0,5.2078617414,3.6287936161,5.6444226021\C,0,1.642034
 5356,1.6934394507,7.1040367985\C,0,1.3686697233,0.4941075607,7.7202781
 132\H,0,2.0773394268,-0.25940648,8.0335269492\N,0,0.3990301267,2.27848
 61696,6.9236472903\H,0,0.2173116849,3.1494027582,6.4471485684\C,0,-0.5
 413029093,1.4207210108,7.4228608737\H,0,-1.5993418791,1.6379315557,7.3
 890387596\N,0,0.0119669136,0.3333925187,7.9180210542\N,0,3.979359018,5
 .1171999165,4.4282574923\H,0,3.0408000361,5.3722058732,4.1305976707\C,
 0,5.1031154131,5.622501159,3.6507435334\H,0,5.7931180846,4.7825963733,
 3.4929850053\C,0,5.850933484,6.7035192673,4.4454495606\C,0,4.614064827
 7,6.1416227128,2.2890257389\H,0,3.9946426271,7.0259107974,2.4610716947
 \O,0,5.771876598,7.9006556178,4.1614321445\C,0,5.7730307346,6.49850265
 09,1.3663778074\H,0,6.3846435817,7.3025771521,1.7811476866\H,0,6.41524
 37742,5.6222593096,1.2020330283\H,0,5.3834917823,6.8217933688,0.397889
 6034\O,0,3.7375004379,5.1751102396,1.6905050039\H,0,4.2892725342,4.435
 5869578,1.399768285\N,0,6.5934986514,6.2211299782,5.4639412375\H,0,6.5
 470731718,5.2239131657,5.6558374002\C,0,7.3615252657,7.1075819407,6.33
 88827603\H,0,6.8284010628,8.0650388618,6.3506772391\C,0,8.7438378201,7
 .3238345322,5.6774915113\C,0,7.4687410027,6.5527553072,7.7653281141\H,
 0,8.1321320906,5.6799099755,7.7261714553\O,0,9.7878091349,6.8655174784
 ,6.1411976311\C,0,8.1171547034,7.5964509832,8.6834170996\H,0,7.4972897
 915,8.4993781458,8.7426941431\H,0,9.1088299749,7.87299146,8.3221704327
 \H,0,8.2216758841,7.1989975375,9.6976215445\C,0,6.0985397439,6.1257303
 104,8.3083002001\H,0,5.3918605625,6.9637887898,8.2861522489\H,0,6.1938
 819215,5.7981596781,9.3482126799\H,0,5.6623741335,5.3014566348,7.73817
 64357\N,0,8.6888333946,8.0053186784,4.5084864216\H,0,7.7928650946,8.30
 27503144,4.1265807555\C,0,9.8554948657,8.1154252733,3.6505059007\H,0,1
 0.6861887,8.5260102195,4.2323352023\C,0,9.4721476372,9.0663529866,2.50
 92423467\C,0,10.2884712741,6.7223703519,3.0966157382\H,0,9.967102943,5
 .9867617761,3.8352380578\H,0,9.7429921255,6.5108239153,2.1686325585\O,
 0,10.4366030226,9.8163653053,1.9913766779\C,0,11.8030443363,6.56631189
 7,2.9127368319\H,0,12.0540055711,5.4992933186,2.8980298155\H,0,12.2900
 313571,6.9834915494,3.7998826547\C,0,12.3907437015,7.2384819562,1.6533
 133432\H,0,11.760783486,8.0547536412,1.3047253688\H,0,12.4545290984,6.
 5241931787,0.8273824231\N,0,13.7339311369,7.7836158025,1.8535589326\H,
 0,14.45890483,7.0904758079,1.9855804425\N,0,12.8950662344,9.6358806184
 ,2.9917357252\H,0,13.1922336399,10.4852879104,3.4645770507\H,0,11.3371
 831768,9.7025352835,2.4486755077\N,0,15.2264476788,9.1588515621,2.9573
 637444\H,0,15.4074803414,10.0746233547,3.3426999183\H,0,15.9102606244,
 8.8880879424,2.2628665625\C,0,13.9029028179,8.9118891349,2.6181963975\
 O,0,8.3350130652,9.0932208515,2.0765574916\H,0,-9.3730947901,-8.015975
 8804,-5.4695662883\\Version=ES64L-G16RevC.01\HF=-4649.104591\RMSD=3.99
 4e-09\Dipole=-11.7396465,-10.635154,-16.0491651\Quadrupole=147.492702,
 -139.9247508,-7.5679513,164.9747716,202.9733549,100.7306453\PG=C01 [X(
 C64H91N16O17)]\\@
 The archive entry for this job was punched.


 THE WISE MAN HAS THE POWER TO REASON AWAY
 WHAT A FOOL BELIEVES.
                     - DOOBIE BROTHERS
 Job cpu time:       0 days  0 hours 19 minutes 50.6 seconds.
 Elapsed time:       0 days  0 hours  5 minutes  5.5 seconds.
 File lengths (MBytes):  RWF=   2128 Int=      0 D2E=      0 Chk=    336 Scr=     32
 Normal termination of Gaussian 16 at Fri Sep  9 20:45:54 2022.
