 Entering Gaussian System, Link 0=/opt/software/Gaussian/g16-AVX2-C.01/g16/g16
 Input=charge-conf-535.com
 Output=charge-conf-535.log
 Initial command:
 /opt/software/Gaussian/g16-AVX2-C.01/g16/l1.exe "/mnt/gs18/scratch/users/kengmith/Gau-63239.inp" -scrdir="/mnt/gs18/scratch/users/kengmith/"
 Entering Link 1 = /opt/software/Gaussian/g16-AVX2-C.01/g16/l1.exe PID=     63259.
  
 Copyright (c) 1988-2019, Gaussian, Inc.  All Rights Reserved.
  
 This is part of the Gaussian(R) 16 program.  It is based on
 the Gaussian(R) 09 system (copyright 2009, Gaussian, Inc.),
 the Gaussian(R) 03 system (copyright 2003, Gaussian, Inc.),
 the Gaussian(R) 98 system (copyright 1998, Gaussian, Inc.),
 the Gaussian(R) 94 system (copyright 1995, Gaussian, Inc.),
 the Gaussian 92(TM) system (copyright 1992, Gaussian, Inc.),
 the Gaussian 90(TM) system (copyright 1990, Gaussian, Inc.),
 the Gaussian 88(TM) system (copyright 1988, Gaussian, Inc.),
 the Gaussian 86(TM) system (copyright 1986, Carnegie Mellon
 University), and the Gaussian 82(TM) system (copyright 1983,
 Carnegie Mellon University). Gaussian is a federally registered
 trademark of Gaussian, Inc.
  
 This software contains proprietary and confidential information,
 including trade secrets, belonging to Gaussian, Inc.
  
 This software is provided under written license and may be
 used, copied, transmitted, or stored only in accord with that
 written license.
  
 The following legend is applicable only to US Government
 contracts under FAR:
  
                    RESTRICTED RIGHTS LEGEND
  
 Use, reproduction and disclosure by the US Government is
 subject to restrictions as set forth in subparagraphs (a)
 and (c) of the Commercial Computer Software - Restricted
 Rights clause in FAR 52.227-19.
  
 Gaussian, Inc.
 340 Quinnipiac St., Bldg. 40, Wallingford CT 06492
  
  
 ---------------------------------------------------------------
 Warning -- This program may not be used in any manner that
 competes with the business of Gaussian, Inc. or will provide
 assistance to any competitor of Gaussian, Inc.  The licensee
 of this program is prohibited from giving any competitor of
 Gaussian, Inc. access to this program.  By using this program,
 the user acknowledges that Gaussian, Inc. is engaged in the
 business of creating and licensing software in the field of
 computational chemistry and represents and warrants to the
 licensee that it is not a competitor of Gaussian, Inc. and that
 it will not use this program in any manner prohibited above.
 ---------------------------------------------------------------
  

 Cite this work as:
 Gaussian 16, Revision C.01,
 M. J. Frisch, G. W. Trucks, H. B. Schlegel, G. E. Scuseria, 
 M. A. Robb, J. R. Cheeseman, G. Scalmani, V. Barone, 
 G. A. Petersson, H. Nakatsuji, X. Li, M. Caricato, A. V. Marenich, 
 J. Bloino, B. G. Janesko, R. Gomperts, B. Mennucci, H. P. Hratchian, 
 J. V. Ortiz, A. F. Izmaylov, J. L. Sonnenberg, D. Williams-Young, 
 F. Ding, F. Lipparini, F. Egidi, J. Goings, B. Peng, A. Petrone, 
 T. Henderson, D. Ranasinghe, V. G. Zakrzewski, J. Gao, N. Rega, 
 G. Zheng, W. Liang, M. Hada, M. Ehara, K. Toyota, R. Fukuda, 
 J. Hasegawa, M. Ishida, T. Nakajima, Y. Honda, O. Kitao, H. Nakai, 
 T. Vreven, K. Throssell, J. A. Montgomery, Jr., J. E. Peralta, 
 F. Ogliaro, M. J. Bearpark, J. J. Heyd, E. N. Brothers, K. N. Kudin, 
 V. N. Staroverov, T. A. Keith, R. Kobayashi, J. Normand, 
 K. Raghavachari, A. P. Rendell, J. C. Burant, S. S. Iyengar, 
 J. Tomasi, M. Cossi, J. M. Millam, M. Klene, C. Adamo, R. Cammi, 
 J. W. Ochterski, R. L. Martin, K. Morokuma, O. Farkas, 
 J. B. Foresman, and D. J. Fox, Gaussian, Inc., Wallingford CT, 2019.
 
 ******************************************
 Gaussian 16:  ES64L-G16RevC.01  3-Jul-2019
                 3-Jun-2022 
 ******************************************
 %mem=8gb
 %nproc=4
 Will use up to    4 processors via shared memory.
 %chk=conf-535.chk
 ----------------------------------------------------------------------
 # B3LYP/6-31G* empiricaldispersion=gd3 guess=read geom=check nosymm in
 tegral(ultrafinegrid)
 ----------------------------------------------------------------------
 1/29=2,38=1,172=1/1;
 2/12=2,15=1,40=1/2;
 3/5=1,6=6,7=1,11=2,14=-4,25=1,30=1,74=-5,75=-5,116=-2,124=31/1,2,3;
 4/5=1/1;
 5/5=2,38=6/2;
 6/7=2,8=2,9=2,10=2,28=1/1;
 99/5=1,9=1/99;
 ------------------------------------------------------
 Candidate Structure: Conf:535 Charge calc in gas phase
 ------------------------------------------------------
 Structure from the checkpoint file:  "conf-535.chk"
 Charge =  1 Multiplicity = 1
 Redundant internal coordinates found in file.  (old form).
 N,0,-2.7185634239,-2.553984699,2.7851520529
 H,0,-3.377275578,-1.8447971253,2.468179088
 H,0,-2.8009583371,-3.3400683526,2.1398073343
 C,0,-1.3504819419,-2.0482272963,2.7390905741
 H,0,-1.3241011878,-1.1040395241,3.2995306797
 C,0,-0.8308970707,-1.839793434,1.297652908
 C,0,-0.428754815,-3.0755517271,3.4425456063
 H,0,-0.6439913835,-3.063903994,4.5153845475
 H,0,-0.6964803144,-4.0682263219,3.0714310446
 O,0,-0.6215516579,-2.8085755021,0.5800984737
 C,0,1.0275568492,-2.8328775394,3.161575223
 C,0,1.6948456043,-1.6739168607,3.2989647462
 H,0,1.396178633,-0.6976238589,3.6483616414
 C,0,1.9364772534,-3.8183421,2.5579562638
 C,0,3.1651220953,-3.2011831839,2.3185310277
 C,0,1.7743958524,-5.1568861652,2.2039610126
 H,0,0.82996033,-5.6669603761,2.3600427006
 N,0,3.0391019082,-1.7865174678,2.6951004356
 H,0,3.007877864,-1.2037960846,1.8120801096
 C,0,4.08282689,-5.1778050523,1.4119674568
 H,0,4.9082865502,-5.7233254796,0.9663516998
 C,0,4.2537826512,-3.8282066289,1.7466768298
 H,0,5.1904388773,-3.3121865367,1.5603824361
 C,0,2.8614108959,-5.8261736321,1.6352326954
 H,0,2.7565570043,-6.8698083637,1.355917218
 N,0,-0.6812852778,-0.5287471023,0.922498318
 H,0,-0.8720129224,0.154530016,1.6430825977
 C,0,0.0341132583,0.0047594729,-0.2416042432
 H,0,-0.3751176951,1.0098688944,-0.4009732241
 C,0,1.5214652229,0.1132004945,0.11740194
 C,0,-0.1257485649,-0.7935737339,-1.5593045108
 H,0,0.2604336231,-1.7961236423,-1.3632476284
 O,0,2.1911097608,-0.8953253325,0.3724155949
 C,0,0.7384283245,-0.1764437837,-2.6857005095
 H,0,1.7987694571,-0.2305497335,-2.4040548634
 H,0,0.6400561086,-0.8328000685,-3.5587373302
 C,0,-1.6056679046,-0.910179544,-1.9404509608
 H,0,-2.0839183495,0.0717638677,-2.0383407293
 H,0,-1.7038044358,-1.4263177326,-2.9013593689
 H,0,-2.1550065114,-1.4898122647,-1.1943267393
 C,0,0.4018540637,1.2582879306,-3.1136597303
 H,0,1.1095953098,1.5928421785,-3.8791975711
 H,0,0.4736416282,1.9735937946,-2.2827599159
 H,0,-0.6118181215,1.3357542987,-3.5202621546
 N,0,2.0562147263,1.3567072605,0.1303987367
 H,0,1.4808574668,2.1363831823,-0.1611011031
 C,0,3.5032163728,1.5814133623,0.1790591459
 H,0,3.9635812278,0.6318218912,-0.1175658469
 C,0,3.9111898596,1.7838169473,1.644516933
 C,0,3.9056911909,2.6781577995,-0.8117739183
 H,0,3.35441542,2.4676641363,-1.735285311
 H,0,3.5800100758,3.6595476407,-0.4441441886
 O,0,3.7462204761,0.9362191224,2.5037012605
 C,0,5.4047837482,2.6861933086,-1.1308360075
 H,0,5.7142837704,1.6577960949,-1.3491016111
 H,0,5.9842277999,3.0250220246,-0.2650709895
 C,0,5.7497351101,3.582341799,-2.3425130253
 H,0,5.6392203268,4.6379031036,-2.0742612451
 H,0,6.803634734,3.4401796199,-2.6077587168
 N,0,4.9256883204,3.3617076035,-3.5262684515
 H,0,4.0481735346,3.8665166115,-3.5177423701
 N,0,3.6743186112,1.9661903072,-4.9046298591
 H,0,3.732271358,1.1108526302,-5.4488645701
 H,0,3.5027163837,2.759220108,-5.5172539052
 N,0,5.6381710095,1.1088536971,-4.0138096799
 H,0,6.4136324613,1.3076693841,-3.3833867058
 C,0,4.8355957154,2.1030253158,-4.1216041356
 O,0,4.4542221596,2.9814852248,1.8925471391
 H,0,3.7889414804,-1.4171711134,3.2878071276
 H,0,4.6836916579,3.0193276845,2.8420579714
 Recover connectivity data from disk.
                           ----------------------------
                           !    Current Parameters    !
                           ! (Angstroms and Degrees)  !
 --------------------------                            --------------------------
 ! Name  Definition              Value                                          !
 --------------------------------------------------------------------------------
 ! R1    R(1,2)                  1.0185                                         !
 ! R2    R(1,3)                  1.0204                                         !
 ! R3    R(1,4)                  1.4593                                         !
 ! R4    R(4,5)                  1.0983                                         !
 ! R5    R(4,6)                  1.5463                                         !
 ! R6    R(4,7)                  1.5491                                         !
 ! R7    R(6,10)                 1.2236                                         !
 ! R8    R(6,26)                 1.3718                                         !
 ! R9    R(7,8)                  1.0943                                         !
 ! R10   R(7,9)                  1.0931                                         !
 ! R11   R(7,11)                 1.5029                                         !
 ! R12   R(11,12)                1.3444                                         !
 ! R13   R(11,14)                1.4702                                         !
 ! R14   R(12,13)                1.0791                                         !
 ! R15   R(12,18)                1.478                                          !
 ! R16   R(14,15)                1.3956                                         !
 ! R17   R(14,16)                1.394                                          !
 ! R18   R(15,18)                1.4693                                         !
 ! R19   R(15,22)                1.3803                                         !
 ! R20   R(16,17)                1.0847                                         !
 ! R21   R(16,24)                1.3975                                         !
 ! R22   R(18,19)                1.0584                                         !
 ! R23   R(18,69)                1.0247                                         !
 ! R24   R(20,21)                1.0851                                         !
 ! R25   R(20,22)                1.401                                          !
 ! R26   R(20,24)                1.4007                                         !
 ! R27   R(22,23)                1.0855                                         !
 ! R28   R(24,25)                1.0854                                         !
 ! R29   R(26,27)                1.0112                                         !
 ! R30   R(26,28)                1.4668                                         !
 ! R31   R(28,29)                1.0969                                         !
 ! R32   R(28,30)                1.5339                                         !
 ! R33   R(28,31)                1.5489                                         !
 ! R34   R(30,33)                1.2372                                         !
 ! R35   R(30,45)                1.3537                                         !
 ! R36   R(31,32)                1.0921                                         !
 ! R37   R(31,34)                1.548                                          !
 ! R38   R(31,37)                1.5327                                         !
 ! R39   R(34,35)                1.0984                                         !
 ! R40   R(34,36)                1.0967                                         !
 ! R41   R(34,41)                1.5346                                         !
 ! R42   R(37,38)                1.0966                                         !
 ! R43   R(37,39)                1.0952                                         !
 ! R44   R(37,40)                1.0929                                         !
 ! R45   R(41,42)                1.0949                                         !
 ! R46   R(41,43)                1.0987                                         !
 ! R47   R(41,44)                1.0949                                         !
 ! R48   R(45,46)                1.0119                                         !
 ! R49   R(45,47)                1.4652                                         !
 ! R50   R(47,48)                1.0962                                         !
 ! R51   R(47,49)                1.5346                                         !
 ! R52   R(47,50)                1.5319                                         !
 ! R53   R(49,53)                1.2181                                         !
 ! R54   R(49,68)                1.3382                                         !
 ! R55   R(50,51)                1.0959                                         !
 ! R56   R(50,52)                1.0974                                         !
 ! R57   R(50,54)                1.5327                                         !
 ! R58   R(54,55)                1.0959                                         !
 ! R59   R(54,56)                1.0955                                         !
 ! R60   R(54,57)                1.546                                          !
 ! R61   R(57,58)                1.0947                                         !
 ! R62   R(57,59)                1.096                                          !
 ! R63   R(57,60)                1.4591                                         !
 ! R64   R(60,61)                1.0124                                         !
 ! R65   R(60,67)                1.3953                                         !
 ! R66   R(62,63)                1.0155                                         !
 ! R67   R(62,64)                1.0167                                         !
 ! R68   R(62,67)                1.4073                                         !
 ! R69   R(65,66)                1.019                                          !
 ! R70   R(65,67)                1.2822                                         !
 ! R71   R(68,70)                0.9776                                         !
 ! A1    A(2,1,3)              106.7005                                         !
 ! A2    A(2,1,4)              110.8044                                         !
 ! A3    A(3,1,4)              108.8283                                         !
 ! A4    A(1,4,5)              107.7193                                         !
 ! A5    A(1,4,6)              113.0258                                         !
 ! A6    A(1,4,7)              108.2784                                         !
 ! A7    A(5,4,6)              110.5921                                         !
 ! A8    A(5,4,7)              108.9108                                         !
 ! A9    A(6,4,7)              108.2253                                         !
 ! A10   A(4,6,10)             119.8285                                         !
 ! A11   A(4,6,26)             114.8585                                         !
 ! A12   A(10,6,26)            125.2832                                         !
 ! A13   A(4,7,8)              108.73                                           !
 ! A14   A(4,7,9)              107.5985                                         !
 ! A15   A(4,7,11)             112.6175                                         !
 ! A16   A(8,7,9)              107.1188                                         !
 ! A17   A(8,7,11)             111.8494                                         !
 ! A18   A(9,7,11)             108.6935                                         !
 ! A19   A(7,11,12)            126.9465                                         !
 ! A20   A(7,11,14)            124.5812                                         !
 ! A21   A(12,11,14)           108.2361                                         !
 ! A22   A(11,12,13)           132.5062                                         !
 ! A23   A(11,12,18)           110.122                                          !
 ! A24   A(13,12,18)           116.9339                                         !
 ! A25   A(11,14,15)           108.5586                                         !
 ! A26   A(11,14,16)           132.5299                                         !
 ! A27   A(15,14,16)           118.9081                                         !
 ! A28   A(14,15,18)           107.8353                                         !
 ! A29   A(14,15,22)           124.369                                          !
 ! A30   A(18,15,22)           127.6738                                         !
 ! A31   A(14,16,17)           121.0806                                         !
 ! A32   A(14,16,24)           118.214                                          !
 ! A33   A(17,16,24)           120.7048                                         !
 ! A34   A(12,18,15)           104.8371                                         !
 ! A35   A(12,18,19)           105.7888                                         !
 ! A36   A(12,18,69)           113.6896                                         !
 ! A37   A(15,18,19)           108.5895                                         !
 ! A38   A(15,18,69)           115.6274                                         !
 ! A39   A(19,18,69)           107.8009                                         !
 ! A40   A(21,20,22)           119.3124                                         !
 ! A41   A(21,20,24)           119.7398                                         !
 ! A42   A(22,20,24)           120.9461                                         !
 ! A43   A(15,22,20)           116.1253                                         !
 ! A44   A(15,22,23)           122.3915                                         !
 ! A45   A(20,22,23)           121.4828                                         !
 ! A46   A(16,24,20)           121.4286                                         !
 ! A47   A(16,24,25)           119.3443                                         !
 ! A48   A(20,24,25)           119.2265                                         !
 ! A49   A(6,26,27)            115.4883                                         !
 ! A50   A(6,26,28)            128.1568                                         !
 ! A51   A(27,26,28)           114.3162                                         !
 ! A52   A(26,28,29)           105.4642                                         !
 ! A53   A(26,28,30)           108.2333                                         !
 ! A54   A(26,28,31)           115.9346                                         !
 ! A55   A(29,28,30)           109.329                                          !
 ! A56   A(29,28,31)           108.0701                                         !
 ! A57   A(30,28,31)           109.6101                                         !
 ! A58   A(28,30,33)           121.0281                                         !
 ! A59   A(28,30,45)           116.7589                                         !
 ! A60   A(33,30,45)           122.2115                                         !
 ! A61   A(28,31,32)           106.4946                                         !
 ! A62   A(28,31,34)           110.8497                                         !
 ! A63   A(28,31,37)           110.5134                                         !
 ! A64   A(32,31,34)           107.4089                                         !
 ! A65   A(32,31,37)           108.4362                                         !
 ! A66   A(34,31,37)           112.8558                                         !
 ! A67   A(31,34,35)           109.4311                                         !
 ! A68   A(31,34,36)           106.8929                                         !
 ! A69   A(31,34,41)           116.9493                                         !
 ! A70   A(35,34,36)           105.143                                          !
 ! A71   A(35,34,41)           109.2251                                         !
 ! A72   A(36,34,41)           108.5348                                         !
 ! A73   A(31,37,38)           112.0361                                         !
 ! A74   A(31,37,39)           109.9123                                         !
 ! A75   A(31,37,40)           110.8498                                         !
 ! A76   A(38,37,39)           107.7348                                         !
 ! A77   A(38,37,40)           108.4597                                         !
 ! A78   A(39,37,40)           107.6988                                         !
 ! A79   A(34,41,42)           109.8089                                         !
 ! A80   A(34,41,43)           112.5473                                         !
 ! A81   A(34,41,44)           111.8862                                         !
 ! A82   A(42,41,43)           106.7132                                         !
 ! A83   A(42,41,44)           108.4912                                         !
 ! A84   A(43,41,44)           107.173                                          !
 ! A85   A(30,45,46)           118.7135                                         !
 ! A86   A(30,45,47)           122.0964                                         !
 ! A87   A(46,45,47)           116.9333                                         !
 ! A88   A(45,47,48)           105.8381                                         !
 ! A89   A(45,47,49)           108.3307                                         !
 ! A90   A(45,47,50)           110.353                                          !
 ! A91   A(48,47,49)           105.13                                           !
 ! A92   A(48,47,50)           109.5628                                         !
 ! A93   A(49,47,50)           116.962                                          !
 ! A94   A(47,49,53)           123.0778                                         !
 ! A95   A(47,49,68)           113.7606                                         !
 ! A96   A(53,49,68)           123.1593                                         !
 ! A97   A(47,50,51)           105.9846                                         !
 ! A98   A(47,50,52)           110.2187                                         !
 ! A99   A(47,50,54)           113.2896                                         !
 ! A100  A(51,50,52)           107.7441                                         !
 ! A101  A(51,50,54)           108.5165                                         !
 ! A102  A(52,50,54)           110.8124                                         !
 ! A103  A(50,54,55)           108.2257                                         !
 ! A104  A(50,54,56)           110.7593                                         !
 ! A105  A(50,54,57)           112.6076                                         !
 ! A106  A(55,54,56)           107.353                                          !
 ! A107  A(55,54,57)           108.9552                                         !
 ! A108  A(56,54,57)           108.789                                          !
 ! A109  A(54,57,58)           110.1416                                         !
 ! A110  A(54,57,59)           109.2098                                         !
 ! A111  A(54,57,60)           114.9717                                         !
 ! A112  A(58,57,59)           106.3465                                         !
 ! A113  A(58,57,60)           106.7137                                         !
 ! A114  A(59,57,60)           109.093                                          !
 ! A115  A(57,60,61)           114.0345                                         !
 ! A116  A(57,60,67)           121.2672                                         !
 ! A117  A(61,60,67)           113.4182                                         !
 ! A118  A(63,62,64)           110.1028                                         !
 ! A119  A(63,62,67)           109.452                                          !
 ! A120  A(64,62,67)           113.4979                                         !
 ! A121  A(66,65,67)           112.1524                                         !
 ! A122  A(60,67,62)           112.235                                          !
 ! A123  A(60,67,65)           128.5465                                         !
 ! A124  A(62,67,65)           119.2022                                         !
 ! A125  A(49,68,70)           108.0544                                         !
 ! D1    D(2,1,4,5)             53.2836                                         !
 ! D2    D(2,1,4,6)            -69.1952                                         !
 ! D3    D(2,1,4,7)            170.9195                                         !
 ! D4    D(3,1,4,5)            170.3066                                         !
 ! D5    D(3,1,4,6)             47.8278                                         !
 ! D6    D(3,1,4,7)            -72.0575                                         !
 ! D7    D(1,4,6,10)           -68.6977                                         !
 ! D8    D(1,4,6,26)           109.4207                                         !
 ! D9    D(5,4,6,10)           170.4415                                         !
 ! D10   D(5,4,6,26)           -11.4401                                         !
 ! D11   D(7,4,6,10)            51.2181                                         !
 ! D12   D(7,4,6,26)          -130.6635                                         !
 ! D13   D(1,4,7,8)            -69.6742                                         !
 ! D14   D(1,4,7,9)             46.0235                                         !
 ! D15   D(1,4,7,11)           165.7858                                         !
 ! D16   D(5,4,7,8)             47.196                                          !
 ! D17   D(5,4,7,9)            162.8937                                         !
 ! D18   D(5,4,7,11)           -77.344                                          !
 ! D19   D(6,4,7,8)            167.4756                                         !
 ! D20   D(6,4,7,9)            -76.8267                                         !
 ! D21   D(6,4,7,11)            42.9356                                         !
 ! D22   D(4,6,26,27)            3.5473                                         !
 ! D23   D(4,6,26,28)          166.2342                                         !
 ! D24   D(10,6,26,27)        -178.4524                                         !
 ! D25   D(10,6,26,28)         -15.7655                                         !
 ! D26   D(4,7,11,12)           51.3142                                         !
 ! D27   D(4,7,11,14)         -122.4347                                         !
 ! D28   D(8,7,11,12)          -71.4946                                         !
 ! D29   D(8,7,11,14)          114.7565                                         !
 ! D30   D(9,7,11,12)          170.4408                                         !
 ! D31   D(9,7,11,14)           -3.3081                                         !
 ! D32   D(7,11,12,13)           2.121                                          !
 ! D33   D(7,11,12,18)        -169.8414                                         !
 ! D34   D(14,11,12,13)        176.7048                                         !
 ! D35   D(14,11,12,18)          4.7425                                         !
 ! D36   D(7,11,14,15)         173.771                                          !
 ! D37   D(7,11,14,16)          -5.5296                                         !
 ! D38   D(12,11,14,15)         -0.972                                          !
 ! D39   D(12,11,14,16)        179.7274                                         !
 ! D40   D(11,12,18,15)         -6.557                                          !
 ! D41   D(11,12,18,19)        108.1273                                         !
 ! D42   D(11,12,18,69)       -133.774                                          !
 ! D43   D(13,12,18,15)       -179.9175                                         !
 ! D44   D(13,12,18,19)        -65.2333                                         !
 ! D45   D(13,12,18,69)         52.8655                                         !
 ! D46   D(11,14,15,18)         -3.1773                                         !
 ! D47   D(11,14,15,22)       -179.4265                                         !
 ! D48   D(16,14,15,18)        176.234                                          !
 ! D49   D(16,14,15,22)         -0.0153                                         !
 ! D50   D(11,14,16,17)          0.1946                                         !
 ! D51   D(11,14,16,24)        179.9114                                         !
 ! D52   D(15,14,16,17)       -179.0481                                         !
 ! D53   D(15,14,16,24)          0.6688                                         !
 ! D54   D(14,15,18,12)          5.7649                                         !
 ! D55   D(14,15,18,19)       -106.9452                                         !
 ! D56   D(14,15,18,69)        131.7848                                         !
 ! D57   D(22,15,18,12)       -178.1469                                         !
 ! D58   D(22,15,18,19)         69.1431                                         !
 ! D59   D(22,15,18,69)        -52.127                                          !
 ! D60   D(14,15,22,20)         -0.7941                                         !
 ! D61   D(14,15,22,23)        178.9953                                         !
 ! D62   D(18,15,22,20)       -176.2816                                         !
 ! D63   D(18,15,22,23)          3.5078                                         !
 ! D64   D(14,16,24,20)         -0.4996                                         !
 ! D65   D(14,16,24,25)        179.7847                                         !
 ! D66   D(17,16,24,20)        179.2184                                         !
 ! D67   D(17,16,24,25)         -0.4973                                         !
 ! D68   D(21,20,22,15)       -179.531                                          !
 ! D69   D(21,20,22,23)          0.6776                                         !
 ! D70   D(24,20,22,15)          0.9535                                         !
 ! D71   D(24,20,22,23)       -178.8379                                         !
 ! D72   D(21,20,24,16)       -179.8522                                         !
 ! D73   D(21,20,24,25)         -0.1362                                         !
 ! D74   D(22,20,24,16)         -0.3387                                         !
 ! D75   D(22,20,24,25)        179.3773                                         !
 ! D76   D(6,26,28,29)         159.5398                                         !
 ! D77   D(6,26,28,30)         -83.5421                                         !
 ! D78   D(6,26,28,31)          40.0405                                         !
 ! D79   D(27,26,28,29)        -37.6046                                         !
 ! D80   D(27,26,28,30)         79.3135                                         !
 ! D81   D(27,26,28,31)       -157.1039                                         !
 ! D82   D(26,28,30,33)         63.9537                                         !
 ! D83   D(26,28,30,45)       -116.4909                                         !
 ! D84   D(29,28,30,33)        178.3504                                         !
 ! D85   D(29,28,30,45)         -2.0943                                         !
 ! D86   D(31,28,30,33)        -63.3606                                         !
 ! D87   D(31,28,30,45)        116.1948                                         !
 ! D88   D(26,28,31,32)        -60.2351                                         !
 ! D89   D(26,28,31,34)       -176.7654                                         !
 ! D90   D(26,28,31,37)         57.3421                                         !
 ! D91   D(29,28,31,32)       -178.3051                                         !
 ! D92   D(29,28,31,34)         65.1646                                         !
 ! D93   D(29,28,31,37)        -60.7279                                         !
 ! D94   D(30,28,31,32)         62.6268                                         !
 ! D95   D(30,28,31,34)        -53.9034                                         !
 ! D96   D(30,28,31,37)       -179.796                                          !
 ! D97   D(28,30,45,46)         -4.5869                                         !
 ! D98   D(28,30,45,47)       -166.9924                                         !
 ! D99   D(33,30,45,46)        174.9628                                         !
 ! D100  D(33,30,45,47)         12.5572                                         !
 ! D101  D(28,31,34,35)         62.2185                                         !
 ! D102  D(28,31,34,36)        175.5861                                         !
 ! D103  D(28,31,34,41)        -62.6052                                         !
 ! D104  D(32,31,34,35)        -53.7467                                         !
 ! D105  D(32,31,34,36)         59.621                                          !
 ! D106  D(32,31,34,41)       -178.5704                                         !
 ! D107  D(37,31,34,35)       -173.2079                                         !
 ! D108  D(37,31,34,36)        -59.8402                                         !
 ! D109  D(37,31,34,41)         61.9684                                         !
 ! D110  D(28,31,37,38)         57.0626                                         !
 ! D111  D(28,31,37,39)        176.807                                          !
 ! D112  D(28,31,37,40)        -64.2484                                         !
 ! D113  D(32,31,37,38)        173.4396                                         !
 ! D114  D(32,31,37,39)        -66.816                                          !
 ! D115  D(32,31,37,40)         52.1285                                         !
 ! D116  D(34,31,37,38)        -67.6946                                         !
 ! D117  D(34,31,37,39)         52.0498                                         !
 ! D118  D(34,31,37,40)        170.9943                                         !
 ! D119  D(31,34,41,42)        177.3926                                         !
 ! D120  D(31,34,41,43)         58.6737                                         !
 ! D121  D(31,34,41,44)        -62.0775                                         !
 ! D122  D(35,34,41,42)         52.4652                                         !
 ! D123  D(35,34,41,43)        -66.2537                                         !
 ! D124  D(35,34,41,44)        172.9951                                         !
 ! D125  D(36,34,41,42)        -61.6587                                         !
 ! D126  D(36,34,41,43)        179.6224                                         !
 ! D127  D(36,34,41,44)         58.8712                                         !
 ! D128  D(30,45,47,48)         17.4536                                         !
 ! D129  D(30,45,47,49)        -94.8679                                         !
 ! D130  D(30,45,47,50)        135.9086                                         !
 ! D131  D(46,45,47,48)       -145.2472                                         !
 ! D132  D(46,45,47,49)        102.4313                                         !
 ! D133  D(46,45,47,50)        -26.7922                                         !
 ! D134  D(45,47,49,53)         60.7472                                         !
 ! D135  D(45,47,49,68)       -118.7183                                         !
 ! D136  D(48,47,49,53)        -52.0466                                         !
 ! D137  D(48,47,49,68)        128.4879                                         !
 ! D138  D(50,47,49,53)       -173.8296                                         !
 ! D139  D(50,47,49,68)          6.7049                                         !
 ! D140  D(45,47,50,51)        -43.8486                                         !
 ! D141  D(45,47,50,52)         72.4687                                         !
 ! D142  D(45,47,50,54)       -162.7276                                         !
 ! D143  D(48,47,50,51)         72.3031                                         !
 ! D144  D(48,47,50,52)       -171.3796                                         !
 ! D145  D(48,47,50,54)        -46.5759                                         !
 ! D146  D(49,47,50,51)       -168.2548                                         !
 ! D147  D(49,47,50,52)        -51.9375                                         !
 ! D148  D(49,47,50,54)         72.8662                                         !
 ! D149  D(47,49,68,70)       -179.8242                                         !
 ! D150  D(53,49,68,70)          0.7108                                         !
 ! D151  D(47,50,54,55)         47.2255                                         !
 ! D152  D(47,50,54,56)        -70.2022                                         !
 ! D153  D(47,50,54,57)        167.7275                                         !
 ! D154  D(51,50,54,55)        -70.1837                                         !
 ! D155  D(51,50,54,56)        172.3887                                         !
 ! D156  D(51,50,54,57)         50.3184                                         !
 ! D157  D(52,50,54,55)        171.7076                                         !
 ! D158  D(52,50,54,56)         54.28                                           !
 ! D159  D(52,50,54,57)        -67.7903                                         !
 ! D160  D(50,54,57,58)         71.3565                                         !
 ! D161  D(50,54,57,59)       -172.2043                                         !
 ! D162  D(50,54,57,60)        -49.2222                                         !
 ! D163  D(55,54,57,58)       -168.5615                                         !
 ! D164  D(55,54,57,59)        -52.1223                                         !
 ! D165  D(55,54,57,60)         70.8598                                         !
 ! D166  D(56,54,57,58)        -51.8206                                         !
 ! D167  D(56,54,57,59)         64.6186                                         !
 ! D168  D(56,54,57,60)       -172.3993                                         !
 ! D169  D(54,57,60,61)         84.2524                                         !
 ! D170  D(54,57,60,67)        -56.9995                                         !
 ! D171  D(58,57,60,61)        -38.1896                                         !
 ! D172  D(58,57,60,67)       -179.4416                                         !
 ! D173  D(59,57,60,61)       -152.703                                          !
 ! D174  D(59,57,60,67)         66.045                                          !
 ! D175  D(57,60,67,62)        158.4217                                         !
 ! D176  D(57,60,67,65)        -20.0757                                         !
 ! D177  D(61,60,67,62)         16.9531                                         !
 ! D178  D(61,60,67,65)       -161.5443                                         !
 ! D179  D(63,62,67,60)        169.7328                                         !
 ! D180  D(63,62,67,65)        -11.6135                                         !
 ! D181  D(64,62,67,60)         46.2957                                         !
 ! D182  D(64,62,67,65)       -135.0506                                         !
 ! D183  D(66,65,67,60)          1.5649                                         !
 ! D184  D(66,65,67,62)       -176.8416                                         !
 --------------------------------------------------------------------------------
 Symmetry turned off by external request.
 Stoichiometry    C23H36N7O4(1+)
 Framework group  C1[X(C23H36N7O4)]
 Deg. of freedom   204
 Full point group                 C1      NOp   1
                          Input orientation:                          
 ---------------------------------------------------------------------
 Center     Atomic      Atomic             Coordinates (Angstroms)
 Number     Number       Type             X           Y           Z
 ---------------------------------------------------------------------
      1          7           0       -2.718563   -2.553985    2.785152
      2          1           0       -3.377276   -1.844797    2.468179
      3          1           0       -2.800958   -3.340068    2.139807
      4          6           0       -1.350482   -2.048227    2.739091
      5          1           0       -1.324101   -1.104040    3.299531
      6          6           0       -0.830897   -1.839793    1.297653
      7          6           0       -0.428755   -3.075552    3.442546
      8          1           0       -0.643991   -3.063904    4.515385
      9          1           0       -0.696480   -4.068226    3.071431
     10          8           0       -0.621552   -2.808576    0.580098
     11          6           0        1.027557   -2.832878    3.161575
     12          6           0        1.694846   -1.673917    3.298965
     13          1           0        1.396179   -0.697624    3.648362
     14          6           0        1.936477   -3.818342    2.557956
     15          6           0        3.165122   -3.201183    2.318531
     16          6           0        1.774396   -5.156886    2.203961
     17          1           0        0.829960   -5.666960    2.360043
     18          7           0        3.039102   -1.786517    2.695100
     19          1           0        3.007878   -1.203796    1.812080
     20          6           0        4.082827   -5.177805    1.411967
     21          1           0        4.908287   -5.723325    0.966352
     22          6           0        4.253783   -3.828207    1.746677
     23          1           0        5.190439   -3.312187    1.560382
     24          6           0        2.861411   -5.826174    1.635233
     25          1           0        2.756557   -6.869808    1.355917
     26          7           0       -0.681285   -0.528747    0.922498
     27          1           0       -0.872013    0.154530    1.643083
     28          6           0        0.034113    0.004759   -0.241604
     29          1           0       -0.375118    1.009869   -0.400973
     30          6           0        1.521465    0.113200    0.117402
     31          6           0       -0.125749   -0.793574   -1.559305
     32          1           0        0.260434   -1.796124   -1.363248
     33          8           0        2.191110   -0.895325    0.372416
     34          6           0        0.738428   -0.176444   -2.685701
     35          1           0        1.798769   -0.230550   -2.404055
     36          1           0        0.640056   -0.832800   -3.558737
     37          6           0       -1.605668   -0.910180   -1.940451
     38          1           0       -2.083918    0.071764   -2.038341
     39          1           0       -1.703804   -1.426318   -2.901359
     40          1           0       -2.155007   -1.489812   -1.194327
     41          6           0        0.401854    1.258288   -3.113660
     42          1           0        1.109595    1.592842   -3.879198
     43          1           0        0.473642    1.973594   -2.282760
     44          1           0       -0.611818    1.335754   -3.520262
     45          7           0        2.056215    1.356707    0.130399
     46          1           0        1.480857    2.136383   -0.161101
     47          6           0        3.503216    1.581413    0.179059
     48          1           0        3.963581    0.631822   -0.117566
     49          6           0        3.911190    1.783817    1.644517
     50          6           0        3.905691    2.678158   -0.811774
     51          1           0        3.354415    2.467664   -1.735285
     52          1           0        3.580010    3.659548   -0.444144
     53          8           0        3.746220    0.936219    2.503701
     54          6           0        5.404784    2.686193   -1.130836
     55          1           0        5.714284    1.657796   -1.349102
     56          1           0        5.984228    3.025022   -0.265071
     57          6           0        5.749735    3.582342   -2.342513
     58          1           0        5.639220    4.637903   -2.074261
     59          1           0        6.803635    3.440180   -2.607759
     60          7           0        4.925688    3.361708   -3.526268
     61          1           0        4.048174    3.866517   -3.517742
     62          7           0        3.674319    1.966190   -4.904630
     63          1           0        3.732271    1.110853   -5.448865
     64          1           0        3.502716    2.759220   -5.517254
     65          7           0        5.638171    1.108854   -4.013810
     66          1           0        6.413632    1.307669   -3.383387
     67          6           0        4.835596    2.103025   -4.121604
     68          8           0        4.454222    2.981485    1.892547
     69          1           0        3.788941   -1.417171    3.287807
     70          1           0        4.683692    3.019328    2.842058
 ---------------------------------------------------------------------
 Rotational constants (GHZ):           0.1675384           0.0759445           0.0679789
 Standard basis: 6-31G(d) (6D, 7F)
   582 basis functions,  1096 primitive gaussians,   582 cartesian basis functions
   127 alpha electrons      127 beta electrons
       nuclear repulsion energy      3874.2607881946 Hartrees.
 NAtoms=   70 NActive=   70 NUniq=   70 SFac= 1.00D+00 NAtFMM=   60 NAOKFM=T Big=T
 Integral buffers will be    131072 words long.
 Raffenetti 2 integral format.
 Two-electron integral symmetry is turned off.
 Nuclear repulsion after empirical dispersion term =     3874.1673811677 Hartrees.
 One-electron integrals computed using PRISM.
 NBasis=   582 RedAO= T EigKep=  3.67D-04  NBF=   582
 NBsUse=   582 1.00D-06 EigRej= -1.00D+00 NBFU=   582
 Initial guess from the checkpoint file:  "conf-535.chk"
 B after Tr=     0.000000    0.000000    0.000000
         Rot=    1.000000    0.000000    0.000000    0.000000 Ang=   0.00 deg.
 Requested convergence on RMS density matrix=1.00D-08 within 128 cycles.
 Requested convergence on MAX density matrix=1.00D-06.
 Requested convergence on             energy=1.00D-06.
 No special actions if energy rises.
 SCF Done:  E(RB3LYP) =  -1582.18594648     A.U. after    1 cycles
            NFock=  1  Conv=0.72D-08     -V/T= 2.0095

 **********************************************************************

            Population analysis using the SCF Density.

 **********************************************************************

 Alpha  occ. eigenvalues --  -19.32857 -19.27249 -19.24995 -19.21308 -14.56519
 Alpha  occ. eigenvalues --  -14.49774 -14.47149 -14.43110 -14.41542 -14.41350
 Alpha  occ. eigenvalues --  -14.35854 -10.45346 -10.41650 -10.38429 -10.36352
 Alpha  occ. eigenvalues --  -10.35464 -10.35284 -10.35186 -10.34658 -10.33438
 Alpha  occ. eigenvalues --  -10.33024 -10.31787 -10.31566 -10.31132 -10.30491
 Alpha  occ. eigenvalues --  -10.30416 -10.30174 -10.30120 -10.30038 -10.28488
 Alpha  occ. eigenvalues --  -10.28035 -10.26707 -10.25830 -10.25305  -1.23823
 Alpha  occ. eigenvalues --   -1.16946  -1.14623  -1.13416  -1.13245  -1.05944
 Alpha  occ. eigenvalues --   -1.05175  -1.03184  -0.98935  -0.97267  -0.96593
 Alpha  occ. eigenvalues --   -0.93480  -0.91882  -0.91438  -0.89989  -0.86306
 Alpha  occ. eigenvalues --   -0.86069  -0.85143  -0.83658  -0.82615  -0.79954
 Alpha  occ. eigenvalues --   -0.78261  -0.76145  -0.74451  -0.74104  -0.72814
 Alpha  occ. eigenvalues --   -0.72604  -0.71603  -0.70655  -0.69446  -0.69156
 Alpha  occ. eigenvalues --   -0.67905  -0.65968  -0.65030  -0.64706  -0.62985
 Alpha  occ. eigenvalues --   -0.62749  -0.62276  -0.62014  -0.61686  -0.61087
 Alpha  occ. eigenvalues --   -0.60668  -0.59759  -0.59472  -0.59109  -0.57299
 Alpha  occ. eigenvalues --   -0.56382  -0.56013  -0.55791  -0.55140  -0.54885
 Alpha  occ. eigenvalues --   -0.54330  -0.53890  -0.53543  -0.53330  -0.53047
 Alpha  occ. eigenvalues --   -0.52182  -0.51949  -0.51148  -0.50867  -0.50512
 Alpha  occ. eigenvalues --   -0.50270  -0.50003  -0.49301  -0.48448  -0.48124
 Alpha  occ. eigenvalues --   -0.48061  -0.47457  -0.47206  -0.46469  -0.46279
 Alpha  occ. eigenvalues --   -0.45932  -0.45632  -0.45114  -0.44904  -0.44644
 Alpha  occ. eigenvalues --   -0.44152  -0.43761  -0.41861  -0.41598  -0.41369
 Alpha  occ. eigenvalues --   -0.41075  -0.40843  -0.39456  -0.38633  -0.36818
 Alpha  occ. eigenvalues --   -0.36438  -0.35659  -0.34340  -0.33760  -0.33463
 Alpha  occ. eigenvalues --   -0.32315  -0.30283
 Alpha virt. eigenvalues --   -0.15129  -0.13128  -0.12022  -0.11051  -0.07533
 Alpha virt. eigenvalues --   -0.06810  -0.05629  -0.04719  -0.04095  -0.03874
 Alpha virt. eigenvalues --   -0.02653  -0.01804  -0.01012  -0.00229   0.00164
 Alpha virt. eigenvalues --    0.00571   0.01115   0.01780   0.02065   0.02520
 Alpha virt. eigenvalues --    0.02853   0.03460   0.04010   0.04099   0.04916
 Alpha virt. eigenvalues --    0.05138   0.05525   0.06019   0.06670   0.06901
 Alpha virt. eigenvalues --    0.07090   0.07253   0.07650   0.07955   0.08248
 Alpha virt. eigenvalues --    0.08549   0.08723   0.09021   0.09270   0.09885
 Alpha virt. eigenvalues --    0.10182   0.10671   0.10941   0.11085   0.11537
 Alpha virt. eigenvalues --    0.11790   0.12388   0.12647   0.13226   0.13769
 Alpha virt. eigenvalues --    0.13998   0.14305   0.14948   0.15208   0.15688
 Alpha virt. eigenvalues --    0.16039   0.16203   0.16961   0.17500   0.17849
 Alpha virt. eigenvalues --    0.18114   0.19743   0.20307   0.20527   0.20606
 Alpha virt. eigenvalues --    0.21620   0.22243   0.24433   0.24912   0.25096
 Alpha virt. eigenvalues --    0.27008   0.27115   0.27720   0.30012   0.31901
 Alpha virt. eigenvalues --    0.32664   0.36167   0.36737   0.37935   0.39015
 Alpha virt. eigenvalues --    0.39758   0.39920   0.40626   0.40883   0.41125
 Alpha virt. eigenvalues --    0.41643   0.42062   0.43392   0.43799   0.43926
 Alpha virt. eigenvalues --    0.44157   0.45067   0.45367   0.46354   0.46560
 Alpha virt. eigenvalues --    0.47044   0.47192   0.47693   0.48065   0.48246
 Alpha virt. eigenvalues --    0.48484   0.49099   0.49822   0.50080   0.50774
 Alpha virt. eigenvalues --    0.50928   0.51002   0.51261   0.52014   0.52268
 Alpha virt. eigenvalues --    0.52753   0.53389   0.53689   0.54567   0.55077
 Alpha virt. eigenvalues --    0.55473   0.55954   0.56286   0.56522   0.57357
 Alpha virt. eigenvalues --    0.57440   0.58134   0.58753   0.59690   0.59811
 Alpha virt. eigenvalues --    0.60858   0.61409   0.62262   0.62393   0.62967
 Alpha virt. eigenvalues --    0.63470   0.64142   0.64798   0.65257   0.65734
 Alpha virt. eigenvalues --    0.65926   0.66361   0.66514   0.67516   0.68476
 Alpha virt. eigenvalues --    0.69265   0.69689   0.70181   0.70515   0.71586
 Alpha virt. eigenvalues --    0.71979   0.72100   0.73155   0.73496   0.73675
 Alpha virt. eigenvalues --    0.73917   0.74261   0.74564   0.75198   0.75472
 Alpha virt. eigenvalues --    0.75948   0.76545   0.76845   0.77191   0.77741
 Alpha virt. eigenvalues --    0.78360   0.78580   0.79438   0.79593   0.80102
 Alpha virt. eigenvalues --    0.80356   0.80700   0.81223   0.81402   0.81557
 Alpha virt. eigenvalues --    0.82226   0.82653   0.82750   0.83073   0.83741
 Alpha virt. eigenvalues --    0.84223   0.84355   0.84756   0.85385   0.85873
 Alpha virt. eigenvalues --    0.85917   0.86435   0.86728   0.87096   0.87571
 Alpha virt. eigenvalues --    0.87757   0.88578   0.89083   0.89620   0.90391
 Alpha virt. eigenvalues --    0.90907   0.91828   0.92265   0.92588   0.93282
 Alpha virt. eigenvalues --    0.93917   0.94302   0.94744   0.95234   0.95840
 Alpha virt. eigenvalues --    0.97276   0.97426   0.98490   0.98785   0.99509
 Alpha virt. eigenvalues --    1.00556   1.01440   1.01509   1.02639   1.03351
 Alpha virt. eigenvalues --    1.03744   1.04770   1.05610   1.07022   1.07590
 Alpha virt. eigenvalues --    1.09525   1.10817   1.11436   1.13175   1.14098
 Alpha virt. eigenvalues --    1.14887   1.15671   1.17880   1.18612   1.19642
 Alpha virt. eigenvalues --    1.19986   1.20747   1.22651   1.22910   1.23872
 Alpha virt. eigenvalues --    1.24656   1.25875   1.26614   1.27224   1.28294
 Alpha virt. eigenvalues --    1.29288   1.29628   1.30893   1.32116   1.32645
 Alpha virt. eigenvalues --    1.33319   1.33957   1.35409   1.35963   1.36946
 Alpha virt. eigenvalues --    1.37316   1.37889   1.38367   1.39648   1.40323
 Alpha virt. eigenvalues --    1.40678   1.41832   1.43730   1.45315   1.45958
 Alpha virt. eigenvalues --    1.47117   1.48156   1.48910   1.50647   1.51544
 Alpha virt. eigenvalues --    1.51814   1.53548   1.54419   1.54741   1.56973
 Alpha virt. eigenvalues --    1.57467   1.58383   1.60641   1.60969   1.61417
 Alpha virt. eigenvalues --    1.62575   1.63432   1.64152   1.65064   1.65972
 Alpha virt. eigenvalues --    1.66682   1.67222   1.67619   1.68483   1.69401
 Alpha virt. eigenvalues --    1.69930   1.70318   1.71216   1.71951   1.72395
 Alpha virt. eigenvalues --    1.72795   1.73506   1.73932   1.75208   1.75506
 Alpha virt. eigenvalues --    1.76215   1.76825   1.77564   1.78505   1.79238
 Alpha virt. eigenvalues --    1.80386   1.80525   1.80801   1.81403   1.81990
 Alpha virt. eigenvalues --    1.82930   1.83436   1.83730   1.84453   1.85722
 Alpha virt. eigenvalues --    1.86782   1.87038   1.88642   1.89174   1.90355
 Alpha virt. eigenvalues --    1.91148   1.91772   1.92192   1.92712   1.93040
 Alpha virt. eigenvalues --    1.93234   1.93674   1.94148   1.94571   1.95114
 Alpha virt. eigenvalues --    1.96565   1.96857   1.98083   1.98629   1.99893
 Alpha virt. eigenvalues --    2.00573   2.01786   2.02000   2.02932   2.03605
 Alpha virt. eigenvalues --    2.04768   2.05887   2.07096   2.07246   2.07439
 Alpha virt. eigenvalues --    2.09131   2.09652   2.10387   2.11326   2.12053
 Alpha virt. eigenvalues --    2.13335   2.14055   2.15069   2.16197   2.16462
 Alpha virt. eigenvalues --    2.17334   2.18049   2.20732   2.21325   2.21797
 Alpha virt. eigenvalues --    2.23352   2.23929   2.24465   2.24988   2.25892
 Alpha virt. eigenvalues --    2.26757   2.27326   2.27906   2.28632   2.29281
 Alpha virt. eigenvalues --    2.29865   2.30678   2.31189   2.33613   2.34177
 Alpha virt. eigenvalues --    2.34697   2.35433   2.36805   2.37837   2.38722
 Alpha virt. eigenvalues --    2.39513   2.39768   2.40785   2.41412   2.42438
 Alpha virt. eigenvalues --    2.43037   2.46028   2.47036   2.47853   2.48495
 Alpha virt. eigenvalues --    2.49028   2.50091   2.51396   2.53284   2.53913
 Alpha virt. eigenvalues --    2.55024   2.55785   2.56156   2.58409   2.58672
 Alpha virt. eigenvalues --    2.59044   2.59622   2.60983   2.61522   2.62178
 Alpha virt. eigenvalues --    2.62720   2.64489   2.65571   2.66867   2.69118
 Alpha virt. eigenvalues --    2.69328   2.70815   2.72498   2.72515   2.73778
 Alpha virt. eigenvalues --    2.76765   2.78486   2.84212   2.85974   2.87054
 Alpha virt. eigenvalues --    2.90339   2.90474   2.91680   2.93788   2.96949
 Alpha virt. eigenvalues --    2.98151   2.99263   3.04711   3.06891   3.09344
 Alpha virt. eigenvalues --    3.33147   3.72101   3.74187   3.75276   3.85360
 Alpha virt. eigenvalues --    3.87350   3.90328   3.91525   3.92750   3.97610
 Alpha virt. eigenvalues --    4.00258   4.04813   4.04930   4.06773   4.08653
 Alpha virt. eigenvalues --    4.15331   4.17778   4.18583   4.19580   4.21095
 Alpha virt. eigenvalues --    4.22533   4.24177   4.27576   4.27936   4.30054
 Alpha virt. eigenvalues --    4.31561   4.35728   4.40638   4.43396   4.45292
 Alpha virt. eigenvalues --    4.47713   4.55224   4.59315   4.63555   4.67805
          Condensed to atoms (all electrons):
 Mulliken charges:
               1
     1  N   -0.695707
     2  H    0.314196
     3  H    0.322032
     4  C   -0.070032
     5  H    0.129133
     6  C    0.632035
     7  C   -0.339104
     8  H    0.198953
     9  H    0.182299
    10  O   -0.520309
    11  C    0.159665
    12  C   -0.104002
    13  H    0.187754
    14  C    0.158391
    15  C    0.196567
    16  C   -0.185586
    17  H    0.172148
    18  N   -0.741642
    19  H    0.456372
    20  C   -0.139093
    21  H    0.172335
    22  C   -0.150571
    23  H    0.165436
    24  C   -0.119215
    25  H    0.171623
    26  N   -0.622543
    27  H    0.328892
    28  C   -0.039669
    29  H    0.144736
    30  C    0.645544
    31  C   -0.086458
    32  H    0.196513
    33  O   -0.564929
    34  C   -0.289231
    35  H    0.150321
    36  H    0.160874
    37  C   -0.460630
    38  H    0.141441
    39  H    0.164266
    40  H    0.165137
    41  C   -0.464792
    42  H    0.184308
    43  H    0.097651
    44  H    0.163025
    45  N   -0.599207
    46  H    0.352777
    47  C   -0.050744
    48  H    0.207672
    49  C    0.615515
    50  C   -0.304530
    51  H    0.177669
    52  H    0.160222
    53  O   -0.501355
    54  C   -0.286369
    55  H    0.153460
    56  H    0.161442
    57  C   -0.164084
    58  H    0.162898
    59  H    0.176301
    60  N   -0.577086
    61  H    0.320270
    62  N   -0.758052
    63  H    0.344760
    64  H    0.327582
    65  N   -0.634690
    66  H    0.279983
    67  C    0.566020
    68  O   -0.537515
    69  H    0.407823
    70  H    0.431105
 Sum of Mulliken charges =   1.00000
 Mulliken charges with hydrogens summed into heavy atoms:
               1
     1  N   -0.059480
     4  C    0.059101
     6  C    0.632035
     7  C    0.042147
    10  O   -0.520309
    11  C    0.159665
    12  C    0.083752
    14  C    0.158391
    15  C    0.196567
    16  C   -0.013438
    18  N    0.122553
    20  C    0.033241
    22  C    0.014865
    24  C    0.052408
    26  N   -0.293652
    28  C    0.105067
    30  C    0.645544
    31  C    0.110056
    33  O   -0.564929
    34  C    0.021964
    37  C    0.010213
    41  C   -0.019808
    45  N   -0.246430
    47  C    0.156928
    49  C    0.615515
    50  C    0.033362
    53  O   -0.501355
    54  C    0.028533
    57  C    0.175115
    60  N   -0.256816
    62  N   -0.085710
    65  N   -0.354707
    67  C    0.566020
    68  O   -0.106410
 Electronic spatial extent (au):  <R**2>=          21427.5122
 Charge=              1.0000 electrons
 Dipole moment (field-independent basis, Debye):
    X=             11.2442    Y=              1.7310    Z=              6.6807  Tot=             13.1932
 Quadrupole moment (field-independent basis, Debye-Ang):
   XX=           -140.7888   YY=           -140.7952   ZZ=           -163.1024
   XY=              7.5354   XZ=             24.6199   YZ=            -21.3210
 Traceless Quadrupole moment (field-independent basis, Debye-Ang):
   XX=              7.4400   YY=              7.4336   ZZ=            -14.8736
   XY=              7.5354   XZ=             24.6199   YZ=            -21.3210
 Octapole moment (field-independent basis, Debye-Ang**2):
  XXX=           -994.0836  YYY=            202.0915  ZZZ=           -122.6789  XYY=           -217.3689
  XXY=            145.5974  XXZ=            101.3003  XZZ=           -347.6941  YZZ=            161.6421
  YYZ=             -1.7752  XYZ=            -57.1950
 Hexadecapole moment (field-independent basis, Debye-Ang**3):
 XXXX=         -10608.1489 YYYY=          -7072.4449 ZZZZ=          -6525.2049 XXXY=           -618.6936
 XXXZ=           1589.9522 YYYX=          -1118.9205 YYYZ=           2002.8126 ZZZX=           1042.4867
 ZZZY=           2201.7849 XXYY=          -2609.5528 XXZZ=          -3265.7670 YYZZ=          -2370.1158
 XXYZ=            691.3925 YYXZ=            319.4515 ZZXY=            -90.9641
 N-N= 3.874167381168D+03 E-N=-1.140265292832D+04  KE= 1.567336298447D+03
 Unable to Open any file for archive entry.
 1\1\GINC-VIM-002\SP\RB3LYP\6-31G(d)\C23H36N7O4(1+)\KENGMITH\03-Jun-202
 2\0\\# B3LYP/6-31G* empiricaldispersion=gd3 guess=read geom=check nosy
 mm integral(ultrafinegrid)\\Candidate Structure: Conf:535 Charge calc 
 in gas phase\\1,1\N,0,-2.7185634239,-2.553984699,2.7851520529\H,0,-3.3
 77275578,-1.8447971253,2.468179088\H,0,-2.8009583371,-3.3400683526,2.1
 398073343\C,0,-1.3504819419,-2.0482272963,2.7390905741\H,0,-1.32410118
 78,-1.1040395241,3.2995306797\C,0,-0.8308970707,-1.839793434,1.2976529
 08\C,0,-0.428754815,-3.0755517271,3.4425456063\H,0,-0.6439913835,-3.06
 3903994,4.5153845475\H,0,-0.6964803144,-4.0682263219,3.0714310446\O,0,
 -0.6215516579,-2.8085755021,0.5800984737\C,0,1.0275568492,-2.832877539
 4,3.161575223\C,0,1.6948456043,-1.6739168607,3.2989647462\H,0,1.396178
 633,-0.6976238589,3.6483616414\C,0,1.9364772534,-3.8183421,2.557956263
 8\C,0,3.1651220953,-3.2011831839,2.3185310277\C,0,1.7743958524,-5.1568
 861652,2.2039610126\H,0,0.82996033,-5.6669603761,2.3600427006\N,0,3.03
 91019082,-1.7865174678,2.6951004356\H,0,3.007877864,-1.2037960846,1.81
 20801096\C,0,4.08282689,-5.1778050523,1.4119674568\H,0,4.9082865502,-5
 .7233254796,0.9663516998\C,0,4.2537826512,-3.8282066289,1.7466768298\H
 ,0,5.1904388773,-3.3121865367,1.5603824361\C,0,2.8614108959,-5.8261736
 321,1.6352326954\H,0,2.7565570043,-6.8698083637,1.355917218\N,0,-0.681
 2852778,-0.5287471023,0.922498318\H,0,-0.8720129224,0.154530016,1.6430
 825977\C,0,0.0341132583,0.0047594729,-0.2416042432\H,0,-0.3751176951,1
 .0098688944,-0.4009732241\C,0,1.5214652229,0.1132004945,0.11740194\C,0
 ,-0.1257485649,-0.7935737339,-1.5593045108\H,0,0.2604336231,-1.7961236
 423,-1.3632476284\O,0,2.1911097608,-0.8953253325,0.3724155949\C,0,0.73
 84283245,-0.1764437837,-2.6857005095\H,0,1.7987694571,-0.2305497335,-2
 .4040548634\H,0,0.6400561086,-0.8328000685,-3.5587373302\C,0,-1.605667
 9046,-0.910179544,-1.9404509608\H,0,-2.0839183495,0.0717638677,-2.0383
 407293\H,0,-1.7038044358,-1.4263177326,-2.9013593689\H,0,-2.1550065114
 ,-1.4898122647,-1.1943267393\C,0,0.4018540637,1.2582879306,-3.11365973
 03\H,0,1.1095953098,1.5928421785,-3.8791975711\H,0,0.4736416282,1.9735
 937946,-2.2827599159\H,0,-0.6118181215,1.3357542987,-3.5202621546\N,0,
 2.0562147263,1.3567072605,0.1303987367\H,0,1.4808574668,2.1363831823,-
 0.1611011031\C,0,3.5032163728,1.5814133623,0.1790591459\H,0,3.96358122
 78,0.6318218912,-0.1175658469\C,0,3.9111898596,1.7838169473,1.64451693
 3\C,0,3.9056911909,2.6781577995,-0.8117739183\H,0,3.35441542,2.4676641
 363,-1.735285311\H,0,3.5800100758,3.6595476407,-0.4441441886\O,0,3.746
 2204761,0.9362191224,2.5037012605\C,0,5.4047837482,2.6861933086,-1.130
 8360075\H,0,5.7142837704,1.6577960949,-1.3491016111\H,0,5.9842277999,3
 .0250220246,-0.2650709895\C,0,5.7497351101,3.582341799,-2.3425130253\H
 ,0,5.6392203268,4.6379031036,-2.0742612451\H,0,6.803634734,3.440179619
 9,-2.6077587168\N,0,4.9256883204,3.3617076035,-3.5262684515\H,0,4.0481
 735346,3.8665166115,-3.5177423701\N,0,3.6743186112,1.9661903072,-4.904
 6298591\H,0,3.732271358,1.1108526302,-5.4488645701\H,0,3.5027163837,2.
 759220108,-5.5172539052\N,0,5.6381710095,1.1088536971,-4.0138096799\H,
 0,6.4136324613,1.3076693841,-3.3833867058\C,0,4.8355957154,2.103025315
 8,-4.1216041356\O,0,4.4542221596,2.9814852248,1.8925471391\H,0,3.78894
 14804,-1.4171711134,3.2878071276\H,0,4.6836916579,3.0193276845,2.84205
 79714\\Version=ES64L-G16RevC.01\HF=-1582.1859465\RMSD=7.197e-09\Dipole
 =0.4451681,1.6403895,2.2944673\Quadrupole=5.5314493,5.5267001,-11.0581
 495,5.6023979,18.304329,-15.8516375\PG=C01 [X(C23H36N7O4)]\\@
 The archive entry for this job was punched.


 I WANT TO KNOW HOW GOD CREATED THE WORLD.  I AM NOT INTERESTED IN
 THIS OR THAT PHENOMENON, IN THE SPECTRUM OF THIS OR THAT ELEMENT.
 I WANT TO KNOW HIS THOUGHTS, THE REST ARE DETAILS.
     -- ALBERT EINSTEIN
 Job cpu time:       0 days  0 hours  2 minutes  0.3 seconds.
 Elapsed time:       0 days  0 hours  0 minutes 30.8 seconds.
 File lengths (MBytes):  RWF=    296 Int=      0 D2E=      0 Chk=     40 Scr=     16
 Normal termination of Gaussian 16 at Fri Jun  3 04:56:15 2022.
