 Entering Gaussian System, Link 0=/opt/software/Gaussian/g16-AVX2-C.01/g16/g16
 Input=charge-conf-797.com
 Output=charge-conf-797.log
 Initial command:
 /opt/software/Gaussian/g16-AVX2-C.01/g16/l1.exe "/mnt/gs18/scratch/users/kengmith/Gau-36196.inp" -scrdir="/mnt/gs18/scratch/users/kengmith/"
 Entering Link 1 = /opt/software/Gaussian/g16-AVX2-C.01/g16/l1.exe PID=     36206.
  
 Copyright (c) 1988-2019, Gaussian, Inc.  All Rights Reserved.
  
 This is part of the Gaussian(R) 16 program.  It is based on
 the Gaussian(R) 09 system (copyright 2009, Gaussian, Inc.),
 the Gaussian(R) 03 system (copyright 2003, Gaussian, Inc.),
 the Gaussian(R) 98 system (copyright 1998, Gaussian, Inc.),
 the Gaussian(R) 94 system (copyright 1995, Gaussian, Inc.),
 the Gaussian 92(TM) system (copyright 1992, Gaussian, Inc.),
 the Gaussian 90(TM) system (copyright 1990, Gaussian, Inc.),
 the Gaussian 88(TM) system (copyright 1988, Gaussian, Inc.),
 the Gaussian 86(TM) system (copyright 1986, Carnegie Mellon
 University), and the Gaussian 82(TM) system (copyright 1983,
 Carnegie Mellon University). Gaussian is a federally registered
 trademark of Gaussian, Inc.
  
 This software contains proprietary and confidential information,
 including trade secrets, belonging to Gaussian, Inc.
  
 This software is provided under written license and may be
 used, copied, transmitted, or stored only in accord with that
 written license.
  
 The following legend is applicable only to US Government
 contracts under FAR:
  
                    RESTRICTED RIGHTS LEGEND
  
 Use, reproduction and disclosure by the US Government is
 subject to restrictions as set forth in subparagraphs (a)
 and (c) of the Commercial Computer Software - Restricted
 Rights clause in FAR 52.227-19.
  
 Gaussian, Inc.
 340 Quinnipiac St., Bldg. 40, Wallingford CT 06492
  
  
 ---------------------------------------------------------------
 Warning -- This program may not be used in any manner that
 competes with the business of Gaussian, Inc. or will provide
 assistance to any competitor of Gaussian, Inc.  The licensee
 of this program is prohibited from giving any competitor of
 Gaussian, Inc. access to this program.  By using this program,
 the user acknowledges that Gaussian, Inc. is engaged in the
 business of creating and licensing software in the field of
 computational chemistry and represents and warrants to the
 licensee that it is not a competitor of Gaussian, Inc. and that
 it will not use this program in any manner prohibited above.
 ---------------------------------------------------------------
  

 Cite this work as:
 Gaussian 16, Revision C.01,
 M. J. Frisch, G. W. Trucks, H. B. Schlegel, G. E. Scuseria, 
 M. A. Robb, J. R. Cheeseman, G. Scalmani, V. Barone, 
 G. A. Petersson, H. Nakatsuji, X. Li, M. Caricato, A. V. Marenich, 
 J. Bloino, B. G. Janesko, R. Gomperts, B. Mennucci, H. P. Hratchian, 
 J. V. Ortiz, A. F. Izmaylov, J. L. Sonnenberg, D. Williams-Young, 
 F. Ding, F. Lipparini, F. Egidi, J. Goings, B. Peng, A. Petrone, 
 T. Henderson, D. Ranasinghe, V. G. Zakrzewski, J. Gao, N. Rega, 
 G. Zheng, W. Liang, M. Hada, M. Ehara, K. Toyota, R. Fukuda, 
 J. Hasegawa, M. Ishida, T. Nakajima, Y. Honda, O. Kitao, H. Nakai, 
 T. Vreven, K. Throssell, J. A. Montgomery, Jr., J. E. Peralta, 
 F. Ogliaro, M. J. Bearpark, J. J. Heyd, E. N. Brothers, K. N. Kudin, 
 V. N. Staroverov, T. A. Keith, R. Kobayashi, J. Normand, 
 K. Raghavachari, A. P. Rendell, J. C. Burant, S. S. Iyengar, 
 J. Tomasi, M. Cossi, J. M. Millam, M. Klene, C. Adamo, R. Cammi, 
 J. W. Ochterski, R. L. Martin, K. Morokuma, O. Farkas, 
 J. B. Foresman, and D. J. Fox, Gaussian, Inc., Wallingford CT, 2019.
 
 ******************************************
 Gaussian 16:  ES64L-G16RevC.01  3-Jul-2019
                 7-Jul-2022 
 ******************************************
 %mem=8gb
 %nproc=4
 Will use up to    4 processors via shared memory.
 %chk=conf-797.chk
 -------------------------------------------------------------------
 # B3LYP/6-31G* guess=read geom=check nosymm integral(ultrafinegrid)
 -------------------------------------------------------------------
 1/29=2,38=1,172=1/1;
 2/12=2,15=1,40=1/2;
 3/5=1,6=6,7=1,11=2,14=-4,25=1,30=1,74=-5,75=-5,116=-2/1,2,3;
 4/5=1/1;
 5/5=2,38=6/2;
 6/7=2,8=2,9=2,10=2,28=1/1;
 99/5=1,9=1/99;
 ------------------------------------------------------
 Candidate Structure: Conf:797 Charge calc in gas phase
 ------------------------------------------------------
 Structure from the checkpoint file:  "conf-797.chk"
 Charge =  1 Multiplicity = 1
 Redundant internal coordinates found in file.  (old form).
 N,0,-1.6085861362,1.5076509611,3.9297200377
 H,0,-0.6767326308,1.8278094373,3.5579624626
 H,0,-1.5649638991,1.3339176911,4.9366975936
 H,0,-2.2792371194,2.2652083529,3.7153325352
 C,0,-2.0481528071,0.3153406834,3.1303946874
 H,0,-2.9156972274,-0.1358169975,3.6187693828
 H,0,-1.2249665872,-0.3976999777,3.0618345858
 C,0,-2.432831879,0.9069137754,1.7673687667
 O,0,-2.9081119816,2.0469298961,1.7442937104
 N,0,-2.1848386887,0.1452353302,0.688689665
 H,0,-1.5554629183,-0.6462175762,0.8160444576
 C,0,-2.2492597413,0.7278901044,-0.659633727
 H,0,-3.0607766188,1.4574744592,-0.6816607314
 H,0,-2.4395944245,-0.0609077128,-1.387049321
 C,0,-0.8700069073,1.3504493084,-0.9420936172
 O,0,-0.0344497896,0.777052021,-1.6255000746
 N,0,-0.6240219952,2.51135732,-0.25272927
 H,0,-1.3578187894,2.8453112093,0.3644492807
 C,0,0.7430574355,2.8669583199,0.1177061827
 H,0,0.7921001247,3.9333182912,0.3492088509
 H,0,1.402588824,2.6480473074,-0.7230230598
 C,0,1.1022384946,2.0604875323,1.3744609953
 O,0,0.5032961552,2.2837577996,2.4422046928
 N,0,2.0227435255,1.0893713637,1.2247829619
 H,0,2.3467406645,0.8593232153,0.2827953337
 C,0,2.208863345,0.0327093712,2.2197763696
 H,0,1.7345609042,0.3475558422,3.1482447619
 H,0,3.2757011084,-0.1295786524,2.4009908842
 C,0,1.5108933818,-1.199924054,1.6287752682
 O,0,0.2801854266,-1.2962864336,1.6309298372
 N,0,2.3349458477,-2.0757659435,0.9928772171
 H,0,3.3066126571,-1.789030126,0.9629845091
 C,0,1.8986064265,-2.6922666406,-0.2485686737
 H,0,2.4527485232,-3.6197992085,-0.4238221112
 H,0,0.8381447943,-2.9383616958,-0.162701453
 C,0,2.1452742977,-1.6739837514,-1.3925899886
 O,0,2.697128508,-0.5948733843,-1.1616166181
 N,0,1.7381260597,-2.0483377358,-2.616099628
 H,0,1.2808889616,-2.9386413296,-2.7649133495
 C,0,1.8259779553,-1.137298608,-3.7510382369
 H,0,2.8705751827,-0.8885190362,-3.9685174025
 H,0,1.3159921553,-0.1982695938,-3.509666939
 C,0,1.2118904334,-1.6995291363,-5.0183307177
 O,0,1.2091876436,-1.1154019744,-6.071479059
 O,0,0.6619819205,-2.9284042006,-4.8365532549
 H,0,0.3029588039,-3.2087022333,-5.700299287
 Recover connectivity data from disk.
                           ----------------------------
                           !    Current Parameters    !
                           ! (Angstroms and Degrees)  !
 --------------------------                            --------------------------
 ! Name  Definition              Value                                          !
 --------------------------------------------------------------------------------
 ! R1    R(1,2)                  1.0531                                         !
 ! R2    R(1,3)                  1.0228                                         !
 ! R3    R(1,4)                  1.0342                                         !
 ! R4    R(1,5)                  1.5012                                         !
 ! R5    R(5,6)                  1.093                                          !
 ! R6    R(5,7)                  1.0912                                         !
 ! R7    R(5,8)                  1.5349                                         !
 ! R8    R(8,9)                  1.2353                                         !
 ! R9    R(8,10)                 1.3436                                         !
 ! R10   R(10,11)                1.0192                                         !
 ! R11   R(10,12)                1.4702                                         !
 ! R12   R(12,13)                1.0915                                         !
 ! R13   R(12,14)                1.0898                                         !
 ! R14   R(12,15)                1.5394                                         !
 ! R15   R(15,16)                1.2223                                         !
 ! R16   R(15,17)                1.3724                                         !
 ! R17   R(17,18)                1.0153                                         !
 ! R18   R(17,19)                1.4603                                         !
 ! R19   R(19,20)                1.0923                                         !
 ! R20   R(19,21)                1.0907                                         !
 ! R21   R(19,22)                1.5359                                         !
 ! R22   R(22,23)                1.2445                                         !
 ! R23   R(22,24)                1.3464                                         !
 ! R24   R(24,25)                1.0224                                         !
 ! R25   R(24,26)                1.4633                                         !
 ! R26   R(26,27)                1.0891                                         !
 ! R27   R(26,28)                1.0942                                         !
 ! R28   R(26,29)                1.5349                                         !
 ! R29   R(29,30)                1.2345                                         !
 ! R30   R(29,31)                1.3603                                         !
 ! R31   R(31,32)                1.0135                                         !
 ! R32   R(31,33)                1.4532                                         !
 ! R33   R(33,34)                1.0946                                         !
 ! R34   R(33,35)                1.092                                          !
 ! R35   R(33,36)                1.5513                                         !
 ! R36   R(36,37)                1.2338                                         !
 ! R37   R(36,38)                1.3427                                         !
 ! R38   R(38,39)                1.0119                                         !
 ! R39   R(38,40)                1.458                                          !
 ! R40   R(40,41)                1.0956                                         !
 ! R41   R(40,42)                1.0955                                         !
 ! R42   R(40,43)                1.5163                                         !
 ! R43   R(43,44)                1.2043                                         !
 ! R44   R(43,45)                1.3585                                         !
 ! R45   R(45,46)                0.9765                                         !
 ! A1    A(2,1,3)              111.1894                                         !
 ! A2    A(2,1,4)              106.1366                                         !
 ! A3    A(2,1,5)              108.2147                                         !
 ! A4    A(3,1,4)              110.865                                          !
 ! A5    A(3,1,5)              113.6903                                         !
 ! A6    A(4,1,5)              106.3504                                         !
 ! A7    A(1,5,6)              108.8034                                         !
 ! A8    A(1,5,7)              109.3621                                         !
 ! A9    A(1,5,8)              103.8929                                         !
 ! A10   A(6,5,7)              110.9232                                         !
 ! A11   A(6,5,8)              110.9133                                         !
 ! A12   A(7,5,8)              112.6514                                         !
 ! A13   A(5,8,9)              117.9499                                         !
 ! A14   A(5,8,10)             116.6284                                         !
 ! A15   A(9,8,10)             125.3926                                         !
 ! A16   A(8,10,11)            116.9937                                         !
 ! A17   A(8,10,12)            120.2328                                         !
 ! A18   A(11,10,12)           116.7054                                         !
 ! A19   A(10,12,13)           108.4202                                         !
 ! A20   A(10,12,14)           109.448                                          !
 ! A21   A(10,12,15)           106.8152                                         !
 ! A22   A(13,12,14)           109.9076                                         !
 ! A23   A(13,12,15)           113.0869                                         !
 ! A24   A(14,12,15)           109.0712                                         !
 ! A25   A(12,15,16)           121.6927                                         !
 ! A26   A(12,15,17)           114.238                                          !
 ! A27   A(16,15,17)           123.7214                                         !
 ! A28   A(15,17,18)           117.0022                                         !
 ! A29   A(15,17,19)           120.0791                                         !
 ! A30   A(18,17,19)           116.2495                                         !
 ! A31   A(17,19,20)           109.4823                                         !
 ! A32   A(17,19,21)           108.7631                                         !
 ! A33   A(17,19,22)           107.3756                                         !
 ! A34   A(20,19,21)           109.3989                                         !
 ! A35   A(20,19,22)           109.1899                                         !
 ! A36   A(21,19,22)           112.5768                                         !
 ! A37   A(19,22,23)           119.6909                                         !
 ! A38   A(19,22,24)           116.5934                                         !
 ! A39   A(23,22,24)           123.6305                                         !
 ! A40   A(22,24,25)           118.7761                                         !
 ! A41   A(22,24,26)           122.1548                                         !
 ! A42   A(25,24,26)           115.0695                                         !
 ! A43   A(24,26,27)           108.3931                                         !
 ! A44   A(24,26,28)           110.1038                                         !
 ! A45   A(24,26,29)           105.0855                                         !
 ! A46   A(27,26,28)           109.0438                                         !
 ! A47   A(27,26,29)           111.2465                                         !
 ! A48   A(28,26,29)           112.8314                                         !
 ! A49   A(26,29,30)           121.0222                                         !
 ! A50   A(26,29,31)           114.9346                                         !
 ! A51   A(30,29,31)           123.6748                                         !
 ! A52   A(29,31,32)           114.3549                                         !
 ! A53   A(29,31,33)           119.3805                                         !
 ! A54   A(32,31,33)           112.5007                                         !
 ! A55   A(31,33,34)           110.1374                                         !
 ! A56   A(31,33,35)           108.6644                                         !
 ! A57   A(31,33,36)           107.6857                                         !
 ! A58   A(34,33,35)           108.2554                                         !
 ! A59   A(34,33,36)           110.9563                                         !
 ! A60   A(35,33,36)           111.1201                                         !
 ! A61   A(33,36,37)           120.4745                                         !
 ! A62   A(33,36,38)           116.1527                                         !
 ! A63   A(37,36,38)           123.3698                                         !
 ! A64   A(36,38,39)           121.0875                                         !
 ! A65   A(36,38,40)           121.1196                                         !
 ! A66   A(39,38,40)           117.5508                                         !
 ! A67   A(38,40,41)           110.7229                                         !
 ! A68   A(38,40,42)           109.6361                                         !
 ! A69   A(38,40,43)           113.2339                                         !
 ! A70   A(41,40,42)           107.0346                                         !
 ! A71   A(41,40,43)           107.7233                                         !
 ! A72   A(42,40,43)           108.2666                                         !
 ! A73   A(40,43,44)           123.4999                                         !
 ! A74   A(40,43,45)           112.7992                                         !
 ! A75   A(44,43,45)           123.7005                                         !
 ! A76   A(43,45,46)           106.8654                                         !
 ! D1    D(2,1,5,6)            169.7274                                         !
 ! D2    D(2,1,5,7)             48.4275                                         !
 ! D3    D(2,1,5,8)            -72.0654                                         !
 ! D4    D(3,1,5,6)             45.6771                                         !
 ! D5    D(3,1,5,7)            -75.6228                                         !
 ! D6    D(3,1,5,8)            163.8843                                         !
 ! D7    D(4,1,5,6)            -76.603                                          !
 ! D8    D(4,1,5,7)            162.0971                                         !
 ! D9    D(4,1,5,8)             41.6042                                         !
 ! D10   D(1,5,8,9)            -32.5436                                         !
 ! D11   D(1,5,8,10)           145.6032                                         !
 ! D12   D(6,5,8,9)             84.198                                          !
 ! D13   D(6,5,8,10)           -97.6552                                         !
 ! D14   D(7,5,8,9)           -150.7919                                         !
 ! D15   D(7,5,8,10)            27.3549                                         !
 ! D16   D(5,8,10,11)          -15.2538                                         !
 ! D17   D(5,8,10,12)         -166.9694                                         !
 ! D18   D(9,8,10,11)          162.738                                          !
 ! D19   D(9,8,10,12)           11.0224                                         !
 ! D20   D(8,10,12,13)         -36.4844                                         !
 ! D21   D(8,10,12,14)        -156.3658                                         !
 ! D22   D(8,10,12,15)          85.6842                                         !
 ! D23   D(11,10,12,13)        171.7215                                         !
 ! D24   D(11,10,12,14)         51.8401                                         !
 ! D25   D(11,10,12,15)        -66.1099                                         !
 ! D26   D(10,12,15,16)        100.2484                                         !
 ! D27   D(10,12,15,17)        -73.2168                                         !
 ! D28   D(13,12,15,16)       -140.5649                                         !
 ! D29   D(13,12,15,17)         45.97                                           !
 ! D30   D(14,12,15,16)        -17.9484                                         !
 ! D31   D(14,12,15,17)        168.5864                                         !
 ! D32   D(12,15,17,18)         -0.0845                                         !
 ! D33   D(12,15,17,19)        150.2332                                         !
 ! D34   D(16,15,17,18)       -173.3987                                         !
 ! D35   D(16,15,17,19)        -23.081                                          !
 ! D36   D(15,17,19,20)        161.3973                                         !
 ! D37   D(15,17,19,21)         41.9075                                         !
 ! D38   D(15,17,19,22)        -80.176                                          !
 ! D39   D(18,17,19,20)        -48.0708                                         !
 ! D40   D(18,17,19,21)       -167.5606                                         !
 ! D41   D(18,17,19,22)         70.3559                                         !
 ! D42   D(17,19,22,23)        -66.0054                                         !
 ! D43   D(17,19,22,24)        110.7606                                         !
 ! D44   D(20,19,22,23)         52.6101                                         !
 ! D45   D(20,19,22,24)       -130.6239                                         !
 ! D46   D(21,19,22,23)        174.3176                                         !
 ! D47   D(21,19,22,24)         -8.9165                                         !
 ! D48   D(19,22,24,25)         -7.4444                                         !
 ! D49   D(19,22,24,26)       -163.8283                                         !
 ! D50   D(23,22,24,25)        169.1813                                         !
 ! D51   D(23,22,24,26)         12.7973                                         !
 ! D52   D(22,24,26,27)        -16.8302                                         !
 ! D53   D(22,24,26,28)       -136.0314                                         !
 ! D54   D(22,24,26,29)        102.1922                                         !
 ! D55   D(25,24,26,27)       -174.0216                                         !
 ! D56   D(25,24,26,28)         66.7771                                         !
 ! D57   D(25,24,26,29)        -54.9993                                         !
 ! D58   D(24,26,29,30)        -75.7711                                         !
 ! D59   D(24,26,29,31)         97.5079                                         !
 ! D60   D(27,26,29,30)         41.3216                                         !
 ! D61   D(27,26,29,31)       -145.3994                                         !
 ! D62   D(28,26,29,30)        164.2465                                         !
 ! D63   D(28,26,29,31)        -22.4745                                         !
 ! D64   D(26,29,31,32)         -1.8647                                         !
 ! D65   D(26,29,31,33)       -139.3366                                         !
 ! D66   D(30,29,31,32)        171.2133                                         !
 ! D67   D(30,29,31,33)         33.7414                                         !
 ! D68   D(29,31,33,34)       -157.9363                                         !
 ! D69   D(29,31,33,35)        -39.5096                                         !
 ! D70   D(29,31,33,36)         80.9481                                         !
 ! D71   D(32,31,33,34)         63.8641                                         !
 ! D72   D(32,31,33,35)       -177.7092                                         !
 ! D73   D(32,31,33,36)        -57.2514                                         !
 ! D74   D(31,33,36,37)          3.7712                                         !
 ! D75   D(31,33,36,38)       -176.8381                                         !
 ! D76   D(34,33,36,37)       -116.8307                                         !
 ! D77   D(34,33,36,38)         62.56                                           !
 ! D78   D(35,33,36,37)        122.6695                                         !
 ! D79   D(35,33,36,38)        -57.9398                                         !
 ! D80   D(33,36,38,39)          1.2075                                         !
 ! D81   D(33,36,38,40)        175.4166                                         !
 ! D82   D(37,36,38,39)       -179.4213                                         !
 ! D83   D(37,36,38,40)         -5.2122                                         !
 ! D84   D(36,38,40,41)         63.7281                                         !
 ! D85   D(36,38,40,42)        -54.1464                                         !
 ! D86   D(36,38,40,43)       -175.1662                                         !
 ! D87   D(39,38,40,41)       -121.8647                                         !
 ! D88   D(39,38,40,42)        120.2608                                         !
 ! D89   D(39,38,40,43)         -0.759                                          !
 ! D90   D(38,40,43,44)       -178.3095                                         !
 ! D91   D(38,40,43,45)          1.9197                                         !
 ! D92   D(41,40,43,44)        -55.5261                                         !
 ! D93   D(41,40,43,45)        124.7031                                         !
 ! D94   D(42,40,43,44)         59.9005                                         !
 ! D95   D(42,40,43,45)       -119.8703                                         !
 ! D96   D(40,43,45,46)       -179.497                                          !
 ! D97   D(44,43,45,46)          0.7327                                         !
 --------------------------------------------------------------------------------
                          Input orientation:                          
 ---------------------------------------------------------------------
 Center     Atomic      Atomic             Coordinates (Angstroms)
 Number     Number       Type             X           Y           Z
 ---------------------------------------------------------------------
      1          7           0       -1.608586    1.507651    3.929720
      2          1           0       -0.676733    1.827809    3.557962
      3          1           0       -1.564964    1.333918    4.936698
      4          1           0       -2.279237    2.265208    3.715333
      5          6           0       -2.048153    0.315341    3.130395
      6          1           0       -2.915697   -0.135817    3.618769
      7          1           0       -1.224967   -0.397700    3.061835
      8          6           0       -2.432832    0.906914    1.767369
      9          8           0       -2.908112    2.046930    1.744294
     10          7           0       -2.184839    0.145235    0.688690
     11          1           0       -1.555463   -0.646218    0.816044
     12          6           0       -2.249260    0.727890   -0.659634
     13          1           0       -3.060777    1.457474   -0.681661
     14          1           0       -2.439594   -0.060908   -1.387049
     15          6           0       -0.870007    1.350449   -0.942094
     16          8           0       -0.034450    0.777052   -1.625500
     17          7           0       -0.624022    2.511357   -0.252729
     18          1           0       -1.357819    2.845311    0.364449
     19          6           0        0.743057    2.866958    0.117706
     20          1           0        0.792100    3.933318    0.349209
     21          1           0        1.402589    2.648047   -0.723023
     22          6           0        1.102238    2.060488    1.374461
     23          8           0        0.503296    2.283758    2.442205
     24          7           0        2.022744    1.089371    1.224783
     25          1           0        2.346741    0.859323    0.282795
     26          6           0        2.208863    0.032709    2.219776
     27          1           0        1.734561    0.347556    3.148245
     28          1           0        3.275701   -0.129579    2.400991
     29          6           0        1.510893   -1.199924    1.628775
     30          8           0        0.280185   -1.296286    1.630930
     31          7           0        2.334946   -2.075766    0.992877
     32          1           0        3.306613   -1.789030    0.962985
     33          6           0        1.898606   -2.692267   -0.248569
     34          1           0        2.452749   -3.619799   -0.423822
     35          1           0        0.838145   -2.938362   -0.162701
     36          6           0        2.145274   -1.673984   -1.392590
     37          8           0        2.697129   -0.594873   -1.161617
     38          7           0        1.738126   -2.048338   -2.616100
     39          1           0        1.280889   -2.938641   -2.764913
     40          6           0        1.825978   -1.137299   -3.751038
     41          1           0        2.870575   -0.888519   -3.968517
     42          1           0        1.315992   -0.198270   -3.509667
     43          6           0        1.211890   -1.699529   -5.018331
     44          8           0        1.209188   -1.115402   -6.071479
     45          8           0        0.661982   -2.928404   -4.836553
     46          1           0        0.302959   -3.208702   -5.700299
 ---------------------------------------------------------------------
                    Distance matrix (angstroms):
                    1          2          3          4          5
     1  N    0.000000
     2  H    1.053117   0.000000
     3  H    1.022785   1.712832   0.000000
     4  H    1.034228   1.668563   1.693878   0.000000
     5  C    1.501247   2.085946   2.129249   2.048789   0.000000
     6  H    2.122785   2.978672   2.391973   2.485826   1.093017
     7  H    2.128556   2.345122   2.574725   2.937623   1.091221
     8  C    2.390822   2.671733   3.313634   2.379731   1.534854
     9  O    2.599169   2.883828   3.536082   2.080414   2.378909
    10  N    3.562656   3.652145   4.454524   3.696453   2.451437
    11  H    3.786416   3.796194   4.571740   4.172064   2.554125
    12  C    4.699006   4.633657   5.670490   4.637303   3.817716
    13  H    4.834895   4.878034   5.815382   4.538368   4.106293
    14  H    5.605264   5.579254   6.534546   5.609887   4.549955
    15  C    4.929988   4.529430   5.919749   4.951195   4.364016
    16  O    5.819979   5.327748   6.761288   5.981486   5.185240
    17  N    4.412445   3.871871   5.403877   4.306488   4.277402
    18  H    3.816199   3.420192   4.820028   3.523344   3.811531
    19  C    4.680747   3.864065   5.558764   4.737012   4.835070
    20  H    4.946435   4.109348   5.775611   4.852473   5.375109
    21  H    5.658241   4.829410   6.524243   5.779395   5.674325
    22  C    3.766105   2.826050   4.509036   4.117762   4.006720
    23  O    2.697238   1.686793   3.376743   3.060015   3.295173
    24  N    4.547329   3.643650   5.168148   5.108079   4.560995
    25  H    5.418948   4.561368   6.097990   5.929460   5.264962
    26  C    4.435344   3.652368   4.828724   5.231041   4.362487
    27  H    3.623970   2.858908   3.880507   4.484368   3.782893
    28  H    5.373434   4.559790   5.657178   6.190302   5.391976
    29  C    4.728262   4.204122   5.179151   5.543100   4.149421
    30  O    4.088271   3.793300   4.609843   4.855885   3.204200
    31  N    6.084190   5.557677   6.510680   6.895397   5.431199
    32  H    6.620333   5.973481   7.019648   7.430611   6.148134
    33  C    6.884606   6.446172   7.422497   7.598911   6.003333
    34  H    7.857386   7.438058   8.331656   8.611481   6.955278
    35  H    6.519312   6.233344   7.073272   7.199608   5.455435
    36  C    7.248534   6.688367   7.929264   7.822046   6.480712
    37  O    6.991530   6.287031   7.686033   7.531860   6.462782
    38  N    8.166596   7.679525   8.910376   8.650602   7.276337
    39  H    8.540298   8.156598   9.255725   9.041468   7.511696
    40  C    8.819639   8.275078   9.647909   9.174777   8.029519
    41  H    9.390776   8.752699  10.193924   9.772825   8.719961
    42  H    8.173604   7.617567   9.054755   8.437714   7.461346
    43  C    9.915075   9.463711  10.771040  10.207056   9.004960
    44  O   10.716540  10.244283  11.613571  10.926084   9.865687
    45  O   10.083730   9.740720  10.892342  10.428765   9.018812
    46  H   10.891982  10.584973  11.716238  11.193103   9.794272
                    6          7          8          9         10
     6  H    0.000000
     7  H    1.799258   0.000000
     8  C    2.179021   2.199227   0.000000
     9  O    2.877169   3.247323   1.235338   0.000000
    10  N    3.032905   2.616859   1.343579   2.292131   0.000000
    11  H    3.156899   2.283542   2.021636   3.153466   1.019181
    12  C    4.415299   4.020629   2.440510   2.820074   1.470242
    13  H    4.588390   4.563510   2.587504   2.501204   2.089761
    14  H    5.028967   4.623994   3.299557   3.803656   2.101449
    15  C    5.214912   4.383316   3.159166   3.443201   2.416770
    16  O    6.052874   4.976794   4.157001   4.607172   3.221621
    17  N    5.219943   4.450852   3.150687   3.069342   2.986796
    18  H    4.680247   4.220268   2.623208   2.223689   2.842447
    19  C    5.887324   4.816534   4.080372   4.080352   4.038115
    20  H    6.402784   5.494053   4.644404   4.381357   4.829802
    21  H    6.726712   5.523203   4.893266   5.003113   4.596372
    22  C    5.099459   3.782301   3.739229   4.027390   3.865663
    23  O    4.350651   3.249777   3.312394   3.490111   3.856704
    24  N    5.623207   4.016685   4.492198   5.049767   4.345404
    25  H    6.309697   4.696835   5.005051   5.582102   4.605419
    26  C    5.314763   3.561671   4.744917   5.519656   4.654192
    27  H    4.698930   3.053142   4.425705   5.139393   4.631634
    28  H    6.310027   4.556821   5.836364   6.588474   5.729310
    29  C    4.968612   3.190948   4.473359   5.484798   4.043717
    30  O    3.938510   2.262836   3.497595   4.621167   3.007016
    31  N    6.182877   4.446287   5.676964   6.711997   5.045179
    32  H    6.964442   5.184224   6.391899   7.344919   5.828607
    33  C    6.683506   5.097108   5.981594   7.038183   5.060079
    34  H    7.569735   6.004774   7.011515   8.096380   6.076215
    35  H    6.020391   4.594456   5.404683   6.521058   4.401348
    36  C    7.286502   5.729688   6.132326   7.015836   5.137233
    37  O    7.386923   5.767083   6.095147   6.844133   5.273044
    38  N    8.011829   6.613884   6.733884   7.574416   5.578803
    39  H    8.137479   6.832766   7.008680   7.920644   5.783506
    40  C    8.820460   7.501367   7.264233   7.921464   6.119046
    41  H    9.571543   8.151087   8.015616   8.639809   6.950931
    42  H    8.290096   7.048466   6.566751   7.105496   5.477227
    43  C    9.699571   8.539444   8.131621   8.760335   6.892823
    44  O   10.577106   9.479326   8.877027   9.382900   7.668670
    45  O    9.596396   8.505855   8.240105   8.989275   6.933971
    46  H   10.327023   9.327984   8.954826   9.662019   7.632641
                   11         12         13         14         15
    11  H    0.000000
    12  C    2.132405   0.000000
    13  H    2.989082   1.091484   0.000000
    14  H    2.444974   1.089754   1.785756   0.000000
    15  C    2.747286   1.539384   2.208790   2.157202   0.000000
    16  O    3.209411   2.416754   3.242293   2.558077   1.222287
    17  N    3.461234   2.446983   2.689317   3.346570   1.372384
    18  H    3.526156   2.515330   2.433208   3.561474   2.044414
    19  C    4.255970   3.759499   4.134584   4.578860   2.454578
    20  H    5.167314   4.532373   4.694375   5.423309   3.331857
    21  H    4.687321   4.126381   4.619611   4.747814   2.626108
    22  C    3.834248   4.140761   4.682089   4.966975   3.124153
    23  O    3.932892   4.429299   4.810810   5.368542   3.769682
    24  N    3.997862   4.683130   5.441710   5.296911   3.623744
    25  H    4.216420   4.693471   5.525324   5.152107   3.476927
    26  C    4.074501   5.352489   6.182022   5.884396   4.605790
    27  H    4.153432   5.524076   6.236614   6.177322   4.951811
    28  H    5.110687   6.373999   7.223048   6.857009   5.527530
    29  C    3.220196   4.805417   5.770619   5.098913   4.333873
    30  O    2.110979   3.967627   4.908493   4.246359   3.866342
    31  N    4.148513   5.621941   6.663459   5.702626   5.074917
    32  H    4.996738   6.311537   7.334050   6.444219   5.561457
    33  C    4.153350   5.391775   6.481003   5.200017   4.948712
    34  H    5.142491   6.408345   7.499610   6.126054   6.001057
    35  H    3.455608   4.818756   5.898668   4.530159   4.681788
    36  C    4.430556   5.061438   6.116733   4.860357   4.294422
    37  O    4.690236   5.144749   6.131555   5.169319   4.069020
    38  N    4.959161   5.237790   6.249979   4.786835   4.599609
    39  H    5.111101   5.507958   6.520417   4.901210   5.132770
    40  C    5.703819   5.444564   6.327266   4.994214   4.620324
    41  H    6.522312   6.306679   7.175517   5.962115   5.306993
    42  H    5.211304   4.657412   5.467651   4.316110   3.710735
    43  C    6.542755   6.072081   6.857774   5.404130   5.500216
    44  O    7.436492   6.681815   7.341827   6.030709   6.059213
    45  O    6.486702   6.268211   7.096337   5.453567   5.985181
    46  H    7.244501   6.886137   7.633784   6.002860   6.693447
                   16         17         18         19         20
    16  O    0.000000
    17  N    2.289085   0.000000
    18  H    3.160522   1.015329   0.000000
    19  C    2.830370   1.460336   2.115427   0.000000
    20  H    3.813748   2.095162   2.409594   1.092301   0.000000
    21  H    2.525899   2.084949   2.973442   1.090747   1.781656
    22  C    3.455291   2.414748   2.772716   1.535851   2.157504
    23  O    4.370990   2.930071   2.845375   2.408506   2.680502
    24  N    3.528980   3.348202   3.905343   2.454186   3.220116
    25  H    3.052610   3.441138   4.204114   2.574811   3.445397
    26  C    4.513607   4.503578   4.906546   3.821028   4.552032
    27  H    5.109061   4.670286   4.852949   4.063820   4.645485
    28  H    5.290719   5.405979   5.870858   4.539483   5.185095
    29  C    4.109359   4.676701   5.117808   4.405954   5.338926
    30  O    3.873250   4.343261   4.630320   4.453841   5.408663
    31  N    4.539659   5.598993   6.184532   5.265981   6.237289
    32  H    4.944464   5.951570   6.602445   5.381871   6.280507
    33  C    4.203429   5.782852   6.453283   5.689854   6.743891
    34  H    5.192541   6.861987   7.545823   6.730105   7.772060
    35  H    4.087236   5.643179   6.208946   5.812866   6.890875
    36  C    3.288316   5.146393   5.981879   4.986719   6.025511
    37  O    3.091745   4.637325   5.532300   4.176044   5.139674
    38  N    3.479388   5.652971   6.512783   5.711742   6.743013
    39  H    4.103018   6.296208   7.085887   6.504133   7.560456
    40  C    3.412307   5.617237   6.552479   5.672211   6.602430
    41  H    4.086934   6.130126   7.113045   5.943666   6.798010
    42  H    2.514961   4.659761   5.605482   4.783483   5.677623
    43  C    4.381566   6.619146   7.498887   6.888504   7.792026
    44  O    4.989463   7.097316   7.981099   7.374448   8.178556
    45  O    4.952402   7.228849   8.029060   7.624794   8.601877
    46  H    5.709997   7.953263   8.728713   8.423570   9.372527
                   21         22         23         24         25
    21  H    0.000000
    22  C    2.198835   0.000000
    23  O    3.310604   1.244451   0.000000
    24  N    2.570605   1.346402   2.284162   0.000000
    25  H    2.258900   2.045315   3.176531   1.022368   0.000000
    26  C    4.018724   2.459890   2.832958   1.463280   2.110497
    27  H    4.515438   2.545639   2.400705   2.081597   2.974470
    28  H    4.580744   3.251783   3.675884   2.106943   2.515481
    29  C    4.511050   3.295749   3.716579   2.380352   2.598231
    30  O    4.728494   3.465470   3.677589   2.982084   3.276396
    31  N    5.111557   4.332870   4.945800   3.188941   3.019785
    32  H    5.114253   4.455038   5.160841   3.162602   2.897894
    33  C    5.384245   5.084988   5.826489   4.060414   3.618973
    34  H    6.362252   6.109284   6.845908   5.007903   4.535756
    35  H    5.642741   5.236517   5.845356   4.421654   4.110564
    36  C    4.436198   4.763483   5.750257   3.808121   3.043871
    37  O    3.519195   4.003287   5.107538   2.997729   2.079371
    38  N    5.074678   5.762931   6.773352   4.967756   4.150722
    39  H    5.949388   6.492890   7.415671   5.717772   4.984887
    40  C    4.865900   6.084437   7.197873   5.454867   4.530950
    41  H    5.019514   6.353823   7.534236   5.621498   4.626339
    42  H    3.984269   5.385386   6.499670   4.957069   4.069854
    43  C    6.114528   7.417381   8.486947   6.885631   5.994793
    44  O    6.542701   8.095662   9.194312   7.665399   6.750583
    45  O    6.968963   7.978694   8.953889   7.398242   6.587338
    46  H    7.764276   8.857508   9.823829   8.329938   7.518198
                   26         27         28         29         30
    26  C    0.000000
    27  H    1.089103   0.000000
    28  H    1.094221   1.777965   0.000000
    29  C    1.534871   2.180254   2.203747   0.000000
    30  O    2.415113   2.668271   3.305649   1.234477   0.000000
    31  N    2.442713   3.298266   2.579816   1.360341   2.288392
    32  H    2.470489   3.436817   2.196041   2.003729   3.138186
    33  C    3.689781   4.561335   3.934962   2.429368   2.846149
    34  H    4.515408   5.386591   4.564916   3.309991   3.786918
    35  H    4.047510   4.750072   4.517019   2.585371   2.494964
    36  C    3.995752   4.987433   4.249036   3.123431   3.572518
    37  O    3.473627   4.515486   3.639151   3.091848   3.759243
    38  N    5.285645   6.242434   5.587215   4.334790   4.552849
    39  H    5.876835   6.780144   6.209402   4.730807   4.798143
    40  C    6.096404   7.057851   6.400364   5.389396   5.601815
    41  H    6.291383   7.312094   6.427344   5.768483   6.183058
    42  H    5.803197   6.693348   6.227444   5.238787   5.357637
    43  C    7.508981   8.435443   7.859414   6.672558   6.726317
    44  O    8.429853   9.349843   8.776393   7.706626   7.760339
    45  O    7.807229   8.697088   8.188223   6.746019   6.681161
    46  H    8.767372   9.643298   9.162374   7.694779   7.576594
                   31         32         33         34         35
    31  N    0.000000
    32  H    1.013532   0.000000
    33  C    1.453153   2.065473   0.000000
    34  H    2.098798   2.450313   1.094579   0.000000
    35  H    2.078424   2.946433   1.092023   1.771860   0.000000
    36  C    2.426491   2.628816   1.551299   2.195279   2.195419
    37  O    2.639330   2.512252   2.422881   3.123178   3.153663
    38  N    3.658095   3.916278   2.458780   2.790387   2.760665
    39  H    3.997071   4.395723   2.602742   2.705169   2.639608
    40  C    4.862561   4.983878   3.832818   4.198335   4.134707
    41  H    5.129512   5.031974   4.246910   4.494367   4.776700
    42  H    4.983589   5.147592   4.146592   4.745684   4.351853
    43  C    6.126780   6.338139   4.920136   5.131927   5.025090
    44  O    7.217670   7.371339   6.071910   6.301942   6.194716
    45  O    6.124382   6.475097   4.757584   4.812179   4.677181
    46  H    7.085981   7.445586   5.703873   5.712426   5.569964
                   36         37         38         39         40
    36  C    0.000000
    37  O    1.233844   0.000000
    38  N    1.342716   2.268869   0.000000
    39  H    2.056646   3.173254   1.011856   0.000000
    40  C    2.439725   2.785360   1.458011   2.124712   0.000000
    41  H    2.788982   2.827544   2.111079   2.859854   1.095615
    42  H    2.710619   2.752848   2.097477   2.839987   1.095500
    43  C    3.744042   4.277901   2.483809   2.572557   1.516323
    44  O    4.804193   5.156711   3.617982   3.776602   2.401115
    45  O    3.954062   4.805450   2.619736   2.162138   2.396099
    46  H    4.930096   5.758801   3.594223   3.105764   3.226441
                   41         42         43         44         45
    41  H    0.000000
    42  H    1.761737   0.000000
    43  C    2.123930   2.130888   0.000000
    44  O    2.689634   2.723127   1.204298   0.000000
    45  O    3.129297   3.105156   1.358520   2.260852   0.000000
    46  H    3.869751   3.858473   1.889138   2.311045   0.976484
                   46
    46  H    0.000000
 Symmetry turned off by external request.
 Stoichiometry    C12H21N6O7(1+)
 Framework group  C1[X(C12H21N6O7)]
 Deg. of freedom   132
 Full point group                 C1      NOp   1
 Rotational constants (GHZ):           0.3409524           0.1380498           0.1224013
 Standard basis: 6-31G(d) (6D, 7F)
   417 basis functions,   784 primitive gaussians,   417 cartesian basis functions
    95 alpha electrons       95 beta electrons
       nuclear repulsion energy      2490.3962757239 Hartrees.
 NAtoms=   46 NActive=   46 NUniq=   46 SFac= 1.00D+00 NAtFMM=   60 NAOKFM=F Big=F
 Integral buffers will be    131072 words long.
 Raffenetti 2 integral format.
 Two-electron integral symmetry is turned off.
 One-electron integrals computed using PRISM.
 NBasis=   417 RedAO= T EigKep=  2.57D-03  NBF=   417
 NBsUse=   417 1.00D-06 EigRej= -1.00D+00 NBFU=   417
 Initial guess from the checkpoint file:  "conf-797.chk"
 B after Tr=     0.000000    0.000000    0.000000
         Rot=    1.000000    0.000000    0.000000    0.000000 Ang=   0.00 deg.
 Requested convergence on RMS density matrix=1.00D-08 within 128 cycles.
 Requested convergence on MAX density matrix=1.00D-06.
 Requested convergence on             energy=1.00D-06.
 No special actions if energy rises.
 SCF Done:  E(RB3LYP) =  -1324.88307182     A.U. after    1 cycles
            NFock=  1  Conv=0.79D-08     -V/T= 2.0092

 **********************************************************************

            Population analysis using the SCF Density.

 **********************************************************************

 Alpha  occ. eigenvalues --  -19.29370 -19.26794 -19.25762 -19.25743 -19.23502
 Alpha  occ. eigenvalues --  -19.23027 -19.22821 -14.59095 -14.50434 -14.49508
 Alpha  occ. eigenvalues --  -14.48819 -14.47498 -14.47138 -10.43993 -10.42504
 Alpha  occ. eigenvalues --  -10.42494 -10.41622 -10.40571 -10.40158 -10.39577
 Alpha  occ. eigenvalues --  -10.35868 -10.34989 -10.34873 -10.34616 -10.32849
 Alpha  occ. eigenvalues --   -1.19892  -1.19165  -1.17480  -1.16700  -1.15255
 Alpha  occ. eigenvalues --   -1.14654  -1.13368  -1.10907  -1.06701  -1.05910
 Alpha  occ. eigenvalues --   -1.05040  -1.03680  -1.03324  -0.90283  -0.88770
 Alpha  occ. eigenvalues --   -0.86515  -0.84855  -0.82518  -0.80494  -0.74328
 Alpha  occ. eigenvalues --   -0.73094  -0.72736  -0.71950  -0.71364  -0.71206
 Alpha  occ. eigenvalues --   -0.69650  -0.69280  -0.66657  -0.66322  -0.64766
 Alpha  occ. eigenvalues --   -0.63364  -0.62897  -0.61881  -0.61117  -0.60510
 Alpha  occ. eigenvalues --   -0.59632  -0.58830  -0.58639  -0.58381  -0.57679
 Alpha  occ. eigenvalues --   -0.56957  -0.56581  -0.55563  -0.54958  -0.54162
 Alpha  occ. eigenvalues --   -0.53634  -0.53315  -0.53114  -0.52328  -0.51811
 Alpha  occ. eigenvalues --   -0.51392  -0.50878  -0.50396  -0.49858  -0.49357
 Alpha  occ. eigenvalues --   -0.48991  -0.48767  -0.46696  -0.41719  -0.41511
 Alpha  occ. eigenvalues --   -0.41153  -0.40751  -0.40569  -0.39597  -0.37757
 Alpha  occ. eigenvalues --   -0.37402  -0.37150  -0.36474  -0.36357  -0.35908
 Alpha virt. eigenvalues --   -0.13916  -0.13814  -0.10585  -0.09098  -0.08867
 Alpha virt. eigenvalues --   -0.08637  -0.07790  -0.03982  -0.03154  -0.02306
 Alpha virt. eigenvalues --   -0.01850  -0.00774  -0.00360   0.00288   0.00929
 Alpha virt. eigenvalues --    0.01414   0.02117   0.02451   0.03234   0.04275
 Alpha virt. eigenvalues --    0.04628   0.04898   0.05324   0.05836   0.06652
 Alpha virt. eigenvalues --    0.07142   0.07177   0.07462   0.08302   0.08537
 Alpha virt. eigenvalues --    0.09362   0.09971   0.10285   0.11135   0.11659
 Alpha virt. eigenvalues --    0.12746   0.13324   0.13833   0.17091   0.17609
 Alpha virt. eigenvalues --    0.20133   0.21430   0.21841   0.23592   0.24406
 Alpha virt. eigenvalues --    0.25973   0.27270   0.27964   0.28113   0.30093
 Alpha virt. eigenvalues --    0.31849   0.33650   0.36288   0.38375   0.38480
 Alpha virt. eigenvalues --    0.39481   0.40231   0.40922   0.41506   0.41947
 Alpha virt. eigenvalues --    0.42842   0.43649   0.44210   0.44440   0.45585
 Alpha virt. eigenvalues --    0.46846   0.47497   0.48163   0.48266   0.48360
 Alpha virt. eigenvalues --    0.49258   0.49868   0.50041   0.50623   0.51823
 Alpha virt. eigenvalues --    0.52690   0.53079   0.53688   0.54111   0.56359
 Alpha virt. eigenvalues --    0.56476   0.56751   0.57748   0.58809   0.59560
 Alpha virt. eigenvalues --    0.60277   0.60582   0.61755   0.61999   0.63580
 Alpha virt. eigenvalues --    0.64599   0.65848   0.66953   0.67360   0.67885
 Alpha virt. eigenvalues --    0.68276   0.68971   0.69654   0.69882   0.70661
 Alpha virt. eigenvalues --    0.71388   0.71657   0.73496   0.73902   0.74328
 Alpha virt. eigenvalues --    0.74833   0.75508   0.75593   0.76633   0.77199
 Alpha virt. eigenvalues --    0.77985   0.78254   0.78591   0.78978   0.79968
 Alpha virt. eigenvalues --    0.80345   0.81169   0.81956   0.82919   0.83324
 Alpha virt. eigenvalues --    0.84512   0.85006   0.85958   0.86270   0.86888
 Alpha virt. eigenvalues --    0.88618   0.91559   0.93361   0.93942   0.94329
 Alpha virt. eigenvalues --    0.96341   0.96577   0.96829   0.98870   0.99517
 Alpha virt. eigenvalues --    0.99816   1.01085   1.01871   1.03499   1.03968
 Alpha virt. eigenvalues --    1.04720   1.05877   1.07255   1.08218   1.08671
 Alpha virt. eigenvalues --    1.09816   1.10532   1.12033   1.13680   1.14688
 Alpha virt. eigenvalues --    1.15216   1.17785   1.18835   1.19209   1.20620
 Alpha virt. eigenvalues --    1.21335   1.22414   1.24160   1.24605   1.27411
 Alpha virt. eigenvalues --    1.28776   1.30046   1.30770   1.31631   1.32264
 Alpha virt. eigenvalues --    1.34207   1.34669   1.35471   1.36561   1.37800
 Alpha virt. eigenvalues --    1.40619   1.41119   1.42224   1.43605   1.44349
 Alpha virt. eigenvalues --    1.46603   1.47597   1.51753   1.51861   1.55078
 Alpha virt. eigenvalues --    1.56750   1.58277   1.59139   1.59640   1.60483
 Alpha virt. eigenvalues --    1.62046   1.62113   1.63484   1.63968   1.64400
 Alpha virt. eigenvalues --    1.65273   1.65842   1.66288   1.67602   1.67947
 Alpha virt. eigenvalues --    1.68565   1.68919   1.70070   1.70777   1.72203
 Alpha virt. eigenvalues --    1.72800   1.73500   1.74557   1.75117   1.75816
 Alpha virt. eigenvalues --    1.77325   1.77609   1.79014   1.79881   1.80207
 Alpha virt. eigenvalues --    1.80615   1.81291   1.81561   1.82185   1.82524
 Alpha virt. eigenvalues --    1.84329   1.84796   1.85213   1.85813   1.86221
 Alpha virt. eigenvalues --    1.87623   1.88982   1.90371   1.90881   1.93120
 Alpha virt. eigenvalues --    1.93726   1.94449   1.96674   1.97679   1.98820
 Alpha virt. eigenvalues --    1.99707   2.00399   2.01516   2.02794   2.03077
 Alpha virt. eigenvalues --    2.06995   2.07620   2.10508   2.12668   2.13011
 Alpha virt. eigenvalues --    2.17451   2.18119   2.18931   2.19309   2.19393
 Alpha virt. eigenvalues --    2.20168   2.21238   2.21689   2.23194   2.24444
 Alpha virt. eigenvalues --    2.25311   2.26368   2.27778   2.28989   2.30774
 Alpha virt. eigenvalues --    2.31099   2.32488   2.34047   2.34641   2.34853
 Alpha virt. eigenvalues --    2.37014   2.39753   2.40374   2.43356   2.46767
 Alpha virt. eigenvalues --    2.47772   2.50838   2.51499   2.51932   2.53273
 Alpha virt. eigenvalues --    2.54892   2.55076   2.57048   2.58800   2.59511
 Alpha virt. eigenvalues --    2.61113   2.63712   2.64136   2.66343   2.73485
 Alpha virt. eigenvalues --    2.75136   2.75897   2.76114   2.77934   2.79896
 Alpha virt. eigenvalues --    2.84951   2.87028   2.89098   2.90516   2.92573
 Alpha virt. eigenvalues --    2.93300   2.97467   2.98270   2.99602   3.00818
 Alpha virt. eigenvalues --    3.02026   3.08850   3.67897   3.75248   3.82319
 Alpha virt. eigenvalues --    3.86402   3.87175   3.88643   3.90728   3.97386
 Alpha virt. eigenvalues --    3.99382   4.02651   4.05061   4.08079   4.09625
 Alpha virt. eigenvalues --    4.12970   4.14067   4.14337   4.19939   4.22406
 Alpha virt. eigenvalues --    4.29119   4.37007   4.38719   4.42325   4.43859
 Alpha virt. eigenvalues --    4.46157   4.46688
          Condensed to atoms (all electrons):
               1          2          3          4          5          6
     1  N    6.927142   0.208553   0.302742   0.264735   0.214109  -0.032503
     2  H    0.208553   0.284133  -0.007632  -0.007337  -0.016763   0.002759
     3  H    0.302742  -0.007632   0.326503  -0.011300  -0.021259  -0.002611
     4  H    0.264735  -0.007337  -0.011300   0.321902  -0.039544   0.000151
     5  C    0.214109  -0.016763  -0.021259  -0.039544   5.371533   0.365720
     6  H   -0.032503   0.002759  -0.002611   0.000151   0.365720   0.465192
     7  H   -0.026207  -0.002012  -0.000766   0.003749   0.329772  -0.016416
     8  C   -0.040836  -0.002466   0.004364  -0.002249   0.292937  -0.022301
     9  O   -0.020567   0.000665   0.000672   0.048102  -0.091330   0.000691
    10  N    0.000130   0.000187  -0.000065   0.002036  -0.101354  -0.000480
    11  H    0.000094   0.000001  -0.000006  -0.000073  -0.000745   0.000137
    12  C   -0.000063  -0.000032   0.000002  -0.000071   0.006617  -0.000139
    13  H   -0.000007   0.000000  -0.000000  -0.000026   0.000701   0.000004
    14  H   -0.000000   0.000000  -0.000000  -0.000000  -0.000114   0.000008
    15  C    0.000023   0.000017   0.000000   0.000028  -0.000561  -0.000007
    16  O    0.000000   0.000001   0.000000   0.000000  -0.000002   0.000000
    17  N   -0.000002  -0.000208  -0.000001   0.000072  -0.000262  -0.000001
    18  H    0.000228  -0.000068   0.000005  -0.000176   0.000586  -0.000000
    19  C   -0.000173   0.001288  -0.000001  -0.000014   0.000012  -0.000001
    20  H    0.000001  -0.000016  -0.000000   0.000001  -0.000003  -0.000000
    21  H    0.000002  -0.000026  -0.000000   0.000000  -0.000003  -0.000000
    22  C    0.002103  -0.007861  -0.000020   0.000019   0.000285   0.000018
    23  O   -0.043552   0.088654   0.000639   0.000474   0.002120   0.000034
    24  N    0.000087  -0.000350  -0.000000  -0.000000  -0.000171  -0.000002
    25  H    0.000002  -0.000018  -0.000000   0.000000  -0.000002   0.000000
    26  C   -0.000146   0.000167   0.000006   0.000002   0.000295  -0.000002
    27  H    0.000106   0.001229  -0.000013   0.000002  -0.000256   0.000004
    28  H   -0.000000   0.000002  -0.000000  -0.000000   0.000001   0.000000
    29  C   -0.000007   0.000028   0.000001  -0.000000   0.000049   0.000007
    30  O   -0.000019   0.000190  -0.000002  -0.000006  -0.012936   0.000214
    31  N    0.000000   0.000000  -0.000000  -0.000000  -0.000025   0.000000
    32  H    0.000000  -0.000000  -0.000000   0.000000   0.000001  -0.000000
    33  C   -0.000000   0.000000   0.000000   0.000000   0.000001  -0.000000
    34  H    0.000000  -0.000000   0.000000   0.000000   0.000000  -0.000000
    35  H    0.000000  -0.000000   0.000000   0.000000   0.000003  -0.000000
    36  C   -0.000000   0.000000  -0.000000  -0.000000  -0.000000   0.000000
    37  O   -0.000000   0.000000   0.000000   0.000000   0.000000  -0.000000
    38  N    0.000000  -0.000000  -0.000000  -0.000000  -0.000000  -0.000000
    39  H    0.000000  -0.000000  -0.000000  -0.000000  -0.000000   0.000000
    40  C   -0.000000   0.000000   0.000000   0.000000   0.000000   0.000000
    41  H    0.000000  -0.000000  -0.000000  -0.000000  -0.000000   0.000000
    42  H    0.000000  -0.000000  -0.000000  -0.000000  -0.000000  -0.000000
    43  C    0.000000  -0.000000  -0.000000  -0.000000  -0.000000  -0.000000
    44  O    0.000000   0.000000   0.000000   0.000000   0.000000  -0.000000
    45  O    0.000000   0.000000   0.000000   0.000000  -0.000000  -0.000000
    46  H    0.000000  -0.000000  -0.000000  -0.000000  -0.000000  -0.000000
               7          8          9         10         11         12
     1  N   -0.026207  -0.040836  -0.020567   0.000130   0.000094  -0.000063
     2  H   -0.002012  -0.002466   0.000665   0.000187   0.000001  -0.000032
     3  H   -0.000766   0.004364   0.000672  -0.000065  -0.000006   0.000002
     4  H    0.003749  -0.002249   0.048102   0.002036  -0.000073  -0.000071
     5  C    0.329772   0.292937  -0.091330  -0.101354  -0.000745   0.006617
     6  H   -0.016416  -0.022301   0.000691  -0.000480   0.000137  -0.000139
     7  H    0.445639  -0.023146   0.002273   0.003026  -0.000525  -0.000122
     8  C   -0.023146   4.371641   0.504241   0.327635  -0.018928  -0.029790
     9  O    0.002273   0.504241   8.142608  -0.087473   0.002403   0.003730
    10  N    0.003026   0.327635  -0.087473   7.046273   0.275572   0.256051
    11  H   -0.000525  -0.018928   0.002403   0.275572   0.341650  -0.026601
    12  C   -0.000122  -0.029790   0.003730   0.256051  -0.026601   5.179901
    13  H   -0.000023  -0.003421   0.008469  -0.034871   0.003362   0.354845
    14  H   -0.000011   0.004692   0.000337  -0.029802  -0.002108   0.356994
    15  C    0.000047  -0.006854  -0.002047  -0.051891   0.001762   0.323483
    16  O   -0.000001  -0.000173  -0.000001  -0.001493   0.001560  -0.069278
    17  N    0.000021   0.008135  -0.010264   0.000583   0.000056  -0.119492
    18  H   -0.000078   0.002766   0.027532  -0.007214  -0.000083   0.003761
    19  C    0.000019  -0.001574   0.000566  -0.001079  -0.000016   0.008252
    20  H    0.000000   0.000037  -0.000009  -0.000014  -0.000001  -0.000145
    21  H    0.000000   0.000005  -0.000004  -0.000035  -0.000007   0.000524
    22  C    0.000507   0.001390  -0.000292   0.001422  -0.000140  -0.000949
    23  O    0.000262   0.004721  -0.000722  -0.000677   0.000066  -0.000073
    24  N   -0.000076  -0.000051   0.000004  -0.000004  -0.000096  -0.000068
    25  H    0.000005  -0.000001   0.000000  -0.000015  -0.000000   0.000039
    26  C   -0.001069   0.000031  -0.000001  -0.000104   0.000505   0.000008
    27  H    0.001346  -0.000043   0.000002   0.000004  -0.000034  -0.000000
    28  H    0.000013  -0.000001   0.000000   0.000001  -0.000008  -0.000000
    29  C    0.000122   0.000036  -0.000000   0.000810  -0.001709  -0.000045
    30  O    0.032324   0.000689   0.000003  -0.010343   0.033445  -0.000366
    31  N    0.000214   0.000002   0.000000   0.000013  -0.000207   0.000001
    32  H   -0.000005  -0.000000  -0.000000   0.000000  -0.000004   0.000000
    33  C   -0.000010   0.000000  -0.000000  -0.000013   0.000050  -0.000007
    34  H    0.000000  -0.000000  -0.000000   0.000000  -0.000000  -0.000000
    35  H   -0.000020  -0.000001  -0.000000  -0.000035   0.000362   0.000015
    36  C    0.000000   0.000000   0.000000  -0.000003   0.000055  -0.000016
    37  O   -0.000000   0.000000  -0.000000   0.000001  -0.000002  -0.000008
    38  N    0.000000  -0.000000   0.000000  -0.000000  -0.000003   0.000015
    39  H    0.000000   0.000000  -0.000000   0.000000  -0.000001  -0.000001
    40  C   -0.000000  -0.000000  -0.000000  -0.000000   0.000001  -0.000018
    41  H    0.000000   0.000000   0.000000  -0.000000   0.000000  -0.000000
    42  H   -0.000000   0.000000   0.000000   0.000000  -0.000001   0.000028
    43  C    0.000000  -0.000000   0.000000   0.000000  -0.000000   0.000001
    44  O   -0.000000  -0.000000   0.000000  -0.000000   0.000000   0.000000
    45  O   -0.000000   0.000000  -0.000000   0.000000   0.000000  -0.000000
    46  H    0.000000   0.000000   0.000000   0.000000  -0.000000   0.000000
              13         14         15         16         17         18
     1  N   -0.000007  -0.000000   0.000023   0.000000  -0.000002   0.000228
     2  H    0.000000   0.000000   0.000017   0.000001  -0.000208  -0.000068
     3  H   -0.000000  -0.000000   0.000000   0.000000  -0.000001   0.000005
     4  H   -0.000026  -0.000000   0.000028   0.000000   0.000072  -0.000176
     5  C    0.000701  -0.000114  -0.000561  -0.000002  -0.000262   0.000586
     6  H    0.000004   0.000008  -0.000007   0.000000  -0.000001  -0.000000
     7  H   -0.000023  -0.000011   0.000047  -0.000001   0.000021  -0.000078
     8  C   -0.003421   0.004692  -0.006854  -0.000173   0.008135   0.002766
     9  O    0.008469   0.000337  -0.002047  -0.000001  -0.010264   0.027532
    10  N   -0.034871  -0.029802  -0.051891  -0.001493   0.000583  -0.007214
    11  H    0.003362  -0.002108   0.001762   0.001560   0.000056  -0.000083
    12  C    0.354845   0.356994   0.323483  -0.069278  -0.119492   0.003761
    13  H    0.490683  -0.019398  -0.025687   0.002233   0.004007  -0.000513
    14  H   -0.019398   0.503856  -0.028325   0.004276   0.005088  -0.000098
    15  C   -0.025687  -0.028325   4.427725   0.560605   0.255316  -0.013949
    16  O    0.002233   0.004276   0.560605   8.059308  -0.097723   0.002866
    17  N    0.004007   0.005088   0.255316  -0.097723   7.112634   0.276932
    18  H   -0.000513  -0.000098  -0.013949   0.002866   0.276932   0.365733
    19  C   -0.000072  -0.000196  -0.026222   0.003708   0.261603  -0.027550
    20  H   -0.000010   0.000002   0.004390   0.000319  -0.031583  -0.002290
    21  H   -0.000033  -0.000001  -0.002660   0.010836  -0.034201   0.003879
    22  C    0.000025   0.000008  -0.004039  -0.000147  -0.050335  -0.001342
    23  O    0.000002  -0.000001  -0.000027   0.000022  -0.003560   0.004756
    24  N   -0.000002   0.000002   0.003094  -0.000963  -0.001117   0.000205
    25  H   -0.000000  -0.000001   0.000228   0.001988  -0.000250  -0.000001
    26  C    0.000000  -0.000000  -0.000356   0.000001  -0.000274   0.000006
    27  H   -0.000000  -0.000000  -0.000006   0.000001  -0.000028  -0.000008
    28  H   -0.000000   0.000000   0.000004  -0.000001  -0.000003  -0.000000
    29  C    0.000001   0.000003   0.000600   0.000332  -0.000002   0.000003
    30  O   -0.000006   0.000004   0.000884  -0.000226  -0.000007   0.000007
    31  N   -0.000000  -0.000000  -0.000028  -0.000008   0.000000   0.000000
    32  H    0.000000   0.000000  -0.000001   0.000000  -0.000000  -0.000000
    33  C   -0.000000  -0.000002   0.000019  -0.000247   0.000002   0.000000
    34  H   -0.000000  -0.000000   0.000000  -0.000000   0.000000  -0.000000
    35  H    0.000000   0.000005  -0.000018   0.000086   0.000000  -0.000000
    36  C    0.000000   0.000013   0.000261   0.005529  -0.000006  -0.000000
    37  O   -0.000000  -0.000000   0.000265  -0.000712   0.000006   0.000000
    38  N   -0.000000   0.000002  -0.000096  -0.000722  -0.000001   0.000000
    39  H    0.000000   0.000001   0.000002  -0.000008   0.000000  -0.000000
    40  C    0.000000   0.000000   0.000201  -0.003477  -0.000001   0.000000
    41  H    0.000000   0.000000  -0.000003   0.000072   0.000000  -0.000000
    42  H   -0.000002   0.000022  -0.000228   0.012343   0.000018  -0.000001
    43  C   -0.000000  -0.000001  -0.000004  -0.000082  -0.000000   0.000000
    44  O   -0.000000  -0.000000  -0.000000  -0.000000  -0.000000   0.000000
    45  O   -0.000000   0.000000   0.000000   0.000001   0.000000  -0.000000
    46  H   -0.000000   0.000000  -0.000000   0.000000  -0.000000  -0.000000
              19         20         21         22         23         24
     1  N   -0.000173   0.000001   0.000002   0.002103  -0.043552   0.000087
     2  H    0.001288  -0.000016  -0.000026  -0.007861   0.088654  -0.000350
     3  H   -0.000001  -0.000000  -0.000000  -0.000020   0.000639  -0.000000
     4  H   -0.000014   0.000001   0.000000   0.000019   0.000474  -0.000000
     5  C    0.000012  -0.000003  -0.000003   0.000285   0.002120  -0.000171
     6  H   -0.000001  -0.000000  -0.000000   0.000018   0.000034  -0.000002
     7  H    0.000019   0.000000   0.000000   0.000507   0.000262  -0.000076
     8  C   -0.001574   0.000037   0.000005   0.001390   0.004721  -0.000051
     9  O    0.000566  -0.000009  -0.000004  -0.000292  -0.000722   0.000004
    10  N   -0.001079  -0.000014  -0.000035   0.001422  -0.000677  -0.000004
    11  H   -0.000016  -0.000001  -0.000007  -0.000140   0.000066  -0.000096
    12  C    0.008252  -0.000145   0.000524  -0.000949  -0.000073  -0.000068
    13  H   -0.000072  -0.000010  -0.000033   0.000025   0.000002  -0.000002
    14  H   -0.000196   0.000002  -0.000001   0.000008  -0.000001   0.000002
    15  C   -0.026222   0.004390  -0.002660  -0.004039  -0.000027   0.003094
    16  O    0.003708   0.000319   0.010836  -0.000147   0.000022  -0.000963
    17  N    0.261603  -0.031583  -0.034201  -0.050335  -0.003560  -0.001117
    18  H   -0.027550  -0.002290   0.003879  -0.001342   0.004756   0.000205
    19  C    5.094877   0.364900   0.357112   0.342355  -0.068884  -0.082678
    20  H    0.364900   0.508436  -0.019927  -0.033407   0.000500   0.003171
    21  H    0.357112  -0.019927   0.496269  -0.035314   0.002623   0.005163
    22  C    0.342355  -0.033407  -0.035314   4.410837   0.482497   0.314232
    23  O   -0.068884   0.000500   0.002623   0.482497   8.187701  -0.088490
    24  N   -0.082678   0.003171   0.005163   0.314232  -0.088490   7.036997
    25  H   -0.000247  -0.000002   0.002831  -0.011931   0.002173   0.261454
    26  C    0.005812  -0.000189  -0.000138  -0.029526  -0.000424   0.269700
    27  H    0.000872  -0.000007  -0.000042  -0.001666   0.016613  -0.041532
    28  H   -0.000102   0.000008  -0.000017   0.003162   0.000372  -0.035361
    29  C   -0.000220  -0.000003   0.000013  -0.000307  -0.000969  -0.050599
    30  O   -0.000093  -0.000000   0.000004   0.005104  -0.000445  -0.004495
    31  N    0.000002   0.000000  -0.000000   0.000047  -0.000012  -0.003683
    32  H    0.000000   0.000000  -0.000002  -0.000020   0.000000  -0.000274
    33  C   -0.000007   0.000000   0.000007  -0.000016   0.000001  -0.000415
    34  H    0.000000   0.000000  -0.000000  -0.000000  -0.000000  -0.000005
    35  H   -0.000000  -0.000000  -0.000000  -0.000007   0.000000  -0.000039
    36  C    0.000022   0.000000  -0.000031   0.000044  -0.000000   0.001165
    37  O   -0.000249   0.000000   0.000386   0.000400  -0.000001  -0.012602
    38  N    0.000002  -0.000000  -0.000006   0.000000  -0.000000  -0.000010
    39  H    0.000000   0.000000   0.000000  -0.000000   0.000000   0.000001
    40  C   -0.000003  -0.000000   0.000001   0.000001   0.000000  -0.000001
    41  H    0.000000  -0.000000  -0.000002   0.000000   0.000000   0.000001
    42  H   -0.000012   0.000000   0.000090  -0.000002   0.000000  -0.000007
    43  C   -0.000000   0.000000   0.000000  -0.000000   0.000000  -0.000000
    44  O   -0.000000   0.000000   0.000000   0.000000  -0.000000   0.000000
    45  O   -0.000000  -0.000000  -0.000000   0.000000  -0.000000  -0.000000
    46  H    0.000000   0.000000   0.000000  -0.000000   0.000000   0.000000
              25         26         27         28         29         30
     1  N    0.000002  -0.000146   0.000106  -0.000000  -0.000007  -0.000019
     2  H   -0.000018   0.000167   0.001229   0.000002   0.000028   0.000190
     3  H   -0.000000   0.000006  -0.000013  -0.000000   0.000001  -0.000002
     4  H    0.000000   0.000002   0.000002  -0.000000  -0.000000  -0.000006
     5  C   -0.000002   0.000295  -0.000256   0.000001   0.000049  -0.012936
     6  H    0.000000  -0.000002   0.000004   0.000000   0.000007   0.000214
     7  H    0.000005  -0.001069   0.001346   0.000013   0.000122   0.032324
     8  C   -0.000001   0.000031  -0.000043  -0.000001   0.000036   0.000689
     9  O    0.000000  -0.000001   0.000002   0.000000  -0.000000   0.000003
    10  N   -0.000015  -0.000104   0.000004   0.000001   0.000810  -0.010343
    11  H   -0.000000   0.000505  -0.000034  -0.000008  -0.001709   0.033445
    12  C    0.000039   0.000008  -0.000000  -0.000000  -0.000045  -0.000366
    13  H   -0.000000   0.000000  -0.000000  -0.000000   0.000001  -0.000006
    14  H   -0.000001  -0.000000  -0.000000   0.000000   0.000003   0.000004
    15  C    0.000228  -0.000356  -0.000006   0.000004   0.000600   0.000884
    16  O    0.001988   0.000001   0.000001  -0.000001   0.000332  -0.000226
    17  N   -0.000250  -0.000274  -0.000028  -0.000003  -0.000002  -0.000007
    18  H   -0.000001   0.000006  -0.000008  -0.000000   0.000003   0.000007
    19  C   -0.000247   0.005812   0.000872  -0.000102  -0.000220  -0.000093
    20  H   -0.000002  -0.000189  -0.000007   0.000008  -0.000003  -0.000000
    21  H    0.002831  -0.000138  -0.000042  -0.000017   0.000013   0.000004
    22  C   -0.011931  -0.029526  -0.001666   0.003162  -0.000307   0.005104
    23  O    0.002173  -0.000424   0.016613   0.000372  -0.000969  -0.000445
    24  N    0.261454   0.269700  -0.041532  -0.035361  -0.050599  -0.004495
    25  H    0.320809  -0.027836   0.003662  -0.001402   0.000368  -0.000326
    26  C   -0.027836   5.129550   0.356314   0.357112   0.333298  -0.069818
    27  H    0.003662   0.356314   0.519803  -0.024779  -0.024692   0.001124
    28  H   -0.001402   0.357112  -0.024779   0.533824  -0.033428   0.002802
    29  C    0.000368   0.333298  -0.024692  -0.033428   4.412032   0.512196
    30  O   -0.000326  -0.069818   0.001124   0.002802   0.512196   8.118115
    31  N    0.001055  -0.099135   0.003573   0.002877   0.302404  -0.086539
    32  H    0.000404   0.002433   0.000250   0.002417  -0.025130   0.003143
    33  C   -0.000464   0.006807  -0.000220  -0.000032  -0.030246  -0.000744
    34  H    0.000011  -0.000159   0.000004  -0.000016   0.003991   0.000236
    35  H   -0.000030   0.000879   0.000006  -0.000045  -0.003341   0.014646
    36  C   -0.002157  -0.000896   0.000013   0.000062   0.001083  -0.000484
    37  O    0.043105  -0.000189   0.000004  -0.000056   0.006628  -0.000313
    38  N    0.000174   0.000006   0.000000  -0.000000  -0.000004  -0.000042
    39  H   -0.000010  -0.000000   0.000000   0.000000  -0.000002  -0.000004
    40  C    0.000010  -0.000001  -0.000000   0.000000  -0.000009   0.000001
    41  H   -0.000018  -0.000000   0.000000   0.000000  -0.000000   0.000000
    42  H    0.000056  -0.000000  -0.000000  -0.000000   0.000000  -0.000000
    43  C    0.000000   0.000000  -0.000000  -0.000000  -0.000000  -0.000000
    44  O   -0.000000  -0.000000  -0.000000   0.000000  -0.000000   0.000000
    45  O    0.000000   0.000000   0.000000  -0.000000   0.000000  -0.000000
    46  H   -0.000000   0.000000   0.000000  -0.000000  -0.000000  -0.000000
              31         32         33         34         35         36
     1  N    0.000000   0.000000  -0.000000   0.000000   0.000000  -0.000000
     2  H    0.000000  -0.000000   0.000000  -0.000000  -0.000000   0.000000
     3  H   -0.000000  -0.000000   0.000000   0.000000   0.000000  -0.000000
     4  H   -0.000000   0.000000   0.000000   0.000000   0.000000  -0.000000
     5  C   -0.000025   0.000001   0.000001   0.000000   0.000003  -0.000000
     6  H    0.000000  -0.000000  -0.000000  -0.000000  -0.000000   0.000000
     7  H    0.000214  -0.000005  -0.000010   0.000000  -0.000020   0.000000
     8  C    0.000002  -0.000000   0.000000  -0.000000  -0.000001   0.000000
     9  O    0.000000  -0.000000  -0.000000  -0.000000  -0.000000   0.000000
    10  N    0.000013   0.000000  -0.000013   0.000000  -0.000035  -0.000003
    11  H   -0.000207  -0.000004   0.000050  -0.000000   0.000362   0.000055
    12  C    0.000001   0.000000  -0.000007  -0.000000   0.000015  -0.000016
    13  H   -0.000000   0.000000  -0.000000  -0.000000   0.000000   0.000000
    14  H   -0.000000   0.000000  -0.000002  -0.000000   0.000005   0.000013
    15  C   -0.000028  -0.000001   0.000019   0.000000  -0.000018   0.000261
    16  O   -0.000008   0.000000  -0.000247  -0.000000   0.000086   0.005529
    17  N    0.000000  -0.000000   0.000002   0.000000   0.000000  -0.000006
    18  H    0.000000  -0.000000   0.000000  -0.000000  -0.000000  -0.000000
    19  C    0.000002   0.000000  -0.000007   0.000000  -0.000000   0.000022
    20  H    0.000000   0.000000   0.000000   0.000000  -0.000000   0.000000
    21  H   -0.000000  -0.000002   0.000007  -0.000000  -0.000000  -0.000031
    22  C    0.000047  -0.000020  -0.000016  -0.000000  -0.000007   0.000044
    23  O   -0.000012   0.000000   0.000001  -0.000000   0.000000  -0.000000
    24  N   -0.003683  -0.000274  -0.000415  -0.000005  -0.000039   0.001165
    25  H    0.001055   0.000404  -0.000464   0.000011  -0.000030  -0.002157
    26  C   -0.099135   0.002433   0.006807  -0.000159   0.000879  -0.000896
    27  H    0.003573   0.000250  -0.000220   0.000004   0.000006   0.000013
    28  H    0.002877   0.002417  -0.000032  -0.000016  -0.000045   0.000062
    29  C    0.302404  -0.025130  -0.030246   0.003991  -0.003341   0.001083
    30  O   -0.086539   0.003143  -0.000744   0.000236   0.014646  -0.000484
    31  N    6.955080   0.303951   0.269800  -0.029007  -0.034847  -0.050126
    32  H    0.303951   0.389611  -0.042746  -0.001636   0.004974   0.000910
    33  C    0.269800  -0.042746   5.233871   0.362610   0.356333   0.313571
    34  H   -0.029007  -0.001636   0.362610   0.506531  -0.023789  -0.029936
    35  H   -0.034847   0.004974   0.356333  -0.023789   0.494957  -0.023401
    36  C   -0.050126   0.000910   0.313571  -0.029936  -0.023401   4.360722
    37  O   -0.013912   0.011756  -0.085892   0.000654   0.000890   0.534574
    38  N    0.004054   0.000450  -0.116431   0.001859   0.001229   0.288377
    39  H    0.000085  -0.000012   0.000877   0.000896   0.000814  -0.023551
    40  C   -0.000109  -0.000013   0.005221  -0.000126  -0.000098  -0.016516
    41  H    0.000003   0.000001   0.000055   0.000013  -0.000004  -0.002566
    42  H    0.000001  -0.000001   0.000046  -0.000010   0.000013  -0.003894
    43  C    0.000000  -0.000000   0.000088  -0.000005  -0.000011   0.003669
    44  O   -0.000000  -0.000000   0.000000  -0.000000  -0.000000  -0.000049
    45  O   -0.000000   0.000000  -0.000062  -0.000001  -0.000002   0.000275
    46  H    0.000000  -0.000000   0.000001  -0.000000  -0.000000   0.000020
              37         38         39         40         41         42
     1  N   -0.000000   0.000000   0.000000  -0.000000   0.000000   0.000000
     2  H    0.000000  -0.000000  -0.000000   0.000000  -0.000000  -0.000000
     3  H    0.000000  -0.000000  -0.000000   0.000000  -0.000000  -0.000000
     4  H    0.000000  -0.000000  -0.000000   0.000000  -0.000000  -0.000000
     5  C    0.000000  -0.000000  -0.000000   0.000000  -0.000000  -0.000000
     6  H   -0.000000  -0.000000   0.000000   0.000000   0.000000  -0.000000
     7  H   -0.000000   0.000000   0.000000  -0.000000   0.000000  -0.000000
     8  C    0.000000  -0.000000   0.000000  -0.000000   0.000000   0.000000
     9  O   -0.000000   0.000000  -0.000000  -0.000000   0.000000   0.000000
    10  N    0.000001  -0.000000   0.000000  -0.000000  -0.000000   0.000000
    11  H   -0.000002  -0.000003  -0.000001   0.000001   0.000000  -0.000001
    12  C   -0.000008   0.000015  -0.000001  -0.000018  -0.000000   0.000028
    13  H   -0.000000  -0.000000   0.000000   0.000000   0.000000  -0.000002
    14  H   -0.000000   0.000002   0.000001   0.000000   0.000000   0.000022
    15  C    0.000265  -0.000096   0.000002   0.000201  -0.000003  -0.000228
    16  O   -0.000712  -0.000722  -0.000008  -0.003477   0.000072   0.012343
    17  N    0.000006  -0.000001   0.000000  -0.000001   0.000000   0.000018
    18  H    0.000000   0.000000  -0.000000   0.000000  -0.000000  -0.000001
    19  C   -0.000249   0.000002   0.000000  -0.000003   0.000000  -0.000012
    20  H    0.000000  -0.000000   0.000000  -0.000000  -0.000000   0.000000
    21  H    0.000386  -0.000006   0.000000   0.000001  -0.000002   0.000090
    22  C    0.000400   0.000000  -0.000000   0.000001   0.000000  -0.000002
    23  O   -0.000001  -0.000000   0.000000   0.000000   0.000000   0.000000
    24  N   -0.012602  -0.000010   0.000001  -0.000001   0.000001  -0.000007
    25  H    0.043105   0.000174  -0.000010   0.000010  -0.000018   0.000056
    26  C   -0.000189   0.000006  -0.000000  -0.000001  -0.000000  -0.000000
    27  H    0.000004   0.000000   0.000000  -0.000000   0.000000  -0.000000
    28  H   -0.000056  -0.000000   0.000000   0.000000   0.000000  -0.000000
    29  C    0.006628  -0.000004  -0.000002  -0.000009  -0.000000   0.000000
    30  O   -0.000313  -0.000042  -0.000004   0.000001   0.000000  -0.000000
    31  N   -0.013912   0.004054   0.000085  -0.000109   0.000003   0.000001
    32  H    0.011756   0.000450  -0.000012  -0.000013   0.000001  -0.000001
    33  C   -0.085892  -0.116431   0.000877   0.005221   0.000055   0.000046
    34  H    0.000654   0.001859   0.000896  -0.000126   0.000013  -0.000010
    35  H    0.000890   0.001229   0.000814  -0.000098  -0.000004   0.000013
    36  C    0.534574   0.288377  -0.023551  -0.016516  -0.002566  -0.003894
    37  O    8.134895  -0.092023   0.002574   0.011351   0.002647   0.002759
    38  N   -0.092023   7.146015   0.301884   0.182824  -0.041391  -0.039818
    39  H    0.002574   0.301884   0.363598  -0.033268   0.002687   0.002599
    40  C    0.011351   0.182824  -0.033268   5.163113   0.373821   0.366902
    41  H    0.002647  -0.041391   0.002687   0.373821   0.498900  -0.027160
    42  H    0.002759  -0.039818   0.002599   0.366902  -0.027160   0.463938
    43  C    0.000688  -0.016712  -0.005196   0.317229  -0.026993  -0.022921
    44  O   -0.000000   0.002046   0.000273  -0.069861   0.000178   0.000123
    45  O   -0.000003  -0.005075   0.021788  -0.101432   0.001513   0.001163
    46  H    0.000000  -0.000190  -0.000756   0.010475  -0.000207  -0.000187
              43         44         45         46
     1  N    0.000000   0.000000   0.000000   0.000000
     2  H   -0.000000   0.000000   0.000000  -0.000000
     3  H   -0.000000   0.000000   0.000000  -0.000000
     4  H   -0.000000   0.000000   0.000000  -0.000000
     5  C   -0.000000   0.000000  -0.000000  -0.000000
     6  H   -0.000000  -0.000000  -0.000000  -0.000000
     7  H    0.000000  -0.000000  -0.000000   0.000000
     8  C   -0.000000  -0.000000   0.000000   0.000000
     9  O    0.000000   0.000000  -0.000000   0.000000
    10  N    0.000000  -0.000000   0.000000   0.000000
    11  H   -0.000000   0.000000   0.000000  -0.000000
    12  C    0.000001   0.000000  -0.000000   0.000000
    13  H   -0.000000  -0.000000  -0.000000  -0.000000
    14  H   -0.000001  -0.000000   0.000000   0.000000
    15  C   -0.000004  -0.000000   0.000000  -0.000000
    16  O   -0.000082  -0.000000   0.000001   0.000000
    17  N   -0.000000  -0.000000   0.000000  -0.000000
    18  H    0.000000   0.000000  -0.000000  -0.000000
    19  C   -0.000000  -0.000000  -0.000000   0.000000
    20  H    0.000000   0.000000  -0.000000   0.000000
    21  H    0.000000   0.000000  -0.000000   0.000000
    22  C   -0.000000   0.000000   0.000000  -0.000000
    23  O    0.000000  -0.000000  -0.000000   0.000000
    24  N   -0.000000   0.000000  -0.000000   0.000000
    25  H    0.000000  -0.000000   0.000000  -0.000000
    26  C    0.000000  -0.000000   0.000000   0.000000
    27  H   -0.000000  -0.000000   0.000000   0.000000
    28  H   -0.000000   0.000000  -0.000000  -0.000000
    29  C   -0.000000  -0.000000   0.000000  -0.000000
    30  O   -0.000000   0.000000  -0.000000  -0.000000
    31  N    0.000000  -0.000000  -0.000000   0.000000
    32  H   -0.000000  -0.000000   0.000000  -0.000000
    33  C    0.000088   0.000000  -0.000062   0.000001
    34  H   -0.000005  -0.000000  -0.000001  -0.000000
    35  H   -0.000011  -0.000000  -0.000002  -0.000000
    36  C    0.003669  -0.000049   0.000275   0.000020
    37  O    0.000688  -0.000000  -0.000003   0.000000
    38  N   -0.016712   0.002046  -0.005075  -0.000190
    39  H   -0.005196   0.000273   0.021788  -0.000756
    40  C    0.317229  -0.069861  -0.101432   0.010475
    41  H   -0.026993   0.000178   0.001513  -0.000207
    42  H   -0.022921   0.000123   0.001163  -0.000187
    43  C    4.317084   0.581745   0.280407  -0.005505
    44  O    0.581745   7.986683  -0.080674   0.009808
    45  O    0.280407  -0.080674   8.244557   0.222696
    46  H   -0.005505   0.009808   0.222696   0.332645
 Mulliken charges:
               1
     1  N   -0.755973
     2  H    0.456914
     3  H    0.408741
     4  H    0.419525
     5  C   -0.299414
     6  H    0.239522
     7  H    0.251148
     8  C    0.628512
     9  O   -0.529589
    10  N   -0.586778
    11  H    0.390216
    12  C   -0.246982
    13  H    0.219737
    14  H    0.204743
    15  C    0.584054
    16  O   -0.490823
    17  N   -0.575155
    18  H    0.364107
    19  C   -0.232007
    20  H    0.205838
    21  H    0.212703
    22  C    0.612863
    23  O   -0.586392
    24  N   -0.572181
    25  H    0.406337
    26  C   -0.232671
    27  H    0.188394
    28  H    0.192596
    29  C    0.596711
    30  O   -0.537913
    31  N   -0.525524
    32  H    0.349543
    33  C   -0.271805
    34  H    0.207887
    35  H    0.210478
    36  C    0.643266
    37  O   -0.547620
    38  N   -0.616412
    39  H    0.364730
    40  C   -0.206219
    41  H    0.218453
    42  H    0.244141
    43  C    0.576519
    44  O   -0.430272
    45  O   -0.585151
    46  H    0.431201
 Sum of Mulliken charges =   1.00000
 Mulliken charges with hydrogens summed into heavy atoms:
               1
     1  N    0.529208
     5  C    0.191256
     8  C    0.628512
     9  O   -0.529589
    10  N   -0.196562
    12  C    0.177499
    15  C    0.584054
    16  O   -0.490823
    17  N   -0.211049
    19  C    0.186534
    22  C    0.612863
    23  O   -0.586392
    24  N   -0.165844
    26  C    0.148319
    29  C    0.596711
    30  O   -0.537913
    31  N   -0.175980
    33  C    0.146560
    36  C    0.643266
    37  O   -0.547620
    38  N   -0.251682
    40  C    0.256375
    43  C    0.576519
    44  O   -0.430272
    45  O   -0.153951
 Electronic spatial extent (au):  <R**2>=           9234.2293
 Charge=              1.0000 electrons
 Dipole moment (field-independent basis, Debye):
    X=             -1.2415    Y=             -1.6612    Z=              9.5658  Tot=              9.7880
 Quadrupole moment (field-independent basis, Debye-Ang):
   XX=           -117.0713   YY=           -114.5330   ZZ=            -88.5269
   XY=            -10.0799   XZ=            -11.2944   YZ=             27.6169
 Traceless Quadrupole moment (field-independent basis, Debye-Ang):
   XX=            -10.3609   YY=             -7.8226   ZZ=             18.1835
   XY=            -10.0799   XZ=            -11.2944   YZ=             27.6169
 Octapole moment (field-independent basis, Debye-Ang**2):
  XXX=           -123.9155  YYY=            -30.9889  ZZZ=            329.3173  XYY=            -23.7357
  XXY=            -25.1473  XXZ=             69.7930  XZZ=           -153.2054  YZZ=            -29.0447
  YYZ=            -28.7567  XYZ=            -14.9528
 Hexadecapole moment (field-independent basis, Debye-Ang**3):
 XXXX=          -2667.1445 YYYY=          -2368.9130 ZZZZ=          -5040.5086 XXXY=            566.9798
 XXXZ=            684.4013 YYYX=            573.9243 YYYZ=           -695.2893 ZZZX=            452.0639
 ZZZY=           -186.2315 XXYY=           -854.4575 XXZZ=          -1209.5414 YYZZ=          -1028.5969
 XXYZ=           -300.4887 YYXZ=            161.2576 ZZXY=             81.0044
 N-N= 2.490396275724D+03 E-N=-8.054298846500D+03  KE= 1.312840235267D+03
 Unable to Open any file for archive entry.
 1\1\GINC-NVL-003\SP\RB3LYP\6-31G(d)\C12H21N6O7(1+)\KENGMITH\07-Jul-202
 2\0\\# B3LYP/6-31G* guess=read geom=check nosymm integral(ultrafinegri
 d)\\Candidate Structure: Conf:797 Charge calc in gas phase\\1,1\N,0,-1
 .6085861362,1.5076509611,3.9297200377\H,0,-0.6767326308,1.8278094373,3
 .5579624626\H,0,-1.5649638991,1.3339176911,4.9366975936\H,0,-2.2792371
 194,2.2652083529,3.7153325352\C,0,-2.0481528071,0.3153406834,3.1303946
 874\H,0,-2.9156972274,-0.1358169975,3.6187693828\H,0,-1.2249665872,-0.
 3976999777,3.0618345858\C,0,-2.432831879,0.9069137754,1.7673687667\O,0
 ,-2.9081119816,2.0469298961,1.7442937104\N,0,-2.1848386887,0.145235330
 2,0.688689665\H,0,-1.5554629183,-0.6462175762,0.8160444576\C,0,-2.2492
 597413,0.7278901044,-0.659633727\H,0,-3.0607766188,1.4574744592,-0.681
 6607314\H,0,-2.4395944245,-0.0609077128,-1.387049321\C,0,-0.8700069073
 ,1.3504493084,-0.9420936172\O,0,-0.0344497896,0.777052021,-1.625500074
 6\N,0,-0.6240219952,2.51135732,-0.25272927\H,0,-1.3578187894,2.8453112
 093,0.3644492807\C,0,0.7430574355,2.8669583199,0.1177061827\H,0,0.7921
 001247,3.9333182912,0.3492088509\H,0,1.402588824,2.6480473074,-0.72302
 30598\C,0,1.1022384946,2.0604875323,1.3744609953\O,0,0.5032961552,2.28
 37577996,2.4422046928\N,0,2.0227435255,1.0893713637,1.2247829619\H,0,2
 .3467406645,0.8593232153,0.2827953337\C,0,2.208863345,0.0327093712,2.2
 197763696\H,0,1.7345609042,0.3475558422,3.1482447619\H,0,3.2757011084,
 -0.1295786524,2.4009908842\C,0,1.5108933818,-1.199924054,1.6287752682\
 O,0,0.2801854266,-1.2962864336,1.6309298372\N,0,2.3349458477,-2.075765
 9435,0.9928772171\H,0,3.3066126571,-1.789030126,0.9629845091\C,0,1.898
 6064265,-2.6922666406,-0.2485686737\H,0,2.4527485232,-3.6197992085,-0.
 4238221112\H,0,0.8381447943,-2.9383616958,-0.162701453\C,0,2.145274297
 7,-1.6739837514,-1.3925899886\O,0,2.697128508,-0.5948733843,-1.1616166
 181\N,0,1.7381260597,-2.0483377358,-2.616099628\H,0,1.2808889616,-2.93
 86413296,-2.7649133495\C,0,1.8259779553,-1.137298608,-3.7510382369\H,0
 ,2.8705751827,-0.8885190362,-3.9685174025\H,0,1.3159921553,-0.19826959
 38,-3.509666939\C,0,1.2118904334,-1.6995291363,-5.0183307177\O,0,1.209
 1876436,-1.1154019744,-6.071479059\O,0,0.6619819205,-2.9284042006,-4.8
 365532549\H,0,0.3029588039,-3.2087022333,-5.700299287\\Version=ES64L-G
 16RevC.01\HF=-1324.8830718\RMSD=7.914e-09\Dipole=-1.1428924,-0.6634636
 ,4.1394309\Quadrupole=-7.703101,-5.8158751,13.518976,-7.4941699,-8.397
 1057,20.532465\PG=C01 [X(C12H21N6O7)]\\@
 The archive entry for this job was punched.


 NECESSARY EVIL: ONE WE LIKE TOO MUCH TO RELINQUISH.
 Job cpu time:       0 days  0 hours  0 minutes 42.2 seconds.
 Elapsed time:       0 days  0 hours  0 minutes 11.2 seconds.
 File lengths (MBytes):  RWF=    208 Int=      0 D2E=      0 Chk=     24 Scr=     16
 Normal termination of Gaussian 16 at Thu Jul  7 14:59:20 2022.
