 Entering Gaussian System, Link 0=/opt/software/Gaussian/g16-AVX2-C.01/g16/g16
 Input=charge-conf-315.com
 Output=charge-conf-315.log
 Initial command:
 /opt/software/Gaussian/g16-AVX2-C.01/g16/l1.exe "/mnt/gs21/scratch/kengmith/Gau-18398.inp" -scrdir="/mnt/gs21/scratch/kengmith/"
 Entering Link 1 = /opt/software/Gaussian/g16-AVX2-C.01/g16/l1.exe PID=     18408.
  
 Copyright (c) 1988-2019, Gaussian, Inc.  All Rights Reserved.
  
 This is part of the Gaussian(R) 16 program.  It is based on
 the Gaussian(R) 09 system (copyright 2009, Gaussian, Inc.),
 the Gaussian(R) 03 system (copyright 2003, Gaussian, Inc.),
 the Gaussian(R) 98 system (copyright 1998, Gaussian, Inc.),
 the Gaussian(R) 94 system (copyright 1995, Gaussian, Inc.),
 the Gaussian 92(TM) system (copyright 1992, Gaussian, Inc.),
 the Gaussian 90(TM) system (copyright 1990, Gaussian, Inc.),
 the Gaussian 88(TM) system (copyright 1988, Gaussian, Inc.),
 the Gaussian 86(TM) system (copyright 1986, Carnegie Mellon
 University), and the Gaussian 82(TM) system (copyright 1983,
 Carnegie Mellon University). Gaussian is a federally registered
 trademark of Gaussian, Inc.
  
 This software contains proprietary and confidential information,
 including trade secrets, belonging to Gaussian, Inc.
  
 This software is provided under written license and may be
 used, copied, transmitted, or stored only in accord with that
 written license.
  
 The following legend is applicable only to US Government
 contracts under FAR:
  
                    RESTRICTED RIGHTS LEGEND
  
 Use, reproduction and disclosure by the US Government is
 subject to restrictions as set forth in subparagraphs (a)
 and (c) of the Commercial Computer Software - Restricted
 Rights clause in FAR 52.227-19.
  
 Gaussian, Inc.
 340 Quinnipiac St., Bldg. 40, Wallingford CT 06492
  
  
 ---------------------------------------------------------------
 Warning -- This program may not be used in any manner that
 competes with the business of Gaussian, Inc. or will provide
 assistance to any competitor of Gaussian, Inc.  The licensee
 of this program is prohibited from giving any competitor of
 Gaussian, Inc. access to this program.  By using this program,
 the user acknowledges that Gaussian, Inc. is engaged in the
 business of creating and licensing software in the field of
 computational chemistry and represents and warrants to the
 licensee that it is not a competitor of Gaussian, Inc. and that
 it will not use this program in any manner prohibited above.
 ---------------------------------------------------------------
  

 Cite this work as:
 Gaussian 16, Revision C.01,
 M. J. Frisch, G. W. Trucks, H. B. Schlegel, G. E. Scuseria, 
 M. A. Robb, J. R. Cheeseman, G. Scalmani, V. Barone, 
 G. A. Petersson, H. Nakatsuji, X. Li, M. Caricato, A. V. Marenich, 
 J. Bloino, B. G. Janesko, R. Gomperts, B. Mennucci, H. P. Hratchian, 
 J. V. Ortiz, A. F. Izmaylov, J. L. Sonnenberg, D. Williams-Young, 
 F. Ding, F. Lipparini, F. Egidi, J. Goings, B. Peng, A. Petrone, 
 T. Henderson, D. Ranasinghe, V. G. Zakrzewski, J. Gao, N. Rega, 
 G. Zheng, W. Liang, M. Hada, M. Ehara, K. Toyota, R. Fukuda, 
 J. Hasegawa, M. Ishida, T. Nakajima, Y. Honda, O. Kitao, H. Nakai, 
 T. Vreven, K. Throssell, J. A. Montgomery, Jr., J. E. Peralta, 
 F. Ogliaro, M. J. Bearpark, J. J. Heyd, E. N. Brothers, K. N. Kudin, 
 V. N. Staroverov, T. A. Keith, R. Kobayashi, J. Normand, 
 K. Raghavachari, A. P. Rendell, J. C. Burant, S. S. Iyengar, 
 J. Tomasi, M. Cossi, J. M. Millam, M. Klene, C. Adamo, R. Cammi, 
 J. W. Ochterski, R. L. Martin, K. Morokuma, O. Farkas, 
 J. B. Foresman, and D. J. Fox, Gaussian, Inc., Wallingford CT, 2019.
 
 ******************************************
 Gaussian 16:  ES64L-G16RevC.01  3-Jul-2019
                13-Aug-2022 
 ******************************************
 %mem=8gb
 %nproc=4
 Will use up to    4 processors via shared memory.
 %chk=conf-315.chk
 -------------------------------------------------------------------
 # B3LYP/6-31G* guess=read geom=check nosymm integral(ultrafinegrid)
 -------------------------------------------------------------------
 1/29=2,38=1,172=1/1;
 2/12=2,15=1,40=1/2;
 3/5=1,6=6,7=1,11=2,14=-4,25=1,30=1,74=-5,75=-5,116=-2/1,2,3;
 4/5=1/1;
 5/5=2,38=6/2;
 6/7=2,8=2,9=2,10=2,28=1/1;
 99/5=1,9=1/99;
 ------------------------------------------------------
 Candidate Structure: Conf:315 Charge calc in gas phase
 ------------------------------------------------------
 Structure from the checkpoint file:  "conf-315.chk"
 Charge =  1 Multiplicity = 1
 Redundant internal coordinates found in file.  (old form).
 N,0,-7.3067342621,-4.9715785405,4.3457935082
 H,0,-7.6242201596,-5.5561355715,3.568101827
 H,0,-6.3017780949,-5.2403231773,4.6018109827
 H,0,-7.9407086606,-5.1057627912,5.1379103405
 C,0,-7.1293134862,-3.5119033326,3.963946543
 H,0,-7.6074031627,-3.3602747877,2.9930258409
 C,0,-5.579338913,-3.4041881483,3.8486652809
 C,0,-7.7850136774,-2.5935783462,5.0291228413
 H,0,-8.8183758173,-2.9608224077,5.1293569398
 O,0,-4.9123612438,-4.3406505126,4.3260679003
 C,0,-7.0952692219,-2.6848161871,6.4000968845
 H,0,-6.0728995353,-2.2950614461,6.3584311684
 H,0,-7.6497123974,-2.0885300634,7.1304297561
 H,0,-7.0435344631,-3.7073864431,6.7951529397
 C,0,-7.8783464712,-1.1394587457,4.5380238623
 H,0,-6.8985543444,-0.656222275,4.4730851371
 H,0,-8.3649366761,-1.0705252325,3.5581927771
 H,0,-8.4801998857,-0.5590384384,5.2435461902
 N,0,-5.0912559565,-2.3268397642,3.2571905951
 H,0,-5.6854768456,-1.5644773259,2.9261818476
 C,0,-3.6651159191,-2.001991326,3.1296739294
 H,0,-3.1607952882,-2.3328372712,4.0418280615
 C,0,-3.6568610695,-0.4602534493,3.0359038216
 C,0,-3.0332859029,-2.73119226,1.9006104715
 H,0,-3.3031358082,-3.7862621964,2.0526200266
 O,0,-4.6933990368,0.138033775,2.7298835402
 C,0,-1.4915275526,-2.6596990568,1.8616627224
 H,0,-1.1743687994,-1.630917946,1.653311326
 H,0,-1.1806729778,-3.2389913701,0.9828206576
 C,0,-3.6346268893,-2.250824056,0.5711166308
 H,0,-3.3369122836,-1.2206357172,0.3519644257
 H,0,-4.7296624653,-2.3028514785,0.5695693501
 H,0,-3.2745705364,-2.8829939363,-0.2473856178
 C,0,-0.7688390904,-3.2225703513,3.0930451233
 H,0,0.309487179,-3.2773828766,2.9127771698
 H,0,-0.9017652194,-2.6058135176,3.9911612065
 H,0,-1.1196872261,-4.2337468687,3.333870478
 N,0,-2.4972723869,0.1568104483,3.337582247
 H,0,-1.6618473975,-0.4035211103,3.4619904354
 C,0,-2.2807947647,1.5639699166,3.0462922606
 H,0,-3.2202935085,2.0819501764,3.2621643556
 C,0,-1.9977942012,1.7433555004,1.5304044835
 C,0,-1.1720137285,2.1386627305,3.9746004946
 H,0,-1.6086594781,2.2490977461,4.9730815369
 H,0,-0.9212042677,3.1471802953,3.6265510932
 O,0,-1.7699565527,0.7861408114,0.7921627615
 C,0,0.0801014963,1.2880301457,4.065254948
 C,0,0.2527973023,0.4024385793,5.1397959398
 H,0,-0.4989808249,0.3610695613,5.9257799099
 C,0,1.0765503153,1.349582077,3.0806185664
 H,0,0.9661008695,2.0390371483,2.2488132321
 C,0,1.3878853756,-0.4074633261,5.2224601472
 H,0,1.5096289062,-1.082220911,6.0656517767
 C,0,2.2134031438,0.5431029442,3.1589015221
 H,0,2.979930943,0.6048187903,2.3892345278
 C,0,2.3666664626,-0.3414819597,4.2302397511
 H,0,3.2459750697,-0.9755889317,4.2871027385
 N,0,-2.063258108,3.0206799266,1.0830610032
 H,0,-2.2354592748,3.7750163517,1.7349418826
 C,0,-1.9611900118,3.370974613,-0.3419898632
 H,0,-2.3663783184,2.5147547189,-0.8875645477
 C,0,-0.473391594,3.5660049953,-0.7239411974
 C,0,-2.7806482067,4.636176726,-0.61798771
 H,0,-2.3182160235,5.4622613954,-0.0632426206
 H,0,-3.791150846,4.4829090265,-0.213247444
 O,0,0.0728525875,4.6649544853,-0.6600205784
 C,0,-2.8841580541,5.0436495073,-2.1019238543
 H,0,-1.8625502393,5.1856929099,-2.4769934579
 C,0,-3.5779308767,3.9771884188,-2.9636413641
 H,0,-4.5924319912,3.7720205357,-2.5964448997
 H,0,-3.0285566278,3.0288985166,-2.9803205667
 H,0,-3.6655809522,4.3181011353,-4.0014543499
 C,0,-3.6138135735,6.3905671987,-2.2162524759
 H,0,-4.6446823382,6.3148406544,-1.8455498686
 H,0,-3.6606785968,6.7235563536,-3.2591368764
 H,0,-3.1047888925,7.1703886164,-1.6383599525
 N,0,0.1544863468,2.4318633675,-1.1169602321
 H,0,-0.3175614303,1.5337925093,-1.0668994356
 C,0,1.5662019971,2.4005649409,-1.4727289142
 H,0,1.7798291336,3.2831749672,-2.086213344
 C,0,1.7597883483,1.1284280133,-2.3127718576
 C,0,2.4545638762,2.4645196622,-0.2001082111
 H,0,2.3224236018,1.5406331834,0.3712498751
 H,0,2.0368290766,3.2903944298,0.3839696692
 O,0,0.9437659641,0.20021128,-2.2578390281
 C,0,3.9551598651,2.7144708741,-0.4166650549
 H,0,4.1245220252,3.4602073212,-1.2022983053
 H,0,4.3571744552,3.1438333869,0.5097145869
 C,0,4.789669459,1.4457458411,-0.694368886
 O,0,5.5315043332,1.4820611257,-1.7387337464
 O,0,4.6871966278,0.4936878756,0.1080170898
 N,0,2.8430314888,1.0976558748,-3.1317474125
 H,0,3.6486256916,1.6768546742,-2.8927948913
 C,0,3.1626450481,-0.0906131179,-3.9316099082
 H,0,2.2016431705,-0.5146479041,-4.2418876402
 C,0,3.9148109562,-1.1329899531,-3.0749976523
 C,0,3.9958228489,0.3712486146,-5.1442044716
 H,0,3.3244498311,0.8627042634,-5.8587550999
 H,0,4.7120536297,1.1239144911,-4.8141040957
 O,0,5.0923200359,-1.4095957006,-3.3012720788
 C,0,4.8097233691,-0.6816441952,-5.8963756367
 N,0,4.1369733456,-1.7851879509,-6.3170504918
 H,0,4.6897960687,-2.5329741867,-6.7156087619
 H,0,3.2591512969,-2.0541545226,-5.8953197314
 O,0,5.9860702813,-0.4826320071,-6.213291382
 N,0,3.2008866518,-1.6850559362,-2.0736992531
 H,0,2.2468880234,-1.3643694726,-1.9304175104
 C,0,3.8764464287,-2.4448567191,-1.0316667565
 H,0,4.6833320078,-1.8118824097,-0.6478144985
 C,0,4.4861690928,-3.7288759964,-1.638491627
 C,0,2.8953005466,-2.7274168613,0.1256754816
 H,0,2.3983902199,-1.7764212798,0.3586488681
 H,0,2.1229636466,-3.4282534826,-0.2145122065
 O,0,4.0063261766,-4.2978063815,-2.6093902967
 C,0,3.5820769673,-3.2597723962,1.3669492106
 C,0,3.2805698648,-4.5274146513,1.882759198
 H,0,2.5384760788,-5.1448111382,1.3811392392
 C,0,4.5551129562,-2.4919610663,2.0269532188
 H,0,4.8024454121,-1.4995504166,1.6535034735
 C,0,3.9175115222,-5.023752964,3.0174240916
 H,0,3.6864261037,-6.0092261097,3.4091084267
 C,0,5.2085241032,-2.9832819473,3.1582144724
 H,0,5.9667351718,-2.3781973066,3.653284734
 O,0,5.4910256256,-4.7846672242,4.7637731589
 H,0,6.1830618743,-4.1793776622,5.0726429841
 C,0,4.8915260116,-4.2524117292,3.6577740605
 N,0,5.6453990921,-4.1330137271,-1.029431318
 H,0,5.8905091024,-3.761861619,-0.1191193409
 C,0,6.4778793672,-5.1900457393,-1.5654055325
 H,0,5.89936655,-5.6995150449,-2.3397686433
 C,0,6.8391789218,-6.169477209,-0.458080846
 C,0,7.7934877808,-4.6170339202,-2.1729943613
 H,0,8.3674992839,-4.1719156531,-1.3464635608
 H,0,8.3972221648,-5.4449000664,-2.5627894244
 O,0,6.8650051059,-5.8971101241,0.7216710004
 C,0,7.5177024875,-3.5532518254,-3.2471559263
 H,0,7.2579887523,-4.0329936088,-4.1988826024
 H,0,6.6445183472,-2.9667201664,-2.9573849584
 C,0,8.6846991115,-2.5687426948,-3.4628473823
 H,0,9.2015209014,-2.3613867597,-2.5184255524
 H,0,9.4476402479,-2.97839949,-4.1319299684
 N,0,8.2685420863,-1.2828724637,-4.0293139919
 H,0,8.0728088742,-1.2542013482,-5.0238588518
 N,0,7.6371797953,-0.2986116705,-1.9782619699
 H,0,6.8739506724,0.3109366021,-1.6090017218
 H,0,7.7534397861,-1.183424399,-1.5077435004
 N,0,7.2689119673,0.8099422302,-3.9622632962
 H,0,6.6742155463,1.4108502896,-3.3913496423
 H,0,6.9543789118,0.6596543455,-4.9229039225
 C,0,7.6975301809,-0.2913362764,-3.3170947668
 O,0,7.198350233,-7.3740136209,-0.9526459133
 H,0,7.468601817,-7.9201920848,-0.1895720991
 Recover connectivity data from disk.
                           ----------------------------
                           !    Current Parameters    !
                           ! (Angstroms and Degrees)  !
 --------------------------                            --------------------------
 ! Name  Definition              Value                                          !
 --------------------------------------------------------------------------------
 ! R1    R(1,2)                  1.0234                                         !
 ! R2    R(1,3)                  1.0713                                         !
 ! R3    R(1,4)                  1.0234                                         !
 ! R4    R(1,5)                  1.5192                                         !
 ! R5    R(5,6)                  1.0928                                         !
 ! R6    R(5,7)                  1.558                                          !
 ! R7    R(5,8)                  1.5517                                         !
 ! R8    R(7,10)                 1.2449                                         !
 ! R9    R(7,19)                 1.3224                                         !
 ! R10   R(8,9)                  1.1013                                         !
 ! R11   R(8,11)                 1.5374                                         !
 ! R12   R(8,15)                 1.5376                                         !
 ! R13   R(11,12)                1.0949                                         !
 ! R14   R(11,13)                1.0938                                         !
 ! R15   R(11,14)                1.0974                                         !
 ! R16   R(15,16)                1.0944                                         !
 ! R17   R(15,17)                1.0962                                         !
 ! R18   R(15,18)                1.094                                          !
 ! R19   R(19,20)                1.0217                                         !
 ! R20   R(19,21)                1.4682                                         !
 ! R21   R(21,22)                1.0935                                         !
 ! R22   R(21,23)                1.5446                                         !
 ! R23   R(21,24)                1.5625                                         !
 ! R24   R(23,26)                1.2353                                         !
 ! R25   R(23,38)                1.3477                                         !
 ! R26   R(24,25)                1.0996                                         !
 ! R27   R(24,27)                1.5439                                         !
 ! R28   R(24,30)                1.5362                                         !
 ! R29   R(27,28)                1.0965                                         !
 ! R30   R(27,29)                1.0975                                         !
 ! R31   R(27,34)                1.5347                                         !
 ! R32   R(30,31)                1.0945                                         !
 ! R33   R(30,32)                1.0963                                         !
 ! R34   R(30,33)                1.0951                                         !
 ! R35   R(34,35)                1.0947                                         !
 ! R36   R(34,36)                1.0976                                         !
 ! R37   R(34,37)                1.0971                                         !
 ! R38   R(38,39)                1.0136                                         !
 ! R39   R(38,40)                1.4532                                         !
 ! R40   R(40,41)                1.0943                                         !
 ! R41   R(40,42)                1.5525                                         !
 ! R42   R(40,43)                1.5561                                         !
 ! R43   R(42,46)                1.2301                                         !
 ! R44   R(42,58)                1.355                                          !
 ! R45   R(43,44)                1.0954                                         !
 ! R46   R(43,45)                1.096                                          !
 ! R47   R(43,47)                1.5164                                         !
 ! R48   R(47,48)                1.4031                                         !
 ! R49   R(47,50)                1.4022                                         !
 ! R50   R(48,49)                1.0884                                         !
 ! R51   R(48,52)                1.3969                                         !
 ! R52   R(50,51)                1.086                                          !
 ! R53   R(50,54)                1.3961                                         !
 ! R54   R(52,53)                1.0868                                         !
 ! R55   R(52,56)                1.3953                                         !
 ! R56   R(54,55)                1.088                                          !
 ! R57   R(54,56)                1.3978                                         !
 ! R58   R(56,57)                1.0856                                         !
 ! R59   R(58,59)                1.0117                                         !
 ! R60   R(58,60)                1.471                                          !
 ! R61   R(60,61)                1.0931                                         !
 ! R62   R(60,62)                1.5484                                         !
 ! R63   R(60,63)                1.5325                                         !
 ! R64   R(62,66)                1.2289                                         !
 ! R65   R(62,77)                1.3546                                         !
 ! R66   R(63,64)                1.0973                                         !
 ! R67   R(63,65)                1.0993                                         !
 ! R68   R(63,67)                1.5423                                         !
 ! R69   R(67,68)                1.0975                                         !
 ! R70   R(67,69)                1.5366                                         !
 ! R71   R(67,73)                1.5361                                         !
 ! R72   R(69,70)                1.0982                                         !
 ! R73   R(69,71)                1.0961                                         !
 ! R74   R(69,72)                1.0959                                         !
 ! R75   R(73,74)                1.0981                                         !
 ! R76   R(73,75)                1.0958                                         !
 ! R77   R(73,76)                1.096                                          !
 ! R78   R(77,78)                1.0158                                         !
 ! R79   R(77,79)                1.4562                                         !
 ! R80   R(79,80)                1.0959                                         !
 ! R81   R(79,81)                1.5367                                         !
 ! R82   R(79,82)                1.5533                                         !
 ! R83   R(81,85)                1.2371                                         !
 ! R84   R(81,92)                1.3583                                         !
 ! R85   R(82,83)                1.0943                                         !
 ! R86   R(82,84)                1.0944                                         !
 ! R87   R(82,86)                1.5366                                         !
 ! R88   R(86,87)                1.0964                                         !
 ! R89   R(86,88)                1.0973                                         !
 ! R90   R(86,89)                1.5438                                         !
 ! R91   R(89,90)                1.2815                                         !
 ! R92   R(89,91)                1.2493                                         !
 ! R93   R(92,93)                1.0206                                         !
 ! R94   R(92,94)                1.4676                                         !
 ! R95   R(94,95)                1.0953                                         !
 ! R96   R(94,96)                1.5447                                         !
 ! R97   R(94,97)                1.542                                          !
 ! R98   R(96,100)               1.2305                                         !
 ! R99   R(96,106)               1.348                                          !
 ! R100  R(97,98)                1.0967                                         !
 ! R101  R(97,99)                1.0902                                         !
 ! R102  R(97,101)               1.5287                                         !
 ! R103  R(101,102)              1.3592                                         !
 ! R104  R(101,105)              1.2344                                         !
 ! R105  R(102,103)              1.0118                                         !
 ! R106  R(102,104)              1.0103                                         !
 ! R107  R(106,107)              1.0166                                         !
 ! R108  R(106,108)              1.4559                                         !
 ! R109  R(108,109)              1.095                                          !
 ! R110  R(108,110)              1.5455                                         !
 ! R111  R(108,111)              1.5433                                         !
 ! R112  R(110,114)              1.2233                                         !
 ! R113  R(110,127)              1.3704                                         !
 ! R114  R(111,112)              1.098                                          !
 ! R115  R(111,113)              1.097                                          !
 ! R116  R(111,115)              1.5152                                         !
 ! R117  R(115,116)              1.4014                                         !
 ! R118  R(115,118)              1.4043                                         !
 ! R119  R(116,117)              1.0879                                         !
 ! R120  R(116,120)              1.3927                                         !
 ! R121  R(118,119)              1.0888                                         !
 ! R122  R(118,122)              1.3957                                         !
 ! R123  R(120,121)              1.0853                                         !
 ! R124  R(120,126)              1.3978                                         !
 ! R125  R(122,123)              1.0891                                         !
 ! R126  R(122,126)              1.4003                                         !
 ! R127  R(124,125)              0.9699                                         !
 ! R128  R(124,126)              1.366                                          !
 ! R129  R(127,128)              1.0132                                         !
 ! R130  R(127,129)              1.4483                                         !
 ! R131  R(129,130)              1.0926                                         !
 ! R132  R(129,131)              1.5218                                         !
 ! R133  R(129,132)              1.5583                                         !
 ! R134  R(131,135)              1.2111                                         !
 ! R135  R(131,151)              1.3507                                         !
 ! R136  R(132,133)              1.1004                                         !
 ! R137  R(132,134)              1.0963                                         !
 ! R138  R(132,136)              1.5367                                         !
 ! R139  R(136,137)              1.097                                          !
 ! R140  R(136,138)              1.0911                                         !
 ! R141  R(136,139)              1.542                                          !
 ! R142  R(139,140)              1.0964                                         !
 ! R143  R(139,141)              1.0943                                         !
 ! R144  R(139,142)              1.4654                                         !
 ! R145  R(142,143)              1.014                                          !
 ! R146  R(142,150)              1.3478                                         !
 ! R147  R(144,145)              1.0442                                         !
 ! R148  R(144,146)              1.0089                                         !
 ! R149  R(144,150)              1.3402                                         !
 ! R150  R(147,148)              1.0201                                         !
 ! R151  R(147,149)              1.0219                                         !
 ! R152  R(147,150)              1.3464                                         !
 ! R153  R(151,152)              0.9765                                         !
 ! A1    A(2,1,3)              109.2282                                         !
 ! A2    A(2,1,4)              108.7297                                         !
 ! A3    A(2,1,5)              113.2067                                         !
 ! A4    A(3,1,4)              111.2996                                         !
 ! A5    A(3,1,5)              101.0428                                         !
 ! A6    A(4,1,5)              113.133                                          !
 ! A7    A(1,5,6)              107.7904                                         !
 ! A8    A(1,5,7)              101.6079                                         !
 ! A9    A(1,5,8)              110.2878                                         !
 ! A10   A(6,5,7)              111.0942                                         !
 ! A11   A(6,5,8)              110.0536                                         !
 ! A12   A(7,5,8)              115.4844                                         !
 ! A13   A(5,7,10)             116.913                                          !
 ! A14   A(5,7,19)             117.1687                                         !
 ! A15   A(10,7,19)            125.9181                                         !
 ! A16   A(5,8,9)              105.1671                                         !
 ! A17   A(5,8,11)             112.7948                                         !
 ! A18   A(5,8,15)             111.4734                                         !
 ! A19   A(9,8,11)             108.6646                                         !
 ! A20   A(9,8,15)             106.707                                          !
 ! A21   A(11,8,15)            111.6022                                         !
 ! A22   A(8,11,12)            111.3367                                         !
 ! A23   A(8,11,13)            109.6126                                         !
 ! A24   A(8,11,14)            113.4189                                         !
 ! A25   A(12,11,13)           107.7379                                         !
 ! A26   A(12,11,14)           107.539                                          !
 ! A27   A(13,11,14)           106.9477                                         !
 ! A28   A(8,15,16)            112.4685                                         !
 ! A29   A(8,15,17)            111.8329                                         !
 ! A30   A(8,15,18)            109.2169                                         !
 ! A31   A(16,15,17)           108.4577                                         !
 ! A32   A(16,15,18)           107.2488                                         !
 ! A33   A(17,15,18)           107.3903                                         !
 ! A34   A(7,19,20)            122.5575                                         !
 ! A35   A(7,19,21)            125.2826                                         !
 ! A36   A(20,19,21)           111.8207                                         !
 ! A37   A(19,21,22)           107.9737                                         !
 ! A38   A(19,21,23)           103.374                                          !
 ! A39   A(19,21,24)           110.9672                                         !
 ! A40   A(22,21,23)           110.497                                          !
 ! A41   A(22,21,24)           109.1738                                         !
 ! A42   A(23,21,24)           114.5757                                         !
 ! A43   A(21,23,26)           119.6021                                         !
 ! A44   A(21,23,38)           116.6159                                         !
 ! A45   A(26,23,38)           123.7554                                         !
 ! A46   A(21,24,25)           103.8753                                         !
 ! A47   A(21,24,27)           113.7052                                         !
 ! A48   A(21,24,30)           112.1185                                         !
 ! A49   A(25,24,27)           107.0369                                         !
 ! A50   A(25,24,30)           108.8816                                         !
 ! A51   A(27,24,30)           110.7683                                         !
 ! A52   A(24,27,28)           109.6987                                         !
 ! A53   A(24,27,29)           106.1764                                         !
 ! A54   A(24,27,34)           115.6587                                         !
 ! A55   A(28,27,29)           105.1372                                         !
 ! A56   A(28,27,34)           111.1215                                         !
 ! A57   A(29,27,34)           108.3924                                         !
 ! A58   A(24,30,31)           111.1697                                         !
 ! A59   A(24,30,32)           112.1719                                         !
 ! A60   A(24,30,33)           109.733                                          !
 ! A61   A(31,30,32)           108.4265                                         !
 ! A62   A(31,30,33)           107.7137                                         !
 ! A63   A(32,30,33)           107.4557                                         !
 ! A64   A(27,34,35)           110.4932                                         !
 ! A65   A(27,34,36)           113.1673                                         !
 ! A66   A(27,34,37)           111.3199                                         !
 ! A67   A(35,34,36)           106.391                                          !
 ! A68   A(35,34,37)           107.7599                                         !
 ! A69   A(36,34,37)           107.4321                                         !
 ! A70   A(23,38,39)           118.9153                                         !
 ! A71   A(23,38,40)           121.7788                                         !
 ! A72   A(39,38,40)           115.9202                                         !
 ! A73   A(38,40,41)           106.912                                          !
 ! A74   A(38,40,42)           109.5582                                         !
 ! A75   A(38,40,43)           110.1318                                         !
 ! A76   A(41,40,42)           107.1228                                         !
 ! A77   A(41,40,43)           108.6168                                         !
 ! A78   A(42,40,43)           114.2011                                         !
 ! A79   A(40,42,46)           121.9952                                         !
 ! A80   A(40,42,58)           114.9917                                         !
 ! A81   A(46,42,58)           122.9817                                         !
 ! A82   A(40,43,44)           107.2771                                         !
 ! A83   A(40,43,45)           108.2678                                         !
 ! A84   A(40,43,47)           114.6352                                         !
 ! A85   A(44,43,45)           106.7343                                         !
 ! A86   A(44,43,47)           109.3421                                         !
 ! A87   A(45,43,47)           110.2555                                         !
 ! A88   A(43,47,48)           120.0961                                         !
 ! A89   A(43,47,50)           121.3428                                         !
 ! A90   A(48,47,50)           118.5551                                         !
 ! A91   A(47,48,49)           119.4725                                         !
 ! A92   A(47,48,52)           120.7495                                         !
 ! A93   A(49,48,52)           119.7686                                         !
 ! A94   A(47,50,51)           119.5659                                         !
 ! A95   A(47,50,54)           120.9274                                         !
 ! A96   A(51,50,54)           119.5054                                         !
 ! A97   A(48,52,53)           119.7972                                         !
 ! A98   A(48,52,56)           120.0349                                         !
 ! A99   A(53,52,56)           120.1659                                         !
 ! A100  A(50,54,55)           120.0848                                         !
 ! A101  A(50,54,56)           119.8586                                         !
 ! A102  A(55,54,56)           120.0564                                         !
 ! A103  A(52,56,54)           119.8714                                         !
 ! A104  A(52,56,57)           120.2198                                         !
 ! A105  A(54,56,57)           119.9087                                         !
 ! A106  A(42,58,59)           119.8913                                         !
 ! A107  A(42,58,60)           122.7493                                         !
 ! A108  A(59,58,60)           117.2868                                         !
 ! A109  A(58,60,61)           105.739                                          !
 ! A110  A(58,60,62)           109.6112                                         !
 ! A111  A(58,60,63)           109.5101                                         !
 ! A112  A(61,60,62)           109.3725                                         !
 ! A113  A(61,60,63)           111.0128                                         !
 ! A114  A(62,60,63)           111.4319                                         !
 ! A115  A(60,62,66)           121.7977                                         !
 ! A116  A(60,62,77)           114.2984                                         !
 ! A117  A(66,62,77)           123.9023                                         !
 ! A118  A(60,63,64)           107.7671                                         !
 ! A119  A(60,63,65)           108.067                                          !
 ! A120  A(60,63,67)           115.2955                                         !
 ! A121  A(64,63,65)           107.832                                          !
 ! A122  A(64,63,67)           108.4097                                         !
 ! A123  A(65,63,67)           109.2315                                         !
 ! A124  A(63,67,68)           107.4892                                         !
 ! A125  A(63,67,69)           112.7366                                         !
 ! A126  A(63,67,73)           109.581                                          !
 ! A127  A(68,67,69)           108.5688                                         !
 ! A128  A(68,67,73)           107.6518                                         !
 ! A129  A(69,67,73)           110.6312                                         !
 ! A130  A(67,69,70)           111.0524                                         !
 ! A131  A(67,69,71)           112.5007                                         !
 ! A132  A(67,69,72)           110.5656                                         !
 ! A133  A(70,69,71)           107.8465                                         !
 ! A134  A(70,69,72)           107.5095                                         !
 ! A135  A(71,69,72)           107.1469                                         !
 ! A136  A(67,73,74)           111.12                                           !
 ! A137  A(67,73,75)           110.9536                                         !
 ! A138  A(67,73,76)           111.3481                                         !
 ! A139  A(74,73,75)           107.5837                                         !
 ! A140  A(74,73,76)           107.8828                                         !
 ! A141  A(75,73,76)           107.7869                                         !
 ! A142  A(62,77,78)           120.6979                                         !
 ! A143  A(62,77,79)           122.5635                                         !
 ! A144  A(78,77,79)           116.3304                                         !
 ! A145  A(77,79,80)           107.965                                          !
 ! A146  A(77,79,81)           105.8711                                         !
 ! A147  A(77,79,82)           110.6949                                         !
 ! A148  A(80,79,81)           109.642                                          !
 ! A149  A(80,79,82)           108.3                                            !
 ! A150  A(81,79,82)           114.1986                                         !
 ! A151  A(79,81,85)           120.9141                                         !
 ! A152  A(79,81,92)           116.667                                          !
 ! A153  A(85,81,92)           122.3979                                         !
 ! A154  A(79,82,83)           108.9018                                         !
 ! A155  A(79,82,84)           104.4788                                         !
 ! A156  A(79,82,86)           116.7269                                         !
 ! A157  A(83,82,84)           108.2023                                         !
 ! A158  A(83,82,86)           109.1985                                         !
 ! A159  A(84,82,86)           108.9788                                         !
 ! A160  A(82,86,87)           111.2529                                         !
 ! A161  A(82,86,88)           107.6042                                         !
 ! A162  A(82,86,89)           114.8074                                         !
 ! A163  A(87,86,88)           106.3919                                         !
 ! A164  A(87,86,89)           110.2794                                         !
 ! A165  A(88,86,89)           105.9853                                         !
 ! A166  A(86,89,90)           115.8632                                         !
 ! A167  A(86,89,91)           117.8028                                         !
 ! A168  A(90,89,91)           126.3334                                         !
 ! A169  A(81,92,93)           118.3902                                         !
 ! A170  A(81,92,94)           121.3732                                         !
 ! A171  A(93,92,94)           114.5322                                         !
 ! A172  A(92,94,95)           106.0678                                         !
 ! A173  A(92,94,96)           110.4979                                         !
 ! A174  A(92,94,97)           107.6819                                         !
 ! A175  A(95,94,96)           108.8498                                         !
 ! A176  A(95,94,97)           111.5471                                         !
 ! A177  A(96,94,97)           112.0302                                         !
 ! A178  A(94,96,100)          121.0417                                         !
 ! A179  A(94,96,106)          115.4931                                         !
 ! A180  A(100,96,106)         123.4581                                         !
 ! A181  A(94,97,98)           108.4085                                         !
 ! A182  A(94,97,99)           108.8844                                         !
 ! A183  A(94,97,101)          117.9244                                         !
 ! A184  A(98,97,99)           106.8627                                         !
 ! A185  A(98,97,101)          108.2998                                         !
 ! A186  A(99,97,101)          105.9457                                         !
 ! A187  A(97,101,102)         116.6144                                         !
 ! A188  A(97,101,105)         121.5106                                         !
 ! A189  A(102,101,105)        121.5412                                         !
 ! A190  A(101,102,103)        116.8439                                         !
 ! A191  A(101,102,104)        121.1314                                         !
 ! A192  A(103,102,104)        116.2577                                         !
 ! A193  A(96,106,107)         118.1973                                         !
 ! A194  A(96,106,108)         119.9768                                         !
 ! A195  A(107,106,108)        119.9474                                         !
 ! A196  A(106,108,109)        106.927                                          !
 ! A197  A(106,108,110)        109.6102                                         !
 ! A198  A(106,108,111)        109.7119                                         !
 ! A199  A(109,108,110)        109.0973                                         !
 ! A200  A(109,108,111)        108.1441                                         !
 ! A201  A(110,108,111)        113.1489                                         !
 ! A202  A(108,110,114)        122.9041                                         !
 ! A203  A(108,110,127)        113.8414                                         !
 ! A204  A(114,110,127)        123.1861                                         !
 ! A205  A(108,111,112)        106.753                                          !
 ! A206  A(108,111,113)        109.3901                                         !
 ! A207  A(108,111,115)        112.9855                                         !
 ! A208  A(112,111,113)        107.4883                                         !
 ! A209  A(112,111,115)        109.6098                                         !
 ! A210  A(113,111,115)        110.4077                                         !
 ! A211  A(111,115,116)        121.4547                                         !
 ! A212  A(111,115,118)        120.4641                                         !
 ! A213  A(116,115,118)        118.0783                                         !
 ! A214  A(115,116,117)        119.367                                          !
 ! A215  A(115,116,120)        121.592                                          !
 ! A216  A(117,116,120)        119.0383                                         !
 ! A217  A(115,118,119)        119.6407                                         !
 ! A218  A(115,118,122)        120.8543                                         !
 ! A219  A(119,118,122)        119.5049                                         !
 ! A220  A(116,120,121)        121.3491                                         !
 ! A221  A(116,120,126)        119.6887                                         !
 ! A222  A(121,120,126)        118.9535                                         !
 ! A223  A(118,122,123)        119.9193                                         !
 ! A224  A(118,122,126)        120.1473                                         !
 ! A225  A(123,122,126)        119.9333                                         !
 ! A226  A(125,124,126)        109.1365                                         !
 ! A227  A(120,126,122)        119.6352                                         !
 ! A228  A(120,126,124)        117.499                                          !
 ! A229  A(122,126,124)        122.865                                          !
 ! A230  A(110,127,128)        119.7306                                         !
 ! A231  A(110,127,129)        122.4774                                         !
 ! A232  A(128,127,129)        117.439                                          !
 ! A233  A(127,129,130)        107.352                                          !
 ! A234  A(127,129,131)        109.6883                                         !
 ! A235  A(127,129,132)        111.1733                                         !
 ! A236  A(130,129,131)        109.9551                                         !
 ! A237  A(130,129,132)        110.0065                                         !
 ! A238  A(131,129,132)        108.6582                                         !
 ! A239  A(129,131,135)        124.6898                                         !
 ! A240  A(129,131,151)        111.7549                                         !
 ! A241  A(135,131,151)        123.4743                                         !
 ! A242  A(129,132,133)        107.2348                                         !
 ! A243  A(129,132,134)        109.0199                                         !
 ! A244  A(129,132,136)        112.0598                                         !
 ! A245  A(133,132,134)        106.5755                                         !
 ! A246  A(133,132,136)        109.7942                                         !
 ! A247  A(134,132,136)        111.9041                                         !
 ! A248  A(132,136,137)        110.2543                                         !
 ! A249  A(132,136,138)        109.2757                                         !
 ! A250  A(132,136,139)        113.8243                                         !
 ! A251  A(137,136,138)        106.0239                                         !
 ! A252  A(137,136,139)        109.6968                                         !
 ! A253  A(138,136,139)        107.434                                          !
 ! A254  A(136,139,140)        110.9174                                         !
 ! A255  A(136,139,141)        111.9719                                         !
 ! A256  A(136,139,142)        113.5398                                         !
 ! A257  A(140,139,141)        105.5944                                         !
 ! A258  A(140,139,142)        107.511                                          !
 ! A259  A(141,139,142)        106.8649                                         !
 ! A260  A(139,142,143)        117.3063                                         !
 ! A261  A(139,142,150)        124.1655                                         !
 ! A262  A(143,142,150)        114.5642                                         !
 ! A263  A(145,144,146)        115.5475                                         !
 ! A264  A(145,144,150)        112.5196                                         !
 ! A265  A(146,144,150)        117.7412                                         !
 ! A266  A(148,147,149)        115.6757                                         !
 ! A267  A(148,147,150)        113.5292                                         !
 ! A268  A(149,147,150)        115.3493                                         !
 ! A269  A(142,150,144)        122.8873                                         !
 ! A270  A(142,150,147)        118.9084                                         !
 ! A271  A(144,150,147)        117.9561                                         !
 ! A272  A(131,151,152)        106.6331                                         !
 ! D1    D(2,1,5,6)             13.1981                                         !
 ! D2    D(2,1,5,7)           -103.6599                                         !
 ! D3    D(2,1,5,8)            133.3676                                         !
 ! D4    D(3,1,5,6)            129.8619                                         !
 ! D5    D(3,1,5,7)             13.0039                                         !
 ! D6    D(3,1,5,8)           -109.9686                                         !
 ! D7    D(4,1,5,6)           -111.0712                                         !
 ! D8    D(4,1,5,7)            132.0708                                         !
 ! D9    D(4,1,5,8)              9.0982                                         !
 ! D10   D(1,5,7,10)           -13.9557                                         !
 ! D11   D(1,5,7,19)           166.2305                                         !
 ! D12   D(6,5,7,10)          -128.3842                                         !
 ! D13   D(6,5,7,19)            51.802                                          !
 ! D14   D(8,5,7,10)           105.3874                                         !
 ! D15   D(8,5,7,19)           -74.4264                                         !
 ! D16   D(1,5,8,9)            -53.0966                                         !
 ! D17   D(1,5,8,11)            65.171                                          !
 ! D18   D(1,5,8,15)          -168.3552                                         !
 ! D19   D(6,5,8,9)             65.7005                                         !
 ! D20   D(6,5,8,11)          -176.032                                          !
 ! D21   D(6,5,8,15)           -49.5581                                         !
 ! D22   D(7,5,8,9)           -167.5431                                         !
 ! D23   D(7,5,8,11)           -49.2756                                         !
 ! D24   D(7,5,8,15)            77.1983                                         !
 ! D25   D(5,7,19,20)            3.0773                                         !
 ! D26   D(5,7,19,21)          175.8347                                         !
 ! D27   D(10,7,19,20)        -176.7177                                         !
 ! D28   D(10,7,19,21)          -3.9603                                         !
 ! D29   D(5,8,11,12)           65.8747                                         !
 ! D30   D(5,8,11,13)         -175.0199                                         !
 ! D31   D(5,8,11,14)          -55.576                                          !
 ! D32   D(9,8,11,12)         -177.9248                                         !
 ! D33   D(9,8,11,13)          -58.8194                                         !
 ! D34   D(9,8,11,14)           60.6245                                         !
 ! D35   D(15,8,11,12)         -60.5303                                         !
 ! D36   D(15,8,11,13)          58.5751                                         !
 ! D37   D(15,8,11,14)         178.019                                          !
 ! D38   D(5,8,15,16)          -69.751                                          !
 ! D39   D(5,8,15,17)           52.5778                                         !
 ! D40   D(5,8,15,18)          171.3039                                         !
 ! D41   D(9,8,15,16)          175.9428                                         !
 ! D42   D(9,8,15,17)          -61.7284                                         !
 ! D43   D(9,8,15,18)           56.9977                                         !
 ! D44   D(11,8,15,16)          57.3734                                         !
 ! D45   D(11,8,15,17)         179.7022                                         !
 ! D46   D(11,8,15,18)         -61.5717                                         !
 ! D47   D(7,19,21,22)         -36.0744                                         !
 ! D48   D(7,19,21,23)        -153.1724                                         !
 ! D49   D(7,19,21,24)          83.5353                                         !
 ! D50   D(20,19,21,22)        137.3532                                         !
 ! D51   D(20,19,21,23)         20.2551                                         !
 ! D52   D(20,19,21,24)       -103.0372                                         !
 ! D53   D(19,21,23,26)        -18.8299                                         !
 ! D54   D(19,21,23,38)        159.3616                                         !
 ! D55   D(22,21,23,26)       -134.1388                                         !
 ! D56   D(22,21,23,38)         44.0527                                         !
 ! D57   D(24,21,23,26)        102.0457                                         !
 ! D58   D(24,21,23,38)        -79.7627                                         !
 ! D59   D(19,21,24,25)        -52.7684                                         !
 ! D60   D(19,21,24,27)       -168.7487                                         !
 ! D61   D(19,21,24,30)         64.6327                                         !
 ! D62   D(22,21,24,25)         66.1211                                         !
 ! D63   D(22,21,24,27)        -49.8593                                         !
 ! D64   D(22,21,24,30)       -176.4778                                         !
 ! D65   D(23,21,24,25)       -169.3603                                         !
 ! D66   D(23,21,24,27)         74.6594                                         !
 ! D67   D(23,21,24,30)        -51.9591                                         !
 ! D68   D(21,23,38,39)          9.6726                                         !
 ! D69   D(21,23,38,40)        168.0521                                         !
 ! D70   D(26,23,38,39)       -172.2186                                         !
 ! D71   D(26,23,38,40)        -13.8392                                         !
 ! D72   D(21,24,27,28)        -69.1414                                         !
 ! D73   D(21,24,27,29)        177.7389                                         !
 ! D74   D(21,24,27,34)         57.4858                                         !
 ! D75   D(25,24,27,28)        176.7494                                         !
 ! D76   D(25,24,27,29)         63.6297                                         !
 ! D77   D(25,24,27,34)        -56.6233                                         !
 ! D78   D(30,24,27,28)         58.1817                                         !
 ! D79   D(30,24,27,29)        -54.938                                          !
 ! D80   D(30,24,27,34)       -175.1911                                         !
 ! D81   D(21,24,30,31)         69.1313                                         !
 ! D82   D(21,24,30,32)        -52.4594                                         !
 ! D83   D(21,24,30,33)       -171.8202                                         !
 ! D84   D(25,24,30,31)       -176.5012                                         !
 ! D85   D(25,24,30,32)         61.9082                                         !
 ! D86   D(25,24,30,33)        -57.4527                                         !
 ! D87   D(27,24,30,31)        -59.0578                                         !
 ! D88   D(27,24,30,32)        179.3516                                         !
 ! D89   D(27,24,30,33)         59.9907                                         !
 ! D90   D(24,27,34,35)        170.9987                                         !
 ! D91   D(24,27,34,36)        -69.8172                                         !
 ! D92   D(24,27,34,37)         51.3008                                         !
 ! D93   D(28,27,34,35)        -63.0957                                         !
 ! D94   D(28,27,34,36)         56.0884                                         !
 ! D95   D(28,27,34,37)        177.2063                                         !
 ! D96   D(29,27,34,35)         51.9572                                         !
 ! D97   D(29,27,34,36)        171.1413                                         !
 ! D98   D(29,27,34,37)        -67.7407                                         !
 ! D99   D(23,38,40,41)         39.121                                          !
 ! D100  D(23,38,40,42)        -76.6382                                         !
 ! D101  D(23,38,40,43)        156.9502                                         !
 ! D102  D(39,38,40,41)       -161.8931                                         !
 ! D103  D(39,38,40,42)         82.3477                                         !
 ! D104  D(39,38,40,43)        -44.0639                                         !
 ! D105  D(38,40,42,46)        -11.5479                                         !
 ! D106  D(38,40,42,58)        166.4691                                         !
 ! D107  D(41,40,42,46)       -127.1729                                         !
 ! D108  D(41,40,42,58)         50.844                                          !
 ! D109  D(43,40,42,46)        112.5161                                         !
 ! D110  D(43,40,42,58)        -69.4669                                         !
 ! D111  D(38,40,43,44)        -74.0284                                         !
 ! D112  D(38,40,43,45)        171.1237                                         !
 ! D113  D(38,40,43,47)         47.5875                                         !
 ! D114  D(41,40,43,44)         42.7426                                         !
 ! D115  D(41,40,43,45)        -72.1053                                         !
 ! D116  D(41,40,43,47)        164.3584                                         !
 ! D117  D(42,40,43,44)        162.2156                                         !
 ! D118  D(42,40,43,45)         47.3677                                         !
 ! D119  D(42,40,43,47)        -76.1686                                         !
 ! D120  D(40,42,58,59)          3.2236                                         !
 ! D121  D(40,42,58,60)       -173.5907                                         !
 ! D122  D(46,42,58,59)       -178.7813                                         !
 ! D123  D(46,42,58,60)          4.4043                                         !
 ! D124  D(40,43,47,48)        -97.4844                                         !
 ! D125  D(40,43,47,50)         81.618                                          !
 ! D126  D(44,43,47,48)         22.9962                                         !
 ! D127  D(44,43,47,50)       -157.9014                                         !
 ! D128  D(45,43,47,48)        140.0489                                         !
 ! D129  D(45,43,47,50)        -40.8487                                         !
 ! D130  D(43,47,48,49)         -2.4404                                         !
 ! D131  D(43,47,48,52)        178.6752                                         !
 ! D132  D(50,47,48,49)        178.4324                                         !
 ! D133  D(50,47,48,52)         -0.4521                                         !
 ! D134  D(43,47,50,51)          1.7119                                         !
 ! D135  D(43,47,50,54)       -178.7113                                         !
 ! D136  D(48,47,50,51)       -179.1723                                         !
 ! D137  D(48,47,50,54)          0.4046                                         !
 ! D138  D(47,48,52,53)        179.5191                                         !
 ! D139  D(47,48,52,56)          0.0299                                         !
 ! D140  D(49,48,52,53)          0.638                                          !
 ! D141  D(49,48,52,56)       -178.8512                                         !
 ! D142  D(47,50,54,55)       -179.7636                                         !
 ! D143  D(47,50,54,56)          0.0652                                         !
 ! D144  D(51,50,54,55)         -0.1866                                         !
 ! D145  D(51,50,54,56)        179.6423                                         !
 ! D146  D(48,52,56,54)          0.4485                                         !
 ! D147  D(48,52,56,57)       -179.4816                                         !
 ! D148  D(53,52,56,54)       -179.0388                                         !
 ! D149  D(53,52,56,57)          1.0311                                         !
 ! D150  D(50,54,56,52)         -0.4955                                         !
 ! D151  D(50,54,56,57)        179.4349                                         !
 ! D152  D(55,54,56,52)        179.3334                                         !
 ! D153  D(55,54,56,57)         -0.7362                                         !
 ! D154  D(42,58,60,61)         29.8039                                         !
 ! D155  D(42,58,60,62)        -87.9884                                         !
 ! D156  D(42,58,60,63)        149.4797                                         !
 ! D157  D(59,58,60,61)       -147.0885                                         !
 ! D158  D(59,58,60,62)         95.1192                                         !
 ! D159  D(59,58,60,63)        -27.4127                                         !
 ! D160  D(58,60,62,66)        -91.1845                                         !
 ! D161  D(58,60,62,77)         88.3811                                         !
 ! D162  D(61,60,62,66)        153.3146                                         !
 ! D163  D(61,60,62,77)        -27.1198                                         !
 ! D164  D(63,60,62,66)         30.1973                                         !
 ! D165  D(63,60,62,77)       -150.2371                                         !
 ! D166  D(58,60,63,64)         64.7315                                         !
 ! D167  D(58,60,63,65)        -51.5492                                         !
 ! D168  D(58,60,63,67)       -174.0547                                         !
 ! D169  D(61,60,63,64)       -178.8848                                         !
 ! D170  D(61,60,63,65)         64.8345                                         !
 ! D171  D(61,60,63,67)        -57.671                                          !
 ! D172  D(62,60,63,64)        -56.7092                                         !
 ! D173  D(62,60,63,65)       -172.9899                                         !
 ! D174  D(62,60,63,67)         64.5046                                         !
 ! D175  D(60,62,77,78)         -5.488                                          !
 ! D176  D(60,62,77,79)       -177.8831                                         !
 ! D177  D(66,62,77,78)        174.0671                                         !
 ! D178  D(66,62,77,79)          1.672                                          !
 ! D179  D(60,63,67,68)        -57.9373                                         !
 ! D180  D(60,63,67,69)         61.6698                                         !
 ! D181  D(60,63,67,73)       -174.6504                                         !
 ! D182  D(64,63,67,68)         62.9277                                         !
 ! D183  D(64,63,67,69)       -177.4652                                         !
 ! D184  D(64,63,67,73)        -53.7854                                         !
 ! D185  D(65,63,67,68)       -179.8185                                         !
 ! D186  D(65,63,67,69)        -60.2114                                         !
 ! D187  D(65,63,67,73)         63.4684                                         !
 ! D188  D(63,67,69,70)         58.644                                          !
 ! D189  D(63,67,69,71)        -62.3458                                         !
 ! D190  D(63,67,69,72)        177.9019                                         !
 ! D191  D(68,67,69,70)        177.6248                                         !
 ! D192  D(68,67,69,71)         56.6349                                         !
 ! D193  D(68,67,69,72)        -63.1173                                         !
 ! D194  D(73,67,69,70)        -64.4525                                         !
 ! D195  D(73,67,69,71)        174.5577                                         !
 ! D196  D(73,67,69,72)         54.8054                                         !
 ! D197  D(63,67,73,74)        -62.8705                                         !
 ! D198  D(63,67,73,75)        177.4795                                         !
 ! D199  D(63,67,73,76)         57.4215                                         !
 ! D200  D(68,67,73,74)       -179.4811                                         !
 ! D201  D(68,67,73,75)         60.8689                                         !
 ! D202  D(68,67,73,76)        -59.1891                                         !
 ! D203  D(69,67,73,74)         62.0369                                         !
 ! D204  D(69,67,73,75)        -57.6131                                         !
 ! D205  D(69,67,73,76)       -177.6711                                         !
 ! D206  D(62,77,79,80)        -42.8735                                         !
 ! D207  D(62,77,79,81)       -160.2324                                         !
 ! D208  D(62,77,79,82)         75.5081                                         !
 ! D209  D(78,77,79,80)        144.4209                                         !
 ! D210  D(78,77,79,81)         27.0621                                         !
 ! D211  D(78,77,79,82)        -97.1975                                         !
 ! D212  D(77,79,81,85)        -20.1584                                         !
 ! D213  D(77,79,81,92)        158.2144                                         !
 ! D214  D(80,79,81,85)       -136.3865                                         !
 ! D215  D(80,79,81,92)         41.9863                                         !
 ! D216  D(82,79,81,85)        101.8846                                         !
 ! D217  D(82,79,81,92)        -79.7425                                         !
 ! D218  D(77,79,82,83)         67.3404                                         !
 ! D219  D(77,79,82,84)        -48.0908                                         !
 ! D220  D(77,79,82,86)       -168.4944                                         !
 ! D221  D(80,79,82,83)       -174.4819                                         !
 ! D222  D(80,79,82,84)         70.0869                                         !
 ! D223  D(80,79,82,86)        -50.3167                                         !
 ! D224  D(81,79,82,83)        -52.0175                                         !
 ! D225  D(81,79,82,84)       -167.4487                                         !
 ! D226  D(81,79,82,86)         72.1477                                         !
 ! D227  D(79,81,92,93)         25.1262                                         !
 ! D228  D(79,81,92,94)        177.0534                                         !
 ! D229  D(85,81,92,93)       -156.5271                                         !
 ! D230  D(85,81,92,94)         -4.6                                            !
 ! D231  D(79,82,86,87)         40.4173                                         !
 ! D232  D(79,82,86,88)        156.5905                                         !
 ! D233  D(79,82,86,89)        -85.7022                                         !
 ! D234  D(83,82,86,87)        164.4311                                         !
 ! D235  D(83,82,86,88)        -79.3957                                         !
 ! D236  D(83,82,86,89)         38.3116                                         !
 ! D237  D(84,82,86,87)        -77.5647                                         !
 ! D238  D(84,82,86,88)         38.6086                                         !
 ! D239  D(84,82,86,89)        156.3159                                         !
 ! D240  D(82,86,89,90)        127.8982                                         !
 ! D241  D(82,86,89,91)        -52.3663                                         !
 ! D242  D(87,86,89,90)          1.2775                                         !
 ! D243  D(87,86,89,91)       -178.9871                                         !
 ! D244  D(88,86,89,90)       -113.4817                                         !
 ! D245  D(88,86,89,91)         66.2537                                         !
 ! D246  D(81,92,94,95)         35.9421                                         !
 ! D247  D(81,92,94,96)        -81.8735                                         !
 ! D248  D(81,92,94,97)        155.478                                          !
 ! D249  D(93,92,94,95)       -171.1277                                         !
 ! D250  D(93,92,94,96)         71.0567                                         !
 ! D251  D(93,92,94,97)        -51.5918                                         !
 ! D252  D(92,94,96,100)      -112.7252                                         !
 ! D253  D(92,94,96,106)        66.3402                                         !
 ! D254  D(95,94,96,100)       131.1799                                         !
 ! D255  D(95,94,96,106)       -49.7546                                         !
 ! D256  D(97,94,96,100)         7.3459                                         !
 ! D257  D(97,94,96,106)      -173.5886                                         !
 ! D258  D(92,94,97,98)        -74.8042                                         !
 ! D259  D(92,94,97,99)         41.1062                                         !
 ! D260  D(92,94,97,101)       161.7648                                         !
 ! D261  D(95,94,97,98)         41.1851                                         !
 ! D262  D(95,94,97,99)        157.0955                                         !
 ! D263  D(95,94,97,101)       -82.2458                                         !
 ! D264  D(96,94,97,98)        163.4951                                         !
 ! D265  D(96,94,97,99)        -80.5945                                         !
 ! D266  D(96,94,97,101)        40.0641                                         !
 ! D267  D(94,96,106,107)       -2.0147                                         !
 ! D268  D(94,96,106,108)     -166.4114                                         !
 ! D269  D(100,96,106,107)     177.0256                                         !
 ! D270  D(100,96,106,108)      12.6289                                         !
 ! D271  D(94,97,101,102)       52.8522                                         !
 ! D272  D(94,97,101,105)     -133.6853                                         !
 ! D273  D(98,97,101,102)      -70.6333                                         !
 ! D274  D(98,97,101,105)      102.8292                                         !
 ! D275  D(99,97,101,102)      175.0204                                         !
 ! D276  D(99,97,101,105)      -11.5171                                         !
 ! D277  D(97,101,102,103)    -172.8693                                         !
 ! D278  D(97,101,102,104)     -20.6249                                         !
 ! D279  D(105,101,102,103)     13.6704                                         !
 ! D280  D(105,101,102,104)    165.9147                                         !
 ! D281  D(96,106,108,109)      51.8339                                         !
 ! D282  D(96,106,108,110)     -66.2963                                         !
 ! D283  D(96,106,108,111)     168.8867                                         !
 ! D284  D(107,106,108,109)   -112.2886                                         !
 ! D285  D(107,106,108,110)    129.5812                                         !
 ! D286  D(107,106,108,111)      4.7642                                         !
 ! D287  D(106,108,110,114)    -29.3052                                         !
 ! D288  D(106,108,110,127)    147.7712                                         !
 ! D289  D(109,108,110,114)   -146.0769                                         !
 ! D290  D(109,108,110,127)     30.9995                                         !
 ! D291  D(111,108,110,114)     93.4969                                         !
 ! D292  D(111,108,110,127)    -89.4267                                         !
 ! D293  D(106,108,111,112)    -47.6402                                         !
 ! D294  D(106,108,111,113)     68.3777                                         !
 ! D295  D(106,108,111,115)   -168.1976                                         !
 ! D296  D(109,108,111,112)     68.647                                          !
 ! D297  D(109,108,111,113)   -175.3352                                         !
 ! D298  D(109,108,111,115)    -51.9105                                         !
 ! D299  D(110,108,111,112)   -170.3859                                         !
 ! D300  D(110,108,111,113)    -54.368                                          !
 ! D301  D(110,108,111,115)     69.0567                                         !
 ! D302  D(108,110,127,128)     16.3548                                         !
 ! D303  D(108,110,127,129)   -170.644                                          !
 ! D304  D(114,110,127,128)   -166.5782                                         !
 ! D305  D(114,110,127,129)      6.423                                          !
 ! D306  D(108,111,115,116)   -118.4919                                         !
 ! D307  D(108,111,115,118)     60.881                                          !
 ! D308  D(112,111,115,116)    122.5934                                         !
 ! D309  D(112,111,115,118)    -58.0338                                         !
 ! D310  D(113,111,115,116)      4.3687                                         !
 ! D311  D(113,111,115,118)   -176.2584                                         !
 ! D312  D(111,115,116,117)      0.103                                          !
 ! D313  D(111,115,116,120)    179.4946                                         !
 ! D314  D(118,115,116,117)   -179.2843                                         !
 ! D315  D(118,115,116,120)      0.1072                                         !
 ! D316  D(111,115,118,119)      1.1821                                         !
 ! D317  D(111,115,118,122)   -178.9436                                         !
 ! D318  D(116,115,118,119)   -179.4242                                         !
 ! D319  D(116,115,118,122)      0.4501                                         !
 ! D320  D(115,116,120,121)   -179.5233                                         !
 ! D321  D(115,116,120,126)     -0.6089                                         !
 ! D322  D(117,116,120,121)     -0.1298                                         !
 ! D323  D(117,116,120,126)    178.7846                                         !
 ! D324  D(115,118,122,123)    179.4847                                         !
 ! D325  D(115,118,122,126)     -0.5035                                         !
 ! D326  D(119,118,122,123)     -0.6409                                         !
 ! D327  D(119,118,122,126)    179.371                                          !
 ! D328  D(116,120,126,122)      0.5526                                         !
 ! D329  D(116,120,126,124)   -179.7674                                         !
 ! D330  D(121,120,126,122)    179.493                                          !
 ! D331  D(121,120,126,124)     -0.827                                          !
 ! D332  D(118,122,126,120)     -0.0057                                         !
 ! D333  D(118,122,126,124)   -179.6677                                         !
 ! D334  D(123,122,126,120)   -179.9938                                         !
 ! D335  D(123,122,126,124)      0.3441                                         !
 ! D336  D(125,124,126,120)    176.172                                          !
 ! D337  D(125,124,126,122)     -4.1591                                         !
 ! D338  D(110,127,129,130)    -12.7123                                         !
 ! D339  D(110,127,129,131)   -132.1557                                         !
 ! D340  D(110,127,129,132)    107.6467                                         !
 ! D341  D(128,127,129,130)    160.4405                                         !
 ! D342  D(128,127,129,131)     40.9971                                         !
 ! D343  D(128,127,129,132)    -79.2005                                         !
 ! D344  D(127,129,131,135)    -24.5611                                         !
 ! D345  D(127,129,131,151)    158.6212                                         !
 ! D346  D(130,129,131,135)   -142.3951                                         !
 ! D347  D(130,129,131,151)     40.7873                                         !
 ! D348  D(132,129,131,135)     97.1557                                         !
 ! D349  D(132,129,131,151)    -79.6619                                         !
 ! D350  D(127,129,132,133)     64.7165                                         !
 ! D351  D(127,129,132,134)    179.7328                                         !
 ! D352  D(127,129,132,136)    -55.833                                          !
 ! D353  D(130,129,132,133)   -176.5065                                         !
 ! D354  D(130,129,132,134)    -61.4902                                         !
 ! D355  D(130,129,132,136)     62.944                                          !
 ! D356  D(131,129,132,133)    -56.0891                                         !
 ! D357  D(131,129,132,134)     58.9272                                         !
 ! D358  D(131,129,132,136)   -176.6387                                         !
 ! D359  D(129,131,151,152)    176.3765                                         !
 ! D360  D(135,131,151,152)     -0.4865                                         !
 ! D361  D(129,132,136,137)    -79.9028                                         !
 ! D362  D(129,132,136,138)     36.2491                                         !
 ! D363  D(129,132,136,139)    156.341                                          !
 ! D364  D(133,132,136,137)    161.0443                                         !
 ! D365  D(133,132,136,138)    -82.8037                                         !
 ! D366  D(133,132,136,139)     37.2881                                         !
 ! D367  D(134,132,136,137)     42.9129                                         !
 ! D368  D(134,132,136,138)    159.0648                                         !
 ! D369  D(134,132,136,139)    -80.8433                                         !
 ! D370  D(132,136,139,140)    -34.9953                                         !
 ! D371  D(132,136,139,141)     82.685                                          !
 ! D372  D(132,136,139,142)   -156.1841                                         !
 ! D373  D(137,136,139,140)   -159.053                                          !
 ! D374  D(137,136,139,141)    -41.3727                                         !
 ! D375  D(137,136,139,142)     79.7582                                         !
 ! D376  D(138,136,139,140)     86.1295                                         !
 ! D377  D(138,136,139,141)   -156.1903                                         !
 ! D378  D(138,136,139,142)    -35.0594                                         !
 ! D379  D(136,139,142,143)    -77.6627                                         !
 ! D380  D(136,139,142,150)     78.6618                                         !
 ! D381  D(140,139,142,143)    159.258                                          !
 ! D382  D(140,139,142,150)    -44.4175                                         !
 ! D383  D(141,139,142,143)     46.2908                                         !
 ! D384  D(141,139,142,150)   -157.3847                                         !
 ! D385  D(139,142,150,144)     10.5552                                         !
 ! D386  D(139,142,150,147)   -175.2905                                         !
 ! D387  D(143,142,150,144)    167.4566                                         !
 ! D388  D(143,142,150,147)    -18.3891                                         !
 ! D389  D(145,144,150,142)   -157.7624                                         !
 ! D390  D(145,144,150,147)     28.0308                                         !
 ! D391  D(146,144,150,142)    -19.5564                                         !
 ! D392  D(146,144,150,147)    166.2368                                         !
 ! D393  D(148,147,150,142)    167.3377                                         !
 ! D394  D(148,147,150,144)    -18.2188                                         !
 ! D395  D(149,147,150,142)     30.5186                                         !
 ! D396  D(149,147,150,144)   -155.0379                                         !
 --------------------------------------------------------------------------------
 Symmetry turned off by external request.
 Stoichiometry    C50H77N12O13(1+)
 Framework group  C1[X(C50H77N12O13)]
 Deg. of freedom   450
 Full point group                 C1      NOp   1
                          Input orientation:                          
 ---------------------------------------------------------------------
 Center     Atomic      Atomic             Coordinates (Angstroms)
 Number     Number       Type             X           Y           Z
 ---------------------------------------------------------------------
      1          7           0       -7.306734   -4.971579    4.345794
[...]
 Alpha virt. eigenvalues --    1.88985   1.89163   1.89376   1.89609   1.90129
 Alpha virt. eigenvalues --    1.90594   1.90682   1.90838   1.91255   1.91426
 Alpha virt. eigenvalues --    1.91596   1.91967   1.92074   1.92274   1.92494
 Alpha virt. eigenvalues --    1.92831   1.93471   1.93679   1.93775   1.93994
 Alpha virt. eigenvalues --    1.94023   1.94347   1.94506   1.94662   1.94869
 Alpha virt. eigenvalues --    1.95250   1.95441   1.95535   1.95885   1.95999
 Alpha virt. eigenvalues --    1.96654   1.96989   1.97542   1.97653   1.98240
 Alpha virt. eigenvalues --    1.98787   1.99493   1.99718   1.99806   1.99943
 Alpha virt. eigenvalues --    2.00354   2.00704   2.00761   2.01215   2.01951
 Alpha virt. eigenvalues --    2.02188   2.02335   2.02490   2.02765   2.03190
 Alpha virt. eigenvalues --    2.03350   2.03407   2.04053   2.04172   2.04920
 Alpha virt. eigenvalues --    2.05296   2.05798   2.06077   2.06825   2.07523
 Alpha virt. eigenvalues --    2.07795   2.08060   2.08400   2.08584   2.08782
 Alpha virt. eigenvalues --    2.08932   2.09609   2.09921   2.10173   2.10390
 Alpha virt. eigenvalues --    2.10775   2.11145   2.11550   2.11616   2.11695
 Alpha virt. eigenvalues --    2.12076   2.12323   2.12448   2.13269   2.13739
 Alpha virt. eigenvalues --    2.13856   2.14006   2.14261   2.14713   2.15598
 Alpha virt. eigenvalues --    2.16510   2.16785   2.17299   2.17770   2.18711
 Alpha virt. eigenvalues --    2.18980   2.19074   2.19475   2.19811   2.20410
 Alpha virt. eigenvalues --    2.21431   2.21655   2.21957   2.22479   2.22906
 Alpha virt. eigenvalues --    2.22982   2.23253   2.23833   2.25115   2.25226
 Alpha virt. eigenvalues --    2.25304   2.25726   2.26190   2.26283   2.26589
 Alpha virt. eigenvalues --    2.27011   2.27580   2.27666   2.27948   2.28582
 Alpha virt. eigenvalues --    2.29063   2.29164   2.29252   2.29898   2.30157
 Alpha virt. eigenvalues --    2.31227   2.31478   2.31777   2.32093   2.32245
 Alpha virt. eigenvalues --    2.32378   2.33028   2.33816   2.34390   2.34704
 Alpha virt. eigenvalues --    2.35267   2.35601   2.35660   2.36281   2.36554
 Alpha virt. eigenvalues --    2.36818   2.37069   2.37271   2.37902   2.38456
 Alpha virt. eigenvalues --    2.39191   2.39358   2.39663   2.40111   2.41056
 Alpha virt. eigenvalues --    2.41878   2.42277   2.42491   2.43651   2.44032
 Alpha virt. eigenvalues --    2.44855   2.45020   2.45437   2.46033   2.46089
 Alpha virt. eigenvalues --    2.46331   2.47345   2.48216   2.48467   2.48695
 Alpha virt. eigenvalues --    2.49363   2.50029   2.50258   2.51007   2.51550
 Alpha virt. eigenvalues --    2.51815   2.53138   2.53319   2.53627   2.53827
 Alpha virt. eigenvalues --    2.54094   2.54361   2.55322   2.55906   2.56030
 Alpha virt. eigenvalues --    2.56554   2.56940   2.57260   2.57928   2.58458
 Alpha virt. eigenvalues --    2.59162   2.59215   2.59431   2.59654   2.60194
 Alpha virt. eigenvalues --    2.60485   2.61052   2.61440   2.61563   2.61759
 Alpha virt. eigenvalues --    2.61985   2.62587   2.63453   2.63590   2.63753
 Alpha virt. eigenvalues --    2.64488   2.65043   2.65647   2.66030   2.66773
 Alpha virt. eigenvalues --    2.67325   2.68042   2.68435   2.69242   2.69717
 Alpha virt. eigenvalues --    2.69754   2.70221   2.70558   2.70648   2.71646
 Alpha virt. eigenvalues --    2.72336   2.72730   2.73733   2.74279   2.75120
 Alpha virt. eigenvalues --    2.76125   2.77147   2.78660   2.78811   2.79505
 Alpha virt. eigenvalues --    2.80441   2.80728   2.81301   2.82237   2.83493
 Alpha virt. eigenvalues --    2.84439   2.84475   2.85965   2.86875   2.88436
 Alpha virt. eigenvalues --    2.88839   2.89350   2.90588   2.92290   2.92512
 Alpha virt. eigenvalues --    2.93225   2.93336   2.94599   2.95186   2.96115
 Alpha virt. eigenvalues --    2.96479   2.97509   2.97724   2.98579   3.00049
 Alpha virt. eigenvalues --    3.00548   3.00889   3.02433   3.03501   3.04918
 Alpha virt. eigenvalues --    3.05260   3.06088   3.08422   3.10197   3.10936
 Alpha virt. eigenvalues --    3.11721   3.12284   3.13132   3.15170   3.17138
 Alpha virt. eigenvalues --    3.34937   3.37001   3.64302   3.76594   3.80373
 Alpha virt. eigenvalues --    3.86073   3.90172   3.90561   3.91133   3.92544
 Alpha virt. eigenvalues --    3.93020   3.97649   3.98505   3.99377   4.00551
 Alpha virt. eigenvalues --    4.00903   4.01871   4.03677   4.03851   4.04802
 Alpha virt. eigenvalues --    4.06544   4.06623   4.07343   4.08497   4.08986
 Alpha virt. eigenvalues --    4.09443   4.10560   4.11911   4.12346   4.14089
 Alpha virt. eigenvalues --    4.14946   4.15424   4.16180   4.17399   4.19519
 Alpha virt. eigenvalues --    4.20058   4.20743   4.21970   4.23055   4.23685
 Alpha virt. eigenvalues --    4.24251   4.26349   4.27068   4.27609   4.28604
 Alpha virt. eigenvalues --    4.29309   4.30050   4.30683   4.31247   4.32499
 Alpha virt. eigenvalues --    4.33105   4.35073   4.36590   4.37569   4.39407
 Alpha virt. eigenvalues --    4.40182   4.42345   4.42742   4.45029   4.46065
 Alpha virt. eigenvalues --    4.46191   4.48712   4.49279   4.52002   4.52974
 Alpha virt. eigenvalues --    4.55578   4.57419   4.57595   4.59113   4.59508
 Alpha virt. eigenvalues --    4.60715   4.61439   4.64155   4.67040   4.68008
 Alpha virt. eigenvalues --    4.70790   4.73195
          Condensed to atoms (all electrons):
 Mulliken charges:
               1
     1  N   -0.763941
     2  H    0.415232
     3  H    0.436062
     4  H    0.409822
     5  C   -0.104485
     6  H    0.209973
     7  C    0.655482
     8  C   -0.110458
     9  H    0.157721
    10  O   -0.552827
    11  C   -0.468894
    12  H    0.185287
    13  H    0.193286
    14  H    0.141775
    15  C   -0.478716
    16  H    0.188260
    17  H    0.166657
    18  H    0.188230
    19  N   -0.606320
    20  H    0.381634
    21  C   -0.087254
    22  H    0.190248
    23  C    0.648972
    24  C   -0.072338
    25  H    0.142625
    26  O   -0.555124
    27  C   -0.292750
    28  H    0.181138
    29  H    0.152091
    30  C   -0.477143
    31  H    0.202329
    32  H    0.122763
    33  H    0.159908
    34  C   -0.472122
    35  H    0.179851
    36  H    0.135109
    37  H    0.149185
    38  N   -0.604209
    39  H    0.370017
    40  C   -0.078468
    41  H    0.188575
    42  C    0.648383
    43  C   -0.368874
    44  H    0.166479
    45  H    0.167941
    46  O   -0.531323
    47  C    0.132776
    48  C   -0.202311
    49  H    0.124484
    50  C   -0.183133
    51  H    0.145750
    52  C   -0.125672
    53  H    0.138256
    54  C   -0.159810
    55  H    0.186518
    56  C   -0.132573
    57  H    0.152132
    58  N   -0.609942
    59  H    0.337685
    60  C   -0.051745
    61  H    0.173674
    62  C    0.636818
    63  C   -0.280147
    64  H    0.157185
    65  H    0.130951
    66  O   -0.537856
    67  C   -0.081251
    68  H    0.155152
    69  C   -0.451958
    70  H    0.137806
    71  H    0.143646
    72  H    0.151715
    73  C   -0.446274
    74  H    0.136882
    75  H    0.149292
    76  H    0.151218
    77  N   -0.622496
    78  H    0.368834
    79  C   -0.043030
    80  H    0.180566
    81  C    0.615618
    82  C   -0.282271
    83  H    0.167273
    84  H    0.171173
    85  O   -0.557110
    86  C   -0.353553
    87  H    0.139480
    88  H    0.164799
    89  C    0.587019
    90  O   -0.645758
    91  O   -0.567366
    92  N   -0.608907
    93  H    0.365607
    94  C   -0.089323
    95  H    0.181159
    96  C    0.664784
    97  C   -0.370301
    98  H    0.188118
    99  H    0.169871
   100  O   -0.542999
   101  C    0.634398
   102  N   -0.720174
   103  H    0.349968
   104  H    0.350343
   105  O   -0.554583
   106  N   -0.630777
   107  H    0.373071
   108  C   -0.036064
   109  H    0.196997
   110  C    0.632675
   111  C   -0.394437
   112  H    0.176206
   113  H    0.154463
   114  O   -0.530573
   115  C    0.142575
   116  C   -0.189960
   117  H    0.126849
   118  C   -0.237040
   119  H    0.197445
   120  C   -0.151479
   121  H    0.140995
   122  C   -0.204137
   123  H    0.127635
   124  O   -0.640127
   125  H    0.410227
   126  C    0.361505
   127  N   -0.612294
   128  H    0.349146
   129  C   -0.042672
   130  H    0.203404
   131  C    0.581610
   132  C   -0.277424
   133  H    0.135357
   134  H    0.166113
   135  O   -0.461216
   136  C   -0.301413
   137  H    0.147852
   138  H    0.224808
   139  C   -0.177752
   140  H    0.162654
   141  H    0.174699
   142  N   -0.588294
   143  H    0.363169
   144  N   -0.767674
   145  H    0.413542
   146  H    0.341773
   147  N   -0.791318
   148  H    0.390773
   149  H    0.378728
   150  C    0.776239
   151  O   -0.562826
   152  H    0.416772
 Sum of Mulliken charges =   1.00000
 Mulliken charges with hydrogens summed into heavy atoms:
               1
     1  N    0.497175
     5  C    0.105487
     7  C    0.655482
     8  C    0.047264
    10  O   -0.552827
    11  C    0.051453
    15  C    0.064431
    19  N   -0.224686
    21  C    0.102993
    23  C    0.648972
    24  C    0.070287
    26  O   -0.555124
    27  C    0.040479
    30  C    0.007857
    34  C   -0.007977
    38  N   -0.234192
    40  C    0.110107
    42  C    0.648383
    43  C   -0.034453
    46  O   -0.531323
    47  C    0.132776
    48  C   -0.077826
    50  C   -0.037383
    52  C    0.012584
    54  C    0.026708
    56  C    0.019559
    58  N   -0.272257
    60  C    0.121929
    62  C    0.636818
    63  C    0.007990
    66  O   -0.537856
    67  C    0.073901
    69  C   -0.018791
    73  C   -0.008881
    77  N   -0.253662
    79  C    0.137537
    81  C    0.615618
    82  C    0.056175
    85  O   -0.557110
    86  C   -0.049275
    89  C    0.587019
    90  O   -0.645758
    91  O   -0.567366
    92  N   -0.243300
    94  C    0.091836
    96  C    0.664784
    97  C   -0.012313
   100  O   -0.542999
   101  C    0.634398
   102  N   -0.019863
   105  O   -0.554583
   106  N   -0.257706
   108  C    0.160933
   110  C    0.632675
   111  C   -0.063768
   114  O   -0.530573
   115  C    0.142575
   116  C   -0.063112
   118  C   -0.039595
   120  C   -0.010484
   122  C   -0.076502
   124  O   -0.229899
   126  C    0.361505
   127  N   -0.263148
   129  C    0.160732
   131  C    0.581610
   132  C    0.024047
   135  O   -0.461216
   136  C    0.071247
   139  C    0.159602
   142  N   -0.225125
   144  N   -0.012360
   147  N   -0.021817
   150  C    0.776239
   151  O   -0.146054
 Electronic spatial extent (au):  <R**2>=          86519.4801
 Charge=              1.0000 electrons
 Dipole moment (field-independent basis, Debye):
    X=            -20.9728    Y=            -17.7808    Z=             13.6359  Tot=             30.6913
 Quadrupole moment (field-independent basis, Debye-Ang):
   XX=           -151.9402   YY=           -351.5493   ZZ=           -322.8340
   XY=             66.3011   XZ=           -144.5566   YZ=            -47.2503
 Traceless Quadrupole moment (field-independent basis, Debye-Ang):
   XX=            123.5009   YY=            -76.1081   ZZ=            -47.3928
   XY=             66.3011   XZ=           -144.5566   YZ=            -47.2503
 Octapole moment (field-independent basis, Debye-Ang**2):
  XXX=          -2673.0900  YYY=            590.7412  ZZZ=            -94.1412  XYY=          -1006.0579
  XXY=           -948.7024  XXZ=            688.2742  XZZ=           -985.8578  YZZ=             67.5456
  YYZ=            134.0538  XYZ=            580.2100
 Hexadecapole moment (field-independent basis, Debye-Ang**3):
 XXXX=         -39916.4154 YYYY=         -22836.1259 ZZZZ=         -24059.5449 XXXY=           9344.3508
 XXXZ=           1763.5298 YYYX=           7153.1703 YYYZ=           1573.2180 ZZZX=           7167.7917
 ZZZY=           2059.0235 XXYY=          -7742.0362 XXZZ=          -8600.6794 YYZZ=          -7436.6329
 XXYZ=          -2273.1107 YYXZ=            652.8783 ZZXY=           3630.0463
 N-N= 1.369830675852D+04 E-N=-3.571609935749D+04  KE= 3.553187778039D+03
 Unable to Open any file for archive entry.
 1\1\GINC-LAC-261\SP\RB3LYP\6-31G(d)\C50H77N12O13(1+)\KENGMITH\13-Aug-2
 022\0\\# B3LYP/6-31G* guess=read geom=check nosymm integral(ultrafineg
 rid)\\Candidate Structure: Conf:315 Charge calc in gas phase\\1,1\N,0,
 -7.3067342621,-4.9715785405,4.3457935082\H,0,-7.6242201596,-5.55613557
 15,3.568101827\H,0,-6.3017780949,-5.2403231773,4.6018109827\H,0,-7.940
 7086606,-5.1057627912,5.1379103405\C,0,-7.1293134862,-3.5119033326,3.9
 63946543\H,0,-7.6074031627,-3.3602747877,2.9930258409\C,0,-5.579338913
 ,-3.4041881483,3.8486652809\C,0,-7.7850136774,-2.5935783462,5.02912284
 13\H,0,-8.8183758173,-2.9608224077,5.1293569398\O,0,-4.9123612438,-4.3
 406505126,4.3260679003\C,0,-7.0952692219,-2.6848161871,6.4000968845\H,
 0,-6.0728995353,-2.2950614461,6.3584311684\H,0,-7.6497123974,-2.088530
 0634,7.1304297561\H,0,-7.0435344631,-3.7073864431,6.7951529397\C,0,-7.
 8783464712,-1.1394587457,4.5380238623\H,0,-6.8985543444,-0.656222275,4
 .4730851371\H,0,-8.3649366761,-1.0705252325,3.5581927771\H,0,-8.480199
 8857,-0.5590384384,5.2435461902\N,0,-5.0912559565,-2.3268397642,3.2571
 905951\H,0,-5.6854768456,-1.5644773259,2.9261818476\C,0,-3.6651159191,
 -2.001991326,3.1296739294\H,0,-3.1607952882,-2.3328372712,4.0418280615
 \C,0,-3.6568610695,-0.4602534493,3.0359038216\C,0,-3.0332859029,-2.731
 19226,1.9006104715\H,0,-3.3031358082,-3.7862621964,2.0526200266\O,0,-4
 .6933990368,0.138033775,2.7298835402\C,0,-1.4915275526,-2.6596990568,1
 .8616627224\H,0,-1.1743687994,-1.630917946,1.653311326\H,0,-1.18067297
 78,-3.2389913701,0.9828206576\C,0,-3.6346268893,-2.250824056,0.5711166
 308\H,0,-3.3369122836,-1.2206357172,0.3519644257\H,0,-4.7296624653,-2.
 3028514785,0.5695693501\H,0,-3.2745705364,-2.8829939363,-0.2473856178\
 C,0,-0.7688390904,-3.2225703513,3.0930451233\H,0,0.309487179,-3.277382
 8766,2.9127771698\H,0,-0.9017652194,-2.6058135176,3.9911612065\H,0,-1.
 1196872261,-4.2337468687,3.333870478\N,0,-2.4972723869,0.1568104483,3.
 337582247\H,0,-1.6618473975,-0.4035211103,3.4619904354\C,0,-2.28079476
 47,1.5639699166,3.0462922606\H,0,-3.2202935085,2.0819501764,3.26216435
 56\C,0,-1.9977942012,1.7433555004,1.5304044835\C,0,-1.1720137285,2.138
 6627305,3.9746004946\H,0,-1.6086594781,2.2490977461,4.9730815369\H,0,-
 0.9212042677,3.1471802953,3.6265510932\O,0,-1.7699565527,0.7861408114,
 0.7921627615\C,0,0.0801014963,1.2880301457,4.065254948\C,0,0.252797302
 3,0.4024385793,5.1397959398\H,0,-0.4989808249,0.3610695613,5.925779909
 9\C,0,1.0765503153,1.349582077,3.0806185664\H,0,0.9661008695,2.0390371
 483,2.2488132321\C,0,1.3878853756,-0.4074633261,5.2224601472\H,0,1.509
 6289062,-1.082220911,6.0656517767\C,0,2.2134031438,0.5431029442,3.1589
 015221\H,0,2.979930943,0.6048187903,2.3892345278\C,0,2.3666664626,-0.3
 414819597,4.2302397511\H,0,3.2459750697,-0.9755889317,4.2871027385\N,0
 ,-2.063258108,3.0206799266,1.0830610032\H,0,-2.2354592748,3.7750163517
 ,1.7349418826\C,0,-1.9611900118,3.370974613,-0.3419898632\H,0,-2.36637
 83184,2.5147547189,-0.8875645477\C,0,-0.473391594,3.5660049953,-0.7239
 411974\C,0,-2.7806482067,4.636176726,-0.61798771\H,0,-2.3182160235,5.4
 622613954,-0.0632426206\H,0,-3.791150846,4.4829090265,-0.213247444\O,0
 ,0.0728525875,4.6649544853,-0.6600205784\C,0,-2.8841580541,5.043649507
 3,-2.1019238543\H,0,-1.8625502393,5.1856929099,-2.4769934579\C,0,-3.57
 79308767,3.9771884188,-2.9636413641\H,0,-4.5924319912,3.7720205357,-2.
 5964448997\H,0,-3.0285566278,3.0288985166,-2.9803205667\H,0,-3.6655809
 522,4.3181011353,-4.0014543499\C,0,-3.6138135735,6.3905671987,-2.21625
 24759\H,0,-4.6446823382,6.3148406544,-1.8455498686\H,0,-3.6606785968,6
 .7235563536,-3.2591368764\H,0,-3.1047888925,7.1703886164,-1.6383599525
 \N,0,0.1544863468,2.4318633675,-1.1169602321\H,0,-0.3175614303,1.53379
 25093,-1.0668994356\C,0,1.5662019971,2.4005649409,-1.4727289142\H,0,1.
 7798291336,3.2831749672,-2.086213344\C,0,1.7597883483,1.1284280133,-2.
 3127718576\C,0,2.4545638762,2.4645196622,-0.2001082111\H,0,2.322423601
 8,1.5406331834,0.3712498751\H,0,2.0368290766,3.2903944298,0.3839696692
 \O,0,0.9437659641,0.20021128,-2.2578390281\C,0,3.9551598651,2.71447087
 41,-0.4166650549\H,0,4.1245220252,3.4602073212,-1.2022983053\H,0,4.357
 1744552,3.1438333869,0.5097145869\C,0,4.789669459,1.4457458411,-0.6943
 68886\O,0,5.5315043332,1.4820611257,-1.7387337464\O,0,4.6871966278,0.4
 936878756,0.1080170898\N,0,2.8430314888,1.0976558748,-3.1317474125\H,0
 ,3.6486256916,1.6768546742,-2.8927948913\C,0,3.1626450481,-0.090613117
 9,-3.9316099082\H,0,2.2016431705,-0.5146479041,-4.2418876402\C,0,3.914
 8109562,-1.1329899531,-3.0749976523\C,0,3.9958228489,0.3712486146,-5.1
 442044716\H,0,3.3244498311,0.8627042634,-5.8587550999\H,0,4.7120536297
 ,1.1239144911,-4.8141040957\O,0,5.0923200359,-1.4095957006,-3.30127207
 88\C,0,4.8097233691,-0.6816441952,-5.8963756367\N,0,4.1369733456,-1.78
 51879509,-6.3170504918\H,0,4.6897960687,-2.5329741867,-6.7156087619\H,
 0,3.2591512969,-2.0541545226,-5.8953197314\O,0,5.9860702813,-0.4826320
 071,-6.213291382\N,0,3.2008866518,-1.6850559362,-2.0736992531\H,0,2.24
 68880234,-1.3643694726,-1.9304175104\C,0,3.8764464287,-2.4448567191,-1
 .0316667565\H,0,4.6833320078,-1.8118824097,-0.6478144985\C,0,4.4861690
 928,-3.7288759964,-1.638491627\C,0,2.8953005466,-2.7274168613,0.125675
 4816\H,0,2.3983902199,-1.7764212798,0.3586488681\H,0,2.1229636466,-3.4
 282534826,-0.2145122065\O,0,4.0063261766,-4.2978063815,-2.6093902967\C
 ,0,3.5820769673,-3.2597723962,1.3669492106\C,0,3.2805698648,-4.5274146
 513,1.882759198\H,0,2.5384760788,-5.1448111382,1.3811392392\C,0,4.5551
 129562,-2.4919610663,2.0269532188\H,0,4.8024454121,-1.4995504166,1.653
 5034735\C,0,3.9175115222,-5.023752964,3.0174240916\H,0,3.6864261037,-6
 .0092261097,3.4091084267\C,0,5.2085241032,-2.9832819473,3.1582144724\H
 ,0,5.9667351718,-2.3781973066,3.653284734\O,0,5.4910256256,-4.78466722
 42,4.7637731589\H,0,6.1830618743,-4.1793776622,5.0726429841\C,0,4.8915
 260116,-4.2524117292,3.6577740605\N,0,5.6453990921,-4.1330137271,-1.02
 9431318\H,0,5.8905091024,-3.761861619,-0.1191193409\C,0,6.4778793672,-
 5.1900457393,-1.5654055325\H,0,5.89936655,-5.6995150449,-2.3397686433\
 C,0,6.8391789218,-6.169477209,-0.458080846\C,0,7.7934877808,-4.6170339
 202,-2.1729943613\H,0,8.3674992839,-4.1719156531,-1.3464635608\H,0,8.3
 972221648,-5.4449000664,-2.5627894244\O,0,6.8650051059,-5.8971101241,0
 .7216710004\C,0,7.5177024875,-3.5532518254,-3.2471559263\H,0,7.2579887
 523,-4.0329936088,-4.1988826024\H,0,6.6445183472,-2.9667201664,-2.9573
 849584\C,0,8.6846991115,-2.5687426948,-3.4628473823\H,0,9.2015209014,-
 2.3613867597,-2.5184255524\H,0,9.4476402479,-2.97839949,-4.1319299684\
 N,0,8.2685420863,-1.2828724637,-4.0293139919\H,0,8.0728088742,-1.25420
 13482,-5.0238588518\N,0,7.6371797953,-0.2986116705,-1.9782619699\H,0,6
 .8739506724,0.3109366021,-1.6090017218\H,0,7.7534397861,-1.183424399,-
 1.5077435004\N,0,7.2689119673,0.8099422302,-3.9622632962\H,0,6.6742155
 463,1.4108502896,-3.3913496423\H,0,6.9543789118,0.6596543455,-4.922903
 9225\C,0,7.6975301809,-0.2913362764,-3.3170947668\O,0,7.198350233,-7.3
 740136209,-0.9526459133\H,0,7.468601817,-7.9201920848,-0.1895720991\\V
 ersion=ES64L-G16RevC.01\HF=-3586.6408004\RMSD=6.493e-10\Dipole=-10.741
 0159,-5.3163411,4.880966\Quadrupole=91.8199287,-56.5845359,-35.2353928
 ,49.2932598,-107.4742565,-35.1294458\PG=C01 [X(C50H77N12O13)]\\@
 The archive entry for this job was punched.


 IT IS A QUALITY OF REVOLUTIONS NOT TO GO BY OLD LINES OR OLD LAWS,
 BUT TO BREAK UP BOTH, AND MAKE NEW ONES.
                                              -- A. LINCOLN (1848)
 Job cpu time:       0 days  0 hours 16 minutes 34.8 seconds.
 Elapsed time:       0 days  0 hours  4 minutes 10.0 seconds.
 File lengths (MBytes):  RWF=   1088 Int=      0 D2E=      0 Chk=    160 Scr=     32
 Normal termination of Gaussian 16 at Sat Aug 13 08:31:49 2022.
