 Entering Gaussian System, Link 0=/opt/software/Gaussian/g16-AVX-C.01/g16/g16
 Input=charge-conf-102.com
 Output=charge-conf-102.log
 Initial command:
 /opt/software/Gaussian/g16-AVX-C.01/g16/l1.exe "/mnt/gs21/scratch/kengmith/Gau-16410.inp" -scrdir="/mnt/gs21/scratch/kengmith/"
 Entering Link 1 = /opt/software/Gaussian/g16-AVX-C.01/g16/l1.exe PID=     16439.
  
 Copyright (c) 1988-2019, Gaussian, Inc.  All Rights Reserved.
  
 This is part of the Gaussian(R) 16 program.  It is based on
 the Gaussian(R) 09 system (copyright 2009, Gaussian, Inc.),
 the Gaussian(R) 03 system (copyright 2003, Gaussian, Inc.),
 the Gaussian(R) 98 system (copyright 1998, Gaussian, Inc.),
 the Gaussian(R) 94 system (copyright 1995, Gaussian, Inc.),
 the Gaussian 92(TM) system (copyright 1992, Gaussian, Inc.),
 the Gaussian 90(TM) system (copyright 1990, Gaussian, Inc.),
 the Gaussian 88(TM) system (copyright 1988, Gaussian, Inc.),
 the Gaussian 86(TM) system (copyright 1986, Carnegie Mellon
 University), and the Gaussian 82(TM) system (copyright 1983,
 Carnegie Mellon University). Gaussian is a federally registered
 trademark of Gaussian, Inc.
  
 This software contains proprietary and confidential information,
 including trade secrets, belonging to Gaussian, Inc.
  
 This software is provided under written license and may be
 used, copied, transmitted, or stored only in accord with that
 written license.
  
 The following legend is applicable only to US Government
 contracts under FAR:
  
                    RESTRICTED RIGHTS LEGEND
  
 Use, reproduction and disclosure by the US Government is
 subject to restrictions as set forth in subparagraphs (a)
 and (c) of the Commercial Computer Software - Restricted
 Rights clause in FAR 52.227-19.
  
 Gaussian, Inc.
 340 Quinnipiac St., Bldg. 40, Wallingford CT 06492
  
  
 ---------------------------------------------------------------
 Warning -- This program may not be used in any manner that
 competes with the business of Gaussian, Inc. or will provide
 assistance to any competitor of Gaussian, Inc.  The licensee
 of this program is prohibited from giving any competitor of
 Gaussian, Inc. access to this program.  By using this program,
 the user acknowledges that Gaussian, Inc. is engaged in the
 business of creating and licensing software in the field of
 computational chemistry and represents and warrants to the
 licensee that it is not a competitor of Gaussian, Inc. and that
 it will not use this program in any manner prohibited above.
 ---------------------------------------------------------------
  

 Cite this work as:
 Gaussian 16, Revision C.01,
 M. J. Frisch, G. W. Trucks, H. B. Schlegel, G. E. Scuseria, 
 M. A. Robb, J. R. Cheeseman, G. Scalmani, V. Barone, 
 G. A. Petersson, H. Nakatsuji, X. Li, M. Caricato, A. V. Marenich, 
 J. Bloino, B. G. Janesko, R. Gomperts, B. Mennucci, H. P. Hratchian, 
 J. V. Ortiz, A. F. Izmaylov, J. L. Sonnenberg, D. Williams-Young, 
 F. Ding, F. Lipparini, F. Egidi, J. Goings, B. Peng, A. Petrone, 
 T. Henderson, D. Ranasinghe, V. G. Zakrzewski, J. Gao, N. Rega, 
 G. Zheng, W. Liang, M. Hada, M. Ehara, K. Toyota, R. Fukuda, 
 J. Hasegawa, M. Ishida, T. Nakajima, Y. Honda, O. Kitao, H. Nakai, 
 T. Vreven, K. Throssell, J. A. Montgomery, Jr., J. E. Peralta, 
 F. Ogliaro, M. J. Bearpark, J. J. Heyd, E. N. Brothers, K. N. Kudin, 
 V. N. Staroverov, T. A. Keith, R. Kobayashi, J. Normand, 
 K. Raghavachari, A. P. Rendell, J. C. Burant, S. S. Iyengar, 
 J. Tomasi, M. Cossi, J. M. Millam, M. Klene, C. Adamo, R. Cammi, 
 J. W. Ochterski, R. L. Martin, K. Morokuma, O. Farkas, 
 J. B. Foresman, and D. J. Fox, Gaussian, Inc., Wallingford CT, 2019.
 
 ******************************************
 Gaussian 16:  ES64L-G16RevC.01  3-Jul-2019
                13-Aug-2022 
 ******************************************
 %mem=8gb
 %nproc=4
 Will use up to    4 processors via shared memory.
 %chk=conf-102.chk
 -------------------------------------------------------------------
 # B3LYP/6-31G* guess=read geom=check nosymm integral(ultrafinegrid)
 -------------------------------------------------------------------
 1/29=2,38=1,172=1/1;
 2/12=2,15=1,40=1/2;
 3/5=1,6=6,7=1,11=2,14=-4,25=1,30=1,74=-5,75=-5,116=-2/1,2,3;
 4/5=1/1;
 5/5=2,38=6/2;
 6/7=2,8=2,9=2,10=2,28=1/1;
 99/5=1,9=1/99;
 ------------------------------------------------------
 Candidate Structure: Conf:102 Charge calc in gas phase
 ------------------------------------------------------
 Structure from the checkpoint file:  "conf-102.chk"
 Charge =  1 Multiplicity = 1
 Redundant internal coordinates found in file.  (old form).
 N,0,-1.3140624688,-2.8461905718,2.3487186152
 H,0,-0.8165840425,-3.6223553662,2.780489449
 H,0,-1.946728188,-3.2298657345,1.6479756363
 H,0,-0.1427868089,-1.8694071439,1.5456810822
 C,0,-2.1146861985,-2.1272585293,3.3713179735
 H,0,-2.4470926028,-2.8207032596,4.1603115087
 C,0,-3.370610093,-1.5953215258,2.6533100373
 C,0,-1.2509846759,-1.0191700465,4.0457707357
 H,0,-0.9573339228,-0.3194945785,3.2522899251
 O,0,-3.4009635899,-1.4851398284,1.4238944434
 C,0,-2.0033890108,-0.2387913233,5.1354711791
 H,0,-2.3800808655,-0.9093113548,5.9208692248
 H,0,-1.3211124724,0.4654886988,5.6223737104
 H,0,-2.84327876,0.3432933331,4.7453871272
 C,0,0.0289616114,-1.6346937421,4.6373832702
 H,0,-0.2107836337,-2.3886627583,5.3993383819
 H,0,0.659317047,-2.0959489867,3.8723072671
 H,0,0.6300396001,-0.8580941501,5.1214140127
 N,0,-4.4351588883,-1.3100833178,3.4430907705
 H,0,-4.3228647303,-1.3497068116,4.4463408952
 C,0,-5.6765764714,-0.7211338761,2.9225290557
 H,0,-5.8195879935,-1.1721806173,1.9375062257
 C,0,-5.4525193426,0.7993406714,2.7265173507
 C,0,-6.8920254466,-1.0913978824,3.8055278955
 H,0,-6.9771654883,-2.185953742,3.7281042014
 O,0,-5.6483929137,1.6379106087,3.6066753528
 C,0,-8.1985528587,-0.4840142882,3.2485389939
 H,0,-8.1576107214,0.6070881257,3.35326988
 H,0,-9.0151716332,-0.8218882669,3.8990193399
 C,0,-6.7300258652,-0.7339168503,5.2941307978
 H,0,-6.5884733721,0.3404059841,5.4277152707
 H,0,-5.8875202499,-1.2559317174,5.7675614577
 H,0,-7.6257063631,-1.0419496705,5.8444406947
 C,0,-8.5333741401,-0.8592292582,1.7992498232
 H,0,-9.5304920383,-0.4943032077,1.5307010555
 H,0,-7.8289932632,-0.4233687361,1.0813784967
 H,0,-8.5307845044,-1.9470718995,1.6554072268
 N,0,-4.9621940868,1.1119238073,1.5016953555
 H,0,-4.7428330005,0.3764630855,0.8369917615
 C,0,-4.5208856484,2.4455366791,1.1436771622
 H,0,-5.3335576486,3.1557673587,1.3382160633
 C,0,-4.2174985843,2.4037481535,-0.3650403457
 C,0,-3.2740999732,2.8853324229,1.9833362494
 H,0,-2.3806215324,2.3873449162,1.5885546502
 H,0,-3.4478158878,2.499519636,2.9913489435
 O,0,-4.3896470134,1.3688555585,-1.0195346679
 C,0,-3.0610873055,4.3822646163,2.0744578992
 C,0,-1.973120281,5.0155228909,1.4544374443
 H,0,-1.2570966603,4.4252963159,0.8854444973
 C,0,-3.9663659852,5.1658573535,2.8089112031
 H,0,-4.800026638,4.6802393923,3.3116416161
 C,0,-1.7983847064,6.3991204832,1.5599179347
 H,0,-0.9473997127,6.8721765498,1.0772503266
 C,0,-3.7918494683,6.5447418525,2.9139533225
 H,0,-4.4988352956,7.1351103062,3.4903006999
 C,0,-2.707423085,7.1662908246,2.2880500085
 H,0,-2.5711845352,8.2407421183,2.3728275582
 N,0,-3.709764384,3.5338436775,-0.9137653405
 H,0,-3.4713589587,4.3081900598,-0.3023512963
 C,0,-3.1399718404,3.5503024565,-2.2702970113
 H,0,-3.8290274047,2.9902929704,-2.9078254264
 C,0,-1.7859575317,2.8033348628,-2.2080209407
 C,0,-2.9938896505,4.9934165281,-2.7583072633
 H,0,-2.2798328494,5.5045318814,-2.1010876225
 H,0,-3.9662673699,5.4887571014,-2.6349035171
 O,0,-0.715078362,3.3847965013,-2.004754828
 C,0,-2.524429583,5.1473486077,-4.2193651165
 H,0,-1.565837672,4.619236254,-4.3190997986
 C,0,-3.5177273382,4.5490377917,-5.2280092248
 H,0,-4.5030377682,5.0241605345,-5.1382741528
 H,0,-3.654262023,3.4695220766,-5.0957297829
 H,0,-3.1682071538,4.7072927749,-6.2545779501
 C,0,-2.2722133631,6.6315180572,-4.5255222314
 H,0,-3.1966320272,7.2155794307,-4.4314792348
 H,0,-1.9003219657,6.7641109455,-5.5478264795
 H,0,-1.5330391994,7.0614261455,-3.8397259273
 N,0,-1.8841044959,1.4518491764,-2.3250512657
 H,0,-2.8255419426,1.0679606313,-2.2583746317
 C,0,-0.7774458839,0.591375123,-1.8982331395
 H,0,-0.276588463,1.0929359228,-1.0637138305
 C,0,0.2676458825,0.4471867336,-3.0206294297
 C,0,-1.3142471817,-0.769908763,-1.4352131216
 H,0,-1.8626423607,-1.2381814654,-2.2596351597
 H,0,-2.0246104263,-0.6002280559,-0.6190449501
 O,0,0.2815767839,-0.5130232498,-3.8000783529
 C,0,-0.2206430752,-1.764430993,-0.9757978436
 H,0,-0.7104924405,-2.6225545479,-0.5064141049
 H,0,0.3296387035,-2.1181114425,-1.8501954091
 C,0,0.797632702,-1.1284312741,-0.0362306669
 O,0,1.7173790382,-0.4492129064,-0.4765022304
 O,0,0.6439270785,-1.2856404793,1.2694105548
 N,0,1.1959044878,1.4322664965,-3.0440369362
 H,0,0.9937746967,2.2692187466,-2.4988760025
 C,0,2.4385626265,1.2989176077,-3.784914276
 H,0,2.6266289045,0.2200364775,-3.8326275628
 C,0,3.6016836703,1.9013116632,-2.9512049071
 C,0,2.408665918,1.8701081881,-5.2275075166
 H,0,1.45017677,2.374031272,-5.3911731133
 H,0,3.2057516607,2.6068858003,-5.3377338105
 O,0,4.3757077838,2.7374320212,-3.4327189266
 C,0,2.5887292312,0.8083254562,-6.3052213413
 N,0,1.7464894496,-0.2311980428,-6.269781516
 H,0,1.8561345372,-0.9571903008,-6.9666541038
 H,0,1.1046112854,-0.3813152995,-5.4820483773
 O,0,3.477445648,0.8997599054,-7.1825675425
 N,0,3.7032269614,1.4089427466,-1.7007962852
 H,0,3.0279713821,0.7195136079,-1.3663878423
 C,0,4.7050699536,1.8979792841,-0.7400074369
 H,0,4.7541178195,2.9870964455,-0.8480670117
 C,0,6.0997882377,1.3085927864,-1.0836149353
 C,0,4.2838006609,1.5378115246,0.6962830078
 H,0,3.2125429646,1.7459500605,0.7918680972
 H,0,4.4134356516,0.4600644445,0.8318722811
 O,0,6.538865723,0.288428934,-0.570317917
 C,0,5.0555167682,2.309043414,1.7483348057
 C,0,6.2528203462,1.8166633876,2.2906768582
 H,0,6.635376648,0.8602372547,1.94789608
 C,0,4.5909801275,3.5487365485,2.2038347709
 H,0,3.6588875209,3.9514663128,1.8118620005
 C,0,6.9616208818,2.5340349827,3.2493279031
 H,0,7.8846324842,2.1486597315,3.6710250257
 C,0,5.2906564086,4.2805967801,3.1630984831
 H,0,4.9066351975,5.2395257171,3.5071466294
 O,0,7.2183999782,4.4340212623,4.6326787552
 H,0,6.7689042778,5.2616303165,4.8642551637
 C,0,6.4824869473,3.7725455501,3.689576569
 N,0,6.7773758284,2.0384928209,-2.0207524588
 H,0,6.2367903482,2.7318880283,-2.5317556134
 C,0,8.0849306709,1.6575486193,-2.5241772495
 H,0,8.3694548001,0.7594266527,-1.9631532154
 C,0,9.1128243058,2.7527527125,-2.205403283
 C,0,8.0697622889,1.382280007,-4.0356584771
 H,0,7.6383654839,2.2653041681,-4.5257421123
 H,0,9.1098748229,1.3062638036,-4.3769976994
 O,0,9.7741124638,3.3412041856,-3.0350725888
 C,0,7.2964639133,0.1222757925,-4.4320145168
 H,0,7.795752054,-0.7649943982,-4.0228548679
 H,0,6.2899983662,0.1428600838,-3.9981254272
 C,0,7.1799193788,-0.0648958568,-5.9527889725
 H,0,8.1590966153,0.0029654747,-6.4400538386
 H,0,6.7916037475,-1.0626426462,-6.1794691487
 N,0,6.2643912791,0.8882570307,-6.5925381307
 H,0,5.2653587827,0.6639064891,-6.6037634061
 N,0,7.8372923771,2.4559336719,-7.3339543276
 H,0,8.0470957809,3.278905102,-7.8794164021
 H,0,8.5188352533,2.1894479911,-6.6387706831
 N,0,5.5973675432,2.6173341451,-7.9482060525
 H,0,5.7163265368,3.5737334672,-8.2477021825
 H,0,4.6471404123,2.2446969534,-7.8527125846
 C,0,6.5725028177,1.9917817802,-7.2699499709
 O,0,9.1949907515,2.9857893406,-0.8847318345
 H,0,9.8579187712,3.6912317487,-0.758676996
 Recover connectivity data from disk.
                           ----------------------------
                           !    Current Parameters    !
                           ! (Angstroms and Degrees)  !
 --------------------------                            --------------------------
 ! Name  Definition              Value                                          !
 --------------------------------------------------------------------------------
 ! R1    R(1,2)                  1.018                                          !
 ! R2    R(1,3)                  1.0191                                         !
 ! R3    R(1,4)                  1.7236                                         !
 ! R4    R(1,5)                  1.4844                                         !
 ! R5    R(5,6)                  1.1018                                         !
 ! R6    R(5,7)                  1.5414                                         !
 ! R7    R(5,8)                  1.5584                                         !
 ! R8    R(7,10)                 1.2347                                         !
 ! R9    R(7,19)                 1.3559                                         !
 ! R10   R(8,9)                  1.0979                                         !
 ! R11   R(8,11)                 1.5371                                         !
 ! R12   R(8,15)                 1.5386                                         !
 ! R13   R(11,12)                1.0992                                         !
 ! R14   R(11,13)                1.0948                                         !
 ! R15   R(11,14)                1.0938                                         !
 ! R16   R(15,16)                1.0984                                         !
 ! R17   R(15,17)                1.0934                                         !
 ! R18   R(15,18)                1.0948                                         !
 ! R19   R(19,20)                1.0103                                         !
 ! R20   R(19,21)                1.4693                                         !
 ! R21   R(21,22)                1.0928                                         !
 ! R22   R(21,23)                1.5493                                         !
 ! R23   R(21,24)                1.5473                                         !
 ! R24   R(23,26)                1.2314                                         !
 ! R25   R(23,38)                1.3558                                         !
 ! R26   R(24,25)                1.1006                                         !
 ! R27   R(24,27)                1.5447                                         !
 ! R28   R(24,30)                1.5395                                         !
 ! R29   R(27,28)                1.0969                                         !
 ! R30   R(27,29)                1.0973                                         !
 ! R31   R(27,34)                1.5341                                         !
 ! R32   R(30,31)                1.0918                                         !
 ! R33   R(30,32)                1.0984                                         !
 ! R34   R(30,33)                1.0954                                         !
 ! R35   R(34,35)                1.0952                                         !
 ! R36   R(34,36)                1.0961                                         !
 ! R37   R(34,37)                1.0973                                         !
 ! R38   R(38,39)                1.0153                                         !
 ! R39   R(38,40)                1.4496                                         !
 ! R40   R(40,41)                1.0967                                         !
 ! R41   R(40,42)                1.5395                                         !
 ! R42   R(40,43)                1.5662                                         !
 ! R43   R(42,46)                1.2365                                         !
 ! R44   R(42,58)                1.355                                          !
 ! R45   R(43,44)                1.0964                                         !
 ! R46   R(43,45)                1.0932                                         !
 ! R47   R(43,47)                1.5148                                         !
 ! R48   R(47,48)                1.4033                                         !
 ! R49   R(47,50)                1.4046                                         !
 ! R50   R(48,49)                1.0885                                         !
 ! R51   R(48,52)                1.3986                                         !
 ! R52   R(50,51)                1.0879                                         !
 ! R53   R(50,54)                1.3938                                         !
 ! R54   R(52,53)                1.0867                                         !
 ! R55   R(52,56)                1.3947                                         !
 ! R56   R(54,55)                1.0865                                         !
 ! R57   R(54,56)                1.3979                                         !
 ! R58   R(56,57)                1.0864                                         !
 ! R59   R(58,59)                1.015                                          !
 ! R60   R(58,60)                1.4714                                         !
 ! R61   R(60,61)                1.0931                                         !
 ! R62   R(60,62)                1.5476                                         !
 ! R63   R(60,63)                1.5304                                         !
 ! R64   R(62,66)                1.2354                                         !
 ! R65   R(62,77)                1.3601                                         !
 ! R66   R(63,64)                1.0968                                         !
 ! R67   R(63,65)                1.0982                                         !
 ! R68   R(63,67)                1.5423                                         !
 ! R69   R(67,68)                1.099                                          !
 ! R70   R(67,69)                1.5369                                         !
 ! R71   R(67,73)                1.5363                                         !
 ! R72   R(69,70)                1.0976                                         !
 ! R73   R(69,71)                1.0961                                         !
 ! R74   R(69,72)                1.0959                                         !
 ! R75   R(73,74)                1.0975                                         !
 ! R76   R(73,75)                1.0959                                         !
 ! R77   R(73,76)                1.0961                                         !
 ! R78   R(77,78)                1.0189                                         !
 ! R79   R(77,79)                1.4654                                         !
 ! R80   R(79,80)                1.0949                                         !
 ! R81   R(79,81)                1.5404                                         !
 ! R82   R(79,82)                1.5348                                         !
 ! R83   R(81,85)                1.2368                                         !
 ! R84   R(81,92)                1.3537                                         !
 ! R85   R(82,83)                1.0953                                         !
 ! R86   R(82,84)                1.0952                                         !
 ! R87   R(82,86)                1.5479                                         !
 ! R88   R(86,87)                1.0939                                         !
 ! R89   R(86,88)                1.092                                          !
 ! R90   R(86,89)                1.5245                                         !
 ! R91   R(89,90)                1.2252                                         !
 ! R92   R(89,91)                1.324                                          !
 ! R93   R(92,93)                1.0191                                         !
 ! R94   R(92,94)                1.4529                                         !
 ! R95   R(94,95)                1.0962                                         !
 ! R96   R(94,96)                1.5527                                         !
 ! R97   R(94,97)                1.5518                                         !
 ! R98   R(96,100)               1.237                                          !
 ! R99   R(96,106)               1.3477                                         !
 ! R100  R(97,98)                1.0952                                         !
 ! R101  R(97,99)                1.091                                          !
 ! R102  R(97,101)               1.5236                                         !
 ! R103  R(101,102)              1.3384                                         !
 ! R104  R(101,105)              1.2522                                         !
 ! R105  R(102,103)              1.0123                                         !
 ! R106  R(102,104)              1.0272                                         !
 ! R107  R(106,107)              1.0213                                         !
 ! R108  R(106,108)              1.4717                                         !
 ! R109  R(108,109)              1.0956                                         !
 ! R110  R(108,110)              1.5526                                         !
 ! R111  R(108,111)              1.5395                                         !
 ! R112  R(110,114)              1.2235                                         !
 ! R113  R(110,127)              1.3675                                         !
 ! R114  R(111,112)              1.0955                                         !
 ! R115  R(111,113)              1.094                                          !
 ! R116  R(111,115)              1.5156                                         !
 ! R117  R(115,116)              1.4036                                         !
 ! R118  R(115,118)              1.4                                            !
 ! R119  R(116,117)              1.0856                                         !
 ! R120  R(116,120)              1.3914                                         !
 ! R121  R(118,119)              1.0884                                         !
 ! R122  R(118,122)              1.3948                                         !
 ! R123  R(120,121)              1.0855                                         !
 ! R124  R(120,126)              1.399                                          !
 ! R125  R(122,123)              1.0888                                         !
 ! R126  R(122,126)              1.3985                                         !
 ! R127  R(124,125)              0.9699                                         !
 ! R128  R(124,126)              1.367                                          !
 ! R129  R(127,128)              1.0169                                         !
 ! R130  R(127,129)              1.452                                          !
 ! R131  R(129,130)              1.0965                                         !
 ! R132  R(129,131)              1.5355                                         !
 ! R133  R(129,132)              1.5364                                         !
 ! R134  R(131,135)              1.2132                                         !
 ! R135  R(131,151)              1.3436                                         !
 ! R136  R(132,133)              1.0982                                         !
 ! R137  R(132,134)              1.0973                                         !
 ! R138  R(132,136)              1.5306                                         !
 ! R139  R(136,137)              1.0972                                         !
 ! R140  R(136,138)              1.0962                                         !
 ! R141  R(136,139)              1.5367                                         !
 ! R142  R(139,140)              1.0958                                         !
 ! R143  R(139,141)              1.0944                                         !
 ! R144  R(139,142)              1.4683                                         !
 ! R145  R(142,143)              1.024                                          !
 ! R146  R(142,150)              1.331                                          !
 ! R147  R(144,145)              1.0094                                         !
 ! R148  R(144,146)              1.0094                                         !
 ! R149  R(144,150)              1.3488                                         !
 ! R150  R(147,148)              1.0092                                         !
 ! R151  R(147,149)              1.0251                                         !
 ! R152  R(147,150)              1.3425                                         !
 ! R153  R(151,152)              0.9762                                         !
 ! A1    A(2,1,3)              107.9373                                         !
 ! A2    A(2,1,4)              107.3136                                         !
 ! A3    A(2,1,5)              109.9162                                         !
 ! A4    A(3,1,4)              108.3531                                         !
 ! A5    A(3,1,5)              108.7351                                         !
 ! A6    A(4,1,5)              114.3931                                         !
 ! A7    A(1,5,6)              110.5619                                         !
 ! A8    A(1,5,7)              106.6009                                         !
 ! A9    A(1,5,8)              110.095                                          !
 ! A10   A(6,5,7)              107.756                                          !
 ! A11   A(6,5,8)              107.7465                                         !
 ! A12   A(7,5,8)              114.0662                                         !
 ! A13   A(5,7,10)             120.9741                                         !
 ! A14   A(5,7,19)             116.1679                                         !
 ! A15   A(10,7,19)            122.8142                                         !
 ! A16   A(5,8,9)              106.773                                          !
 ! A17   A(5,8,11)             113.3608                                         !
 ! A18   A(5,8,15)             110.0605                                         !
 ! A19   A(9,8,11)             108.6477                                         !
 ! A20   A(9,8,15)             108.0806                                         !
 ! A21   A(11,8,15)            109.7391                                         !
 ! A22   A(8,11,12)            111.3823                                         !
 ! A23   A(8,11,13)            109.6848                                         !
 ! A24   A(8,11,14)            113.1554                                         !
 ! A25   A(12,11,13)           106.7499                                         !
 ! A26   A(12,11,14)           108.4386                                         !
 ! A27   A(13,11,14)           107.1455                                         !
 ! A28   A(8,15,16)            111.0863                                         !
 ! A29   A(8,15,17)            112.2921                                         !
 ! A30   A(8,15,18)            110.0567                                         !
 ! A31   A(16,15,17)           108.7634                                         !
 ! A32   A(16,15,18)           107.46                                           !
 ! A33   A(17,15,18)           106.9825                                         !
 ! A34   A(7,19,20)            118.8757                                         !
 ! A35   A(7,19,21)            122.7727                                         !
 ! A36   A(20,19,21)           117.4802                                         !
 ! A37   A(19,21,22)           105.3358                                         !
 ! A38   A(19,21,23)           108.421                                          !
 ! A39   A(19,21,24)           111.4437                                         !
 ! A40   A(22,21,23)           108.0562                                         !
 ! A41   A(22,21,24)           108.2298                                         !
 ! A42   A(23,21,24)           114.8748                                         !
 ! A43   A(21,23,26)           123.7031                                         !
 ! A44   A(21,23,38)           113.131                                          !
 ! A45   A(26,23,38)           123.1091                                         !
 ! A46   A(21,24,25)           104.9876                                         !
 ! A47   A(21,24,27)           111.3795                                         !
 ! A48   A(21,24,30)           114.4304                                         !
 ! A49   A(25,24,27)           107.4725                                         !
 ! A50   A(25,24,30)           107.8846                                         !
 ! A51   A(27,24,30)           110.2648                                         !
 ! A52   A(24,27,28)           108.9734                                         !
 ! A53   A(24,27,29)           107.1348                                         !
 ! A54   A(24,27,34)           115.4093                                         !
 ! A55   A(28,27,29)           106.1086                                         !
 ! A56   A(28,27,34)           109.9776                                         !
 ! A57   A(29,27,34)           108.8015                                         !
 ! A58   A(24,30,31)           111.1273                                         !
 ! A59   A(24,30,32)           112.7765                                         !
 ! A60   A(24,30,33)           109.5379                                         !
 ! A61   A(31,30,32)           108.3887                                         !
 ! A62   A(31,30,33)           108.7377                                         !
 ! A63   A(32,30,33)           106.0811                                         !
 ! A64   A(27,34,35)           110.4176                                         !
 ! A65   A(27,34,36)           112.4092                                         !
 ! A66   A(27,34,37)           111.4572                                         !
 ! A67   A(35,34,36)           106.976                                          !
 ! A68   A(35,34,37)           107.4772                                         !
 ! A69   A(36,34,37)           107.869                                          !
 ! A70   A(23,38,39)           120.1688                                         !
 ! A71   A(23,38,40)           123.0444                                         !
 ! A72   A(39,38,40)           116.0359                                         !
 ! A73   A(38,40,41)           109.0496                                         !
 ! A74   A(38,40,42)           106.0846                                         !
 ! A75   A(38,40,43)           111.609                                          !
 ! A76   A(41,40,42)           109.722                                          !
 ! A77   A(41,40,43)           108.2372                                         !
 ! A78   A(42,40,43)           112.0951                                         !
 ! A79   A(40,42,46)           120.9309                                         !
 ! A80   A(40,42,58)           116.6204                                         !
 ! A81   A(46,42,58)           122.401                                          !
 ! A82   A(40,43,44)           109.1559                                         !
 ! A83   A(40,43,45)           105.589                                          !
 ! A84   A(40,43,47)           114.9421                                         !
 ! A85   A(44,43,45)           107.5297                                         !
 ! A86   A(44,43,47)           110.8494                                         !
 ! A87   A(45,43,47)           108.3995                                         !
 ! A88   A(43,47,48)           121.8987                                         !
 ! A89   A(43,47,50)           119.4803                                         !
 ! A90   A(48,47,50)           118.6183                                         !
 ! A91   A(47,48,49)           119.7542                                         !
 ! A92   A(47,48,52)           120.6632                                         !
 ! A93   A(49,48,52)           119.5825                                         !
 ! A94   A(47,50,51)           119.1098                                         !
 ! A95   A(47,50,54)           120.703                                          !
 ! A96   A(51,50,54)           120.179                                          !
 ! A97   A(48,52,53)           119.6692                                         !
 ! A98   A(48,52,56)           120.1409                                         !
 ! A99   A(53,52,56)           120.1887                                         !
 ! A100  A(50,54,55)           119.7375                                         !
 ! A101  A(50,54,56)           120.2153                                         !
 ! A102  A(55,54,56)           120.0459                                         !
 ! A103  A(52,56,54)           119.6582                                         !
 ! A104  A(52,56,57)           120.2017                                         !
 ! A105  A(54,56,57)           120.1394                                         !
 ! A106  A(42,58,59)           118.7074                                         !
 ! A107  A(42,58,60)           121.8552                                         !
 ! A108  A(59,58,60)           117.119                                          !
 ! A109  A(58,60,61)           106.7297                                         !
 ! A110  A(58,60,62)           107.2351                                         !
 ! A111  A(58,60,63)           109.9678                                         !
 ! A112  A(61,60,62)           109.1296                                         !
 ! A113  A(61,60,63)           110.934                                          !
 ! A114  A(62,60,63)           112.6093                                         !
 ! A115  A(60,62,66)           122.5364                                         !
 ! A116  A(60,62,77)           114.3934                                         !
 ! A117  A(66,62,77)           122.9838                                         !
 ! A118  A(60,63,64)           108.0886                                         !
 ! A119  A(60,63,65)           107.7562                                         !
 ! A120  A(60,63,67)           115.1663                                         !
 ! A121  A(64,63,65)           107.3918                                         !
 ! A122  A(64,63,67)           108.8417                                         !
 ! A123  A(65,63,67)           109.3254                                         !
 ! A124  A(63,67,68)           107.6686                                         !
 ! A125  A(63,67,69)           112.7141                                         !
 ! A126  A(63,67,73)           109.5834                                         !
 ! A127  A(68,67,69)           108.4883                                         !
 ! A128  A(68,67,73)           107.6358                                         !
 ! A129  A(69,67,73)           110.5742                                         !
 ! A130  A(67,69,70)           110.9792                                         !
 ! A131  A(67,69,71)           112.6256                                         !
 ! A132  A(67,69,72)           110.6354                                         !
 ! A133  A(70,69,71)           107.7366                                         !
 ! A134  A(70,69,72)           107.4807                                         !
 ! A135  A(71,69,72)           107.1565                                         !
 ! A136  A(67,73,74)           111.0244                                         !
 ! A137  A(67,73,75)           111.0084                                         !
 ! A138  A(67,73,76)           111.4033                                         !
 ! A139  A(74,73,75)           107.5403                                         !
 ! A140  A(74,73,76)           107.7981                                         !
 ! A141  A(75,73,76)           107.8992                                         !
 ! A142  A(62,77,78)           115.8131                                         !
 ! A143  A(62,77,79)           120.2607                                         !
 ! A144  A(78,77,79)           117.2261                                         !
 ! A145  A(77,79,80)           107.366                                          !
 ! A146  A(77,79,81)           110.8005                                         !
 ! A147  A(77,79,82)           110.1546                                         !
 ! A148  A(80,79,81)           106.7312                                         !
 ! A149  A(80,79,82)           109.6545                                         !
 ! A150  A(81,79,82)           111.968                                          !
 ! A151  A(79,81,85)           122.6501                                         !
 ! A152  A(79,81,92)           114.1865                                         !
 ! A153  A(85,81,92)           123.1143                                         !
 ! A154  A(79,82,83)           109.101                                          !
 ! A155  A(79,82,84)           108.3154                                         !
 ! A156  A(79,82,86)           114.3484                                         !
 ! A157  A(83,82,84)           107.6019                                         !
 ! A158  A(83,82,86)           107.6041                                         !
 ! A159  A(84,82,86)           109.6696                                         !
 ! A160  A(82,86,87)           108.3598                                         !
 ! A161  A(82,86,88)           109.0537                                         !
 ! A162  A(82,86,89)           112.7537                                         !
 ! A163  A(87,86,88)           108.3707                                         !
 ! A164  A(87,86,89)           111.2173                                         !
 ! A165  A(88,86,89)           106.9792                                         !
 ! A166  A(86,89,90)           120.745                                          !
 ! A167  A(86,89,91)           118.7293                                         !
 ! A168  A(90,89,91)           120.4861                                         !
 ! A169  A(81,92,93)           116.8956                                         !
 ! A170  A(81,92,94)           121.905                                          !
 ! A171  A(93,92,94)           121.1855                                         !
 ! A172  A(92,94,95)           105.0266                                         !
 ! A173  A(92,94,96)           109.3474                                         !
 ! A174  A(92,94,97)           115.0731                                         !
 ! A175  A(95,94,96)           106.0632                                         !
 ! A176  A(95,94,97)           108.9718                                         !
 ! A177  A(96,94,97)           111.7636                                         !
 ! A178  A(94,96,100)          121.4653                                         !
 ! A179  A(94,96,106)          114.3866                                         !
 ! A180  A(100,96,106)         124.1236                                         !
 ! A181  A(94,97,98)           108.9741                                         !
 ! A182  A(94,97,99)           109.1719                                         !
 ! A183  A(94,97,101)          113.5015                                         !
 ! A184  A(98,97,99)           108.2746                                         !
 ! A185  A(98,97,101)          108.5655                                         !
 ! A186  A(99,97,101)          108.229                                          !
 ! A187  A(97,101,102)         116.6274                                         !
 ! A188  A(97,101,105)         121.9119                                         !
 ! A189  A(102,101,105)        121.4607                                         !
 ! A190  A(101,102,103)        118.0765                                         !
 ! A191  A(101,102,104)        121.808                                          !
 ! A192  A(103,102,104)        119.3944                                         !
 ! A193  A(96,106,107)         120.0393                                         !
 ! A194  A(96,106,108)         122.3847                                         !
 ! A195  A(107,106,108)        117.427                                          !
 ! A196  A(106,108,109)        107.2426                                         !
 ! A197  A(106,108,110)        109.9304                                         !
 ! A198  A(106,108,111)        110.1848                                         !
 ! A199  A(109,108,110)        108.3805                                         !
 ! A200  A(109,108,111)        109.6846                                         !
 ! A201  A(110,108,111)        111.3131                                         !
 ! A202  A(108,110,114)        123.0953                                         !
 ! A203  A(108,110,127)        113.2123                                         !
 ! A204  A(114,110,127)        123.6908                                         !
 ! A205  A(108,111,112)        107.7307                                         !
 ! A206  A(108,111,113)        108.2818                                         !
 ! A207  A(108,111,115)        112.9057                                         !
 ! A208  A(112,111,113)        106.9929                                         !
 ! A209  A(112,111,115)        109.9176                                         !
 ! A210  A(113,111,115)        110.7899                                         !
 ! A211  A(111,115,116)        121.6033                                         !
 ! A212  A(111,115,118)        120.4949                                         !
 ! A213  A(116,115,118)        117.9008                                         !
 ! A214  A(115,116,117)        119.1852                                         !
 ! A215  A(115,116,120)        121.325                                          !
 ! A216  A(117,116,120)        119.4881                                         !
 ! A217  A(115,118,119)        119.6447                                         !
 ! A218  A(115,118,122)        121.4624                                         !
 ! A219  A(119,118,122)        118.8902                                         !
 ! A220  A(116,120,121)        121.1833                                         !
 ! A221  A(116,120,126)        119.9181                                         !
 ! A222  A(121,120,126)        118.898                                          !
 ! A223  A(118,122,123)        120.1687                                         !
 ! A224  A(118,122,126)        119.7233                                         !
 ! A225  A(123,122,126)        120.106                                          !
 ! A226  A(125,124,126)        109.1571                                         !
 ! A227  A(120,126,122)        119.6701                                         !
 ! A228  A(120,126,124)        117.4591                                         !
 ! A229  A(122,126,124)        122.8706                                         !
 ! A230  A(110,127,128)        116.4162                                         !
 ! A231  A(110,127,129)        122.9404                                         !
 ! A232  A(128,127,129)        118.9061                                         !
 ! A233  A(127,129,130)        105.7339                                         !
 ! A234  A(127,129,131)        110.1043                                         !
 ! A235  A(127,129,132)        112.2843                                         !
 ! A236  A(130,129,131)        107.7158                                         !
 ! A237  A(130,129,132)        111.0484                                         !
 ! A238  A(131,129,132)        109.794                                          !
 ! A239  A(129,131,135)        124.6714                                         !
 ! A240  A(129,131,151)        111.6365                                         !
 ! A241  A(135,131,151)        123.692                                          !
 ! A242  A(129,132,133)        107.388                                          !
 ! A243  A(129,132,134)        108.0032                                         !
 ! A244  A(129,132,136)        114.031                                          !
 ! A245  A(133,132,134)        106.8118                                         !
 ! A246  A(133,132,136)        110.3586                                         !
 ! A247  A(134,132,136)        109.9566                                         !
 ! A248  A(132,136,137)        109.8292                                         !
 ! A249  A(132,136,138)        110.2377                                         !
 ! A250  A(132,136,139)        113.2576                                         !
 ! A251  A(137,136,138)        106.5813                                         !
 ! A252  A(137,136,139)        107.7615                                         !
 ! A253  A(138,136,139)        108.9274                                         !
 ! A254  A(136,139,140)        111.3919                                         !
 ! A255  A(136,139,141)        110.0565                                         !
 ! A256  A(136,139,142)        113.5415                                         !
 ! A257  A(140,139,141)        106.3446                                         !
 ! A258  A(140,139,142)        108.8573                                         !
 ! A259  A(141,139,142)        106.2802                                         !
 ! A260  A(139,142,143)        118.0916                                         !
 ! A261  A(139,142,150)        127.9962                                         !
 ! A262  A(143,142,150)        113.6983                                         !
 ! A263  A(145,144,146)        116.5581                                         !
 ! A264  A(145,144,150)        120.0749                                         !
 ! A265  A(146,144,150)        120.6398                                         !
 ! A266  A(148,147,149)        118.775                                          !
 ! A267  A(148,147,150)        120.3904                                         !
 ! A268  A(149,147,150)        117.184                                          !
 ! A269  A(142,150,144)        121.7715                                         !
 ! A270  A(142,150,147)        118.3801                                         !
 ! A271  A(144,150,147)        119.7891                                         !
 ! A272  A(131,151,152)        107.0847                                         !
 ! D1    D(2,1,5,6)            -30.8418                                         !
 ! D2    D(2,1,5,7)           -147.6955                                         !
 ! D3    D(2,1,5,8)             88.0976                                         !
 ! D4    D(3,1,5,6)             87.1133                                         !
 ! D5    D(3,1,5,7)            -29.7404                                         !
 ! D6    D(3,1,5,8)           -153.9473                                         !
 ! D7    D(4,1,5,6)           -151.6295                                         !
 ! D8    D(4,1,5,7)             91.5168                                         !
 ! D9    D(4,1,5,8)            -32.6901                                         !
 ! D10   D(1,5,7,10)           -19.0889                                         !
 ! D11   D(1,5,7,19)           158.5668                                         !
 ! D12   D(6,5,7,10)          -137.7935                                         !
 ! D13   D(6,5,7,19)            39.8622                                         !
 ! D14   D(8,5,7,10)           102.6333                                         !
 ! D15   D(8,5,7,19)           -79.711                                          !
 ! D16   D(1,5,8,9)             61.2399                                         !
 ! D17   D(1,5,8,11)          -179.1589                                         !
 ! D18   D(1,5,8,15)           -55.8342                                         !
 ! D19   D(6,5,8,9)           -178.1126                                         !
 ! D20   D(6,5,8,11)           -58.5114                                         !
 ! D21   D(6,5,8,15)            64.8133                                         !
 ! D22   D(7,5,8,9)            -58.5341                                         !
 ! D23   D(7,5,8,11)            61.0672                                         !
 ! D24   D(7,5,8,15)          -175.6082                                         !
 ! D25   D(5,7,19,20)            7.2459                                         !
 ! D26   D(5,7,19,21)          176.282                                          !
 ! D27   D(10,7,19,20)        -175.1457                                         !
 ! D28   D(10,7,19,21)          -6.1096                                         !
 ! D29   D(5,8,11,12)           57.5253                                         !
 ! D30   D(5,8,11,13)          175.4807                                         !
 ! D31   D(5,8,11,14)          -64.9463                                         !
 ! D32   D(9,8,11,12)          176.0492                                         !
 ! D33   D(9,8,11,13)          -65.9954                                         !
 ! D34   D(9,8,11,14)           53.5776                                         !
 ! D35   D(15,8,11,12)         -65.9757                                         !
 ! D36   D(15,8,11,13)          51.9797                                         !
 ! D37   D(15,8,11,14)         171.5527                                         !
 ! D38   D(5,8,15,16)          -60.4517                                         !
 ! D39   D(5,8,15,17)           61.5993                                         !
 ! D40   D(5,8,15,18)         -179.3405                                         !
 ! D41   D(9,8,15,16)         -176.7085                                         !
 ! D42   D(9,8,15,17)          -54.6575                                         !
 ! D43   D(9,8,15,18)           64.4028                                         !
 ! D44   D(11,8,15,16)          64.9646                                         !
 ! D45   D(11,8,15,17)        -172.9844                                         !
 ! D46   D(11,8,15,18)         -53.9242                                         !
 ! D47   D(7,19,21,22)          36.4452                                         !
 ! D48   D(7,19,21,23)         -79.028                                          !
 ! D49   D(7,19,21,24)         153.5886                                         !
 ! D50   D(20,19,21,22)       -154.3748                                         !
 ! D51   D(20,19,21,23)         90.1519                                         !
 ! D52   D(20,19,21,24)        -37.2315                                         !
 ! D53   D(19,21,23,26)        -88.4597                                         !
 ! D54   D(19,21,23,38)         88.869                                          !
 ! D55   D(22,21,23,26)        157.8509                                         !
 ! D56   D(22,21,23,38)        -24.8203                                         !
 ! D57   D(24,21,23,26)         36.9316                                         !
 ! D58   D(24,21,23,38)       -145.7396                                         !
 ! D59   D(19,21,24,25)        -63.3783                                         !
 ! D60   D(19,21,24,27)       -179.3928                                         !
 ! D61   D(19,21,24,30)         54.7075                                         !
 ! D62   D(22,21,24,25)         51.9956                                         !
 ! D63   D(22,21,24,27)        -64.0189                                         !
 ! D64   D(22,21,24,30)        170.0813                                         !
 ! D65   D(23,21,24,25)        172.8197                                         !
 ! D66   D(23,21,24,27)         56.8053                                         !
 ! D67   D(23,21,24,30)        -69.0945                                         !
 ! D68   D(21,23,38,39)         -2.6102                                         !
 ! D69   D(21,23,38,40)       -172.2842                                         !
 ! D70   D(26,23,38,39)        174.7367                                         !
 ! D71   D(26,23,38,40)          5.0628                                         !
 ! D72   D(21,24,27,28)        -67.8935                                         !
 ! D73   D(21,24,27,29)        177.7115                                         !
 ! D74   D(21,24,27,34)         56.3904                                         !
 ! D75   D(25,24,27,28)        177.6262                                         !
 ! D76   D(25,24,27,29)         63.2311                                         !
 ! D77   D(25,24,27,34)        -58.09                                           !
 ! D78   D(30,24,27,28)         60.2767                                         !
 ! D79   D(30,24,27,29)        -54.1183                                         !
 ! D80   D(30,24,27,34)       -175.4395                                         !
 ! D81   D(21,24,30,31)         60.6267                                         !
 ! D82   D(21,24,30,32)        -61.3142                                         !
 ! D83   D(21,24,30,33)       -179.2044                                         !
 ! D84   D(25,24,30,31)        177.0534                                         !
 ! D85   D(25,24,30,32)         55.1124                                         !
 ! D86   D(25,24,30,33)        -62.7777                                         !
 ! D87   D(27,24,30,31)        -65.8525                                         !
 ! D88   D(27,24,30,32)        172.2066                                         !
 ! D89   D(27,24,30,33)         54.3164                                         !
 ! D90   D(24,27,34,35)        172.7591                                         !
 ! D91   D(24,27,34,36)        -67.8682                                         !
 ! D92   D(24,27,34,37)         53.3768                                         !
 ! D93   D(28,27,34,35)        -63.4832                                         !
 ! D94   D(28,27,34,36)         55.8896                                         !
 ! D95   D(28,27,34,37)        177.1346                                         !
 ! D96   D(29,27,34,35)         52.3423                                         !
 ! D97   D(29,27,34,36)        171.715                                          !
 ! D98   D(29,27,34,37)        -67.04                                           !
 ! D99   D(23,38,40,41)        -54.7851                                         !
 ! D100  D(23,38,40,42)       -172.8919                                         !
 ! D101  D(23,38,40,43)         64.7453                                         !
 ! D102  D(39,38,40,41)        135.1465                                         !
 ! D103  D(39,38,40,42)         17.0397                                         !
 ! D104  D(39,38,40,43)       -105.3231                                         !
 ! D105  D(38,40,42,46)          1.2393                                         !
 ! D106  D(38,40,42,58)       -176.3057                                         !
 ! D107  D(41,40,42,46)       -116.4203                                         !
 ! D108  D(41,40,42,58)         66.0347                                         !
 ! D109  D(43,40,42,46)        123.2926                                         !
 ! D110  D(43,40,42,58)        -54.2524                                         !
 ! D111  D(38,40,43,44)         76.724                                          !
 ! D112  D(38,40,43,45)        -38.6135                                         !
 ! D113  D(38,40,43,47)       -158.0303                                         !
 ! D114  D(41,40,43,44)       -163.2665                                         !
 ! D115  D(41,40,43,45)         81.396                                          !
 ! D116  D(41,40,43,47)        -38.0207                                         !
 ! D117  D(42,40,43,44)        -42.1198                                         !
 ! D118  D(42,40,43,45)       -157.4573                                         !
 ! D119  D(42,40,43,47)         83.1259                                         !
 ! D120  D(40,42,58,59)          5.8871                                         !
 ! D121  D(40,42,58,60)        168.0948                                         !
 ! D122  D(46,42,58,59)       -171.6188                                         !
 ! D123  D(46,42,58,60)         -9.411                                          !
 ! D124  D(40,43,47,48)       -111.6663                                         !
 ! D125  D(40,43,47,50)         68.9423                                         !
 ! D126  D(44,43,47,48)         12.6925                                         !
 ! D127  D(44,43,47,50)       -166.6988                                         !
 ! D128  D(45,43,47,48)        130.4906                                         !
 ! D129  D(45,43,47,50)        -48.9007                                         !
 ! D130  D(43,47,48,49)          0.2544                                         !
 ! D131  D(43,47,48,52)       -179.7383                                         !
 ! D132  D(50,47,48,49)        179.6508                                         !
 ! D133  D(50,47,48,52)         -0.3419                                         !
 ! D134  D(43,47,50,51)          0.7874                                         !
 ! D135  D(43,47,50,54)        179.7466                                         !
 ! D136  D(48,47,50,51)       -178.6239                                         !
 ! D137  D(48,47,50,54)          0.3352                                         !
 ! D138  D(47,48,52,53)        179.7062                                         !
 ! D139  D(47,48,52,56)          0.1067                                         !
 ! D140  D(49,48,52,53)         -0.2865                                         !
 ! D141  D(49,48,52,56)       -179.886                                          !
 ! D142  D(47,50,54,55)       -179.6878                                         !
 ! D143  D(47,50,54,56)         -0.0931                                         !
 ! D144  D(51,50,54,55)         -0.7397                                         !
 ! D145  D(51,50,54,56)        178.8549                                         !
 ! D146  D(48,52,56,54)          0.1416                                         !
 ! D147  D(48,52,56,57)        179.8375                                         !
 ! D148  D(53,52,56,54)       -179.4558                                         !
 ! D149  D(53,52,56,57)          0.2401                                         !
 ! D150  D(50,54,56,52)         -0.1485                                         !
 ! D151  D(50,54,56,57)       -179.8445                                         !
 ! D152  D(55,54,56,52)        179.4449                                         !
 ! D153  D(55,54,56,57)         -0.2511                                         !
 ! D154  D(42,58,60,61)         44.5959                                         !
 ! D155  D(42,58,60,62)        -72.2456                                         !
 ! D156  D(42,58,60,63)        165.004                                          !
 ! D157  D(59,58,60,61)       -152.9284                                         !
 ! D158  D(59,58,60,62)         90.2301                                         !
 ! D159  D(59,58,60,63)        -32.5203                                         !
 ! D160  D(58,60,62,66)        -92.1274                                         !
 ! D161  D(58,60,62,77)         84.584                                          !
 ! D162  D(61,60,62,66)        152.6201                                         !
 ! D163  D(61,60,62,77)        -30.6686                                         !
 ! D164  D(63,60,62,66)         28.9707                                         !
 ! D165  D(63,60,62,77)       -154.3179                                         !
 ! D166  D(58,60,63,64)         63.3223                                         !
 ! D167  D(58,60,63,65)        -52.4481                                         !
 ! D168  D(58,60,63,67)       -174.7503                                         !
 ! D169  D(61,60,63,64)       -178.8442                                         !
 ! D170  D(61,60,63,65)         65.3853                                         !
 ! D171  D(61,60,63,67)        -56.9168                                         !
 ! D172  D(62,60,63,64)        -56.2024                                         !
 ! D173  D(62,60,63,65)       -171.9729                                         !
 ! D174  D(62,60,63,67)         65.725                                          !
 ! D175  D(60,62,77,78)        -11.3792                                         !
 ! D176  D(60,62,77,79)       -161.9067                                         !
 ! D177  D(66,62,77,78)        165.3156                                         !
 ! D178  D(66,62,77,79)         14.7881                                         !
 ! D179  D(60,63,67,68)        -56.9742                                         !
 ! D180  D(60,63,67,69)         62.6382                                         !
 ! D181  D(60,63,67,73)       -173.7698                                         !
 ! D182  D(64,63,67,68)         64.5463                                         !
 ! D183  D(64,63,67,69)       -175.8413                                         !
 ! D184  D(64,63,67,73)        -52.2492                                         !
 ! D185  D(65,63,67,68)       -178.4302                                         !
 ! D186  D(65,63,67,69)        -58.8178                                         !
 ! D187  D(65,63,67,73)         64.7743                                         !
 ! D188  D(63,67,69,70)         58.8332                                         !
 ! D189  D(63,67,69,71)        -62.05                                           !
 ! D190  D(63,67,69,72)        178.0532                                         !
 ! D191  D(68,67,69,70)        177.9702                                         !
 ! D192  D(68,67,69,71)         57.087                                          !
 ! D193  D(68,67,69,72)        -62.8098                                         !
 ! D194  D(73,67,69,70)        -64.2079                                         !
 ! D195  D(73,67,69,71)        174.9089                                         !
 ! D196  D(73,67,69,72)         55.0121                                         !
 ! D197  D(63,67,73,74)        -62.6019                                         !
 ! D198  D(63,67,73,75)        177.8296                                         !
 ! D199  D(63,67,73,76)         57.5552                                         !
 ! D200  D(68,67,73,74)       -179.4181                                         !
 ! D201  D(68,67,73,75)         61.0134                                         !
 ! D202  D(68,67,73,76)        -59.261                                          !
 ! D203  D(69,67,73,74)         62.239                                          !
 ! D204  D(69,67,73,75)        -57.3296                                         !
 ! D205  D(69,67,73,76)       -177.6039                                         !
 ! D206  D(62,77,79,80)         31.3273                                         !
 ! D207  D(62,77,79,81)        -84.8697                                         !
 ! D208  D(62,77,79,82)        150.6796                                         !
 ! D209  D(78,77,79,80)       -118.7984                                         !
 ! D210  D(78,77,79,81)        125.0047                                         !
 ! D211  D(78,77,79,82)          0.5539                                         !
 ! D212  D(77,79,81,85)        -96.5101                                         !
 ! D213  D(77,79,81,92)         85.9669                                         !
 ! D214  D(80,79,81,85)        146.9007                                         !
 ! D215  D(80,79,81,92)        -30.6223                                         !
 ! D216  D(82,79,81,85)         26.9026                                         !
 ! D217  D(82,79,81,92)       -150.6204                                         !
 ! D218  D(77,79,82,83)         58.8358                                         !
 ! D219  D(77,79,82,84)        -58.0188                                         !
 ! D220  D(77,79,82,86)        179.3678                                         !
 ! D221  D(80,79,82,83)        176.7857                                         !
 ! D222  D(80,79,82,84)         59.9311                                         !
 ! D223  D(80,79,82,86)        -62.6823                                         !
 ! D224  D(81,79,82,83)        -64.94                                           !
 ! D225  D(81,79,82,84)        178.2054                                         !
 ! D226  D(81,79,82,86)         55.592                                          !
 ! D227  D(79,81,92,93)        -14.7951                                         !
 ! D228  D(79,81,92,94)        163.8673                                         !
 ! D229  D(85,81,92,93)        167.6949                                         !
 ! D230  D(85,81,92,94)        -13.6427                                         !
 ! D231  D(79,82,86,87)        170.1613                                         !
 ! D232  D(79,82,86,88)        -72.0679                                         !
 ! D233  D(79,82,86,89)         46.6096                                         !
 ! D234  D(83,82,86,87)        -68.4785                                         !
 ! D235  D(83,82,86,88)         49.2923                                         !
 ! D236  D(83,82,86,89)        167.9698                                         !
 ! D237  D(84,82,86,87)         48.2868                                         !
 ! D238  D(84,82,86,88)        166.0576                                         !
 ! D239  D(84,82,86,89)        -75.2649                                         !
 ! D240  D(82,86,89,90)        -80.5452                                         !
 ! D241  D(82,86,89,91)         97.1771                                         !
 ! D242  D(87,86,89,90)        157.5016                                         !
 ! D243  D(87,86,89,91)        -24.7761                                         !
 ! D244  D(88,86,89,90)         39.3356                                         !
 ! D245  D(88,86,89,91)       -142.942                                          !
 ! D246  D(81,92,94,95)        -26.3327                                         !
 ! D247  D(81,92,94,96)       -139.7796                                         !
 ! D248  D(81,92,94,97)         93.4842                                         !
 ! D249  D(93,92,94,95)        152.2729                                         !
 ! D250  D(93,92,94,96)         38.8259                                         !
 ! D251  D(93,92,94,97)        -87.9102                                         !
 ! D252  D(92,94,96,100)      -128.2952                                         !
 ! D253  D(92,94,96,106)        53.4351                                         !
 ! D254  D(95,94,96,100)       118.9336                                         !
 ! D255  D(95,94,96,106)       -59.3361                                         !
 ! D256  D(97,94,96,100)         0.2983                                         !
 ! D257  D(97,94,96,106)      -177.9714                                         !
 ! D258  D(92,94,97,98)          5.6711                                         !
 ! D259  D(92,94,97,99)        123.7444                                         !
 ! D260  D(92,94,97,101)      -115.4364                                         !
 ! D261  D(95,94,97,98)        123.2858                                         !
 ! D262  D(95,94,97,99)       -118.6409                                         !
 ! D263  D(95,94,97,101)         2.1783                                         !
 ! D264  D(96,94,97,98)       -119.8231                                         !
 ! D265  D(96,94,97,99)         -1.7498                                         !
 ! D266  D(96,94,97,101)       119.0694                                         !
 ! D267  D(94,96,106,107)       -1.818                                          !
 ! D268  D(94,96,106,108)     -177.2664                                         !
 ! D269  D(100,96,106,107)     179.9648                                         !
 ! D270  D(100,96,106,108)       4.5165                                         !
 ! D271  D(94,97,101,102)       54.41                                           !
 ! D272  D(94,97,101,105)     -125.6534                                         !
 ! D273  D(98,97,101,102)      -66.9266                                         !
 ! D274  D(98,97,101,105)      113.0101                                         !
 ! D275  D(99,97,101,102)      175.7586                                         !
 ! D276  D(99,97,101,105)       -4.3048                                         !
 ! D277  D(97,101,102,103)    -179.0261                                         !
 ! D278  D(97,101,102,104)      -8.819                                          !
 ! D279  D(105,101,102,103)      1.0369                                         !
 ! D280  D(105,101,102,104)    171.2441                                         !
 ! D281  D(96,106,108,109)      40.8471                                         !
 ! D282  D(96,106,108,110)     -76.7813                                         !
 ! D283  D(96,106,108,111)     160.1791                                         !
 ! D284  D(107,106,108,109)   -134.7139                                         !
 ! D285  D(107,106,108,110)    107.6577                                         !
 ! D286  D(107,106,108,111)    -15.3818                                         !
 ! D287  D(106,108,110,114)    -94.0028                                         !
 ! D288  D(106,108,110,127)     85.5471                                         !
 ! D289  D(109,108,110,114)    149.0779                                         !
 ! D290  D(109,108,110,127)    -31.3722                                         !
 ! D291  D(111,108,110,114)     28.371                                          !
 ! D292  D(111,108,110,127)   -152.079                                          !
 ! D293  D(106,108,111,112)    -43.2963                                         !
 ! D294  D(106,108,111,113)     72.093                                          !
 ! D295  D(106,108,111,115)   -164.855                                          !
 ! D296  D(109,108,111,112)     74.5391                                         !
 ! D297  D(109,108,111,113)   -170.0716                                         !
 ! D298  D(109,108,111,115)    -47.0196                                         !
 ! D299  D(110,108,111,112)   -165.5232                                         !
 ! D300  D(110,108,111,113)    -50.1339                                         !
 ! D301  D(110,108,111,115)     72.9181                                         !
 ! D302  D(108,110,127,128)    -13.4569                                         !
 ! D303  D(108,110,127,129)   -178.2501                                         !
 ! D304  D(114,110,127,128)    166.09                                           !
 ! D305  D(114,110,127,129)      1.2967                                         !
 ! D306  D(108,111,115,116)    -90.3776                                         !
 ! D307  D(108,111,115,118)     89.2535                                         !
 ! D308  D(112,111,115,116)    149.3076                                         !
 ! D309  D(112,111,115,118)    -31.0612                                         !
 ! D310  D(113,111,115,116)     31.2691                                         !
 ! D311  D(113,111,115,118)   -149.0997                                         !
 ! D312  D(111,115,116,117)      0.017                                          !
 ! D313  D(111,115,116,120)    179.5337                                         !
 ! D314  D(118,115,116,117)   -179.6233                                         !
 ! D315  D(118,115,116,120)     -0.1067                                         !
 ! D316  D(111,115,118,119)      1.1396                                         !
 ! D317  D(111,115,118,122)   -179.4658                                         !
 ! D318  D(116,115,118,119)   -179.2158                                         !
 ! D319  D(116,115,118,122)      0.1788                                         !
 ! D320  D(115,116,120,121)    179.6755                                         !
 ! D321  D(115,116,120,126)     -0.0313                                         !
 ! D322  D(117,116,120,121)     -0.8093                                         !
 ! D323  D(117,116,120,126)    179.4839                                         !
 ! D324  D(115,118,122,123)   -179.5935                                         !
 ! D325  D(115,118,122,126)     -0.112                                          !
 ! D326  D(119,118,122,123)     -0.1945                                         !
 ! D327  D(119,118,122,126)    179.287                                          !
 ! D328  D(116,120,126,122)      0.1013                                         !
 ! D329  D(116,120,126,124)    179.9862                                         !
 ! D330  D(121,120,126,122)   -179.6122                                         !
 ! D331  D(121,120,126,124)      0.2727                                         !
 ! D332  D(118,122,126,120)     -0.031                                          !
 ! D333  D(118,122,126,124)   -179.9093                                         !
 ! D334  D(123,122,126,120)    179.4508                                         !
 ! D335  D(123,122,126,124)     -0.4275                                         !
 ! D336  D(125,124,126,120)   -178.6552                                         !
 ! D337  D(125,124,126,122)      1.2256                                         !
 ! D338  D(110,127,129,130)     -3.0053                                         !
 ! D339  D(110,127,129,131)   -119.0949                                         !
 ! D340  D(110,127,129,132)    118.2404                                         !
 ! D341  D(128,127,129,130)   -167.4394                                         !
 ! D342  D(128,127,129,131)     76.4711                                         !
 ! D343  D(128,127,129,132)    -46.1937                                         !
 ! D344  D(127,129,131,135)   -121.6414                                         !
 ! D345  D(127,129,131,151)     58.3549                                         !
 ! D346  D(130,129,131,135)    123.5197                                         !
 ! D347  D(130,129,131,151)    -56.484                                          !
 ! D348  D(132,129,131,135)      2.4767                                         !
 ! D349  D(132,129,131,151)   -177.527                                          !
 ! D350  D(127,129,132,133)     53.6566                                         !
 ! D351  D(127,129,132,134)    168.5195                                         !
 ! D352  D(127,129,132,136)    -68.9439                                         !
 ! D353  D(130,129,132,133)    171.8025                                         !
 ! D354  D(130,129,132,134)    -73.3346                                         !
 ! D355  D(130,129,132,136)     49.202                                          !
 ! D356  D(131,129,132,133)    -69.1832                                         !
 ! D357  D(131,129,132,134)     45.6797                                         !
 ! D358  D(131,129,132,136)    168.2163                                         !
 ! D359  D(129,131,151,152)   -179.6574                                         !
 ! D360  D(135,131,151,152)      0.3389                                         !
 ! D361  D(129,132,136,137)    -64.8897                                         !
 ! D362  D(129,132,136,138)     52.2567                                         !
 ! D363  D(129,132,136,139)    174.5832                                         !
 ! D364  D(133,132,136,137)    174.1492                                         !
 ! D365  D(133,132,136,138)    -68.7044                                         !
 ! D366  D(133,132,136,139)     53.622                                          !
 ! D367  D(134,132,136,137)     56.5716                                         !
 ! D368  D(134,132,136,138)    173.718                                          !
 ! D369  D(134,132,136,139)    -63.9556                                         !
 ! D370  D(132,136,139,140)     51.6042                                         !
 ! D371  D(132,136,139,141)    169.2992                                         !
 ! D372  D(132,136,139,142)    -71.7154                                         !
 ! D373  D(137,136,139,140)    -70.0892                                         !
 ! D374  D(137,136,139,141)     47.6058                                         !
 ! D375  D(137,136,139,142)    166.5912                                         !
 ! D376  D(138,136,139,140)    174.657                                          !
 ! D377  D(138,136,139,141)    -67.648                                          !
 ! D378  D(138,136,139,142)     51.3374                                         !
 ! D379  D(136,139,142,143)    -84.5691                                         !
 ! D380  D(136,139,142,150)    101.1133                                         !
 ! D381  D(140,139,142,143)    150.7346                                         !
 ! D382  D(140,139,142,150)    -23.5829                                         !
 ! D383  D(141,139,142,143)     36.5584                                         !
 ! D384  D(141,139,142,150)   -137.7592                                         !
 ! D385  D(139,142,150,144)     -7.1438                                         !
 ! D386  D(139,142,150,147)    170.0484                                         !
 ! D387  D(143,142,150,144)    178.3303                                         !
 ! D388  D(143,142,150,147)     -4.4775                                         !
 ! D389  D(145,144,150,142)    178.0407                                         !
 ! D390  D(145,144,150,147)      0.8872                                         !
 ! D391  D(146,144,150,142)    -21.3083                                         !
 ! D392  D(146,144,150,147)    161.5382                                         !
 ! D393  D(148,147,150,142)    162.4363                                         !
 ! D394  D(148,147,150,144)    -20.3142                                         !
 ! D395  D(149,147,150,142)      4.228                                          !
 ! D396  D(149,147,150,144)   -178.5225                                         !
 --------------------------------------------------------------------------------
 Symmetry turned off by external request.
 Stoichiometry    C50H77N12O13(1+)
 Framework group  C1[X(C50H77N12O13)]
 Deg. of freedom   450
 Full point group                 C1      NOp   1
                          Input orientation:                          
 ---------------------------------------------------------------------
 Center     Atomic      Atomic             Coordinates (Angstroms)
 Number     Number       Type             X           Y           Z
 ---------------------------------------------------------------------
      1          7           0       -1.314062   -2.846191    2.348719
      2          1           0       -0.816584   -3.622355    2.780489
[...]
 Alpha virt. eigenvalues --    1.85871   1.86005   1.86069   1.86534   1.86635
 Alpha virt. eigenvalues --    1.86809   1.87053   1.87323   1.87854   1.87926
 Alpha virt. eigenvalues --    1.89045   1.89427   1.89653   1.89738   1.89932
 Alpha virt. eigenvalues --    1.90256   1.90875   1.91184   1.91476   1.91798
 Alpha virt. eigenvalues --    1.91885   1.92184   1.92270   1.92327   1.92536
 Alpha virt. eigenvalues --    1.92604   1.92946   1.93251   1.93461   1.93520
 Alpha virt. eigenvalues --    1.94039   1.94067   1.94121   1.94781   1.95515
 Alpha virt. eigenvalues --    1.95533   1.95670   1.96030   1.96296   1.96345
 Alpha virt. eigenvalues --    1.96954   1.97417   1.98330   1.98706   1.98794
 Alpha virt. eigenvalues --    1.99004   1.99133   1.99648   1.99900   2.00115
 Alpha virt. eigenvalues --    2.00439   2.00886   2.01463   2.01685   2.01937
 Alpha virt. eigenvalues --    2.02162   2.02554   2.02693   2.02867   2.03128
 Alpha virt. eigenvalues --    2.03732   2.03997   2.04296   2.04865   2.05113
 Alpha virt. eigenvalues --    2.05543   2.06162   2.06430   2.07054   2.07151
 Alpha virt. eigenvalues --    2.07567   2.07669   2.07991   2.08566   2.08973
 Alpha virt. eigenvalues --    2.09036   2.09621   2.09923   2.10282   2.10470
 Alpha virt. eigenvalues --    2.11199   2.11663   2.11968   2.12275   2.12700
 Alpha virt. eigenvalues --    2.13810   2.14329   2.15155   2.15486   2.15887
 Alpha virt. eigenvalues --    2.16113   2.16808   2.17944   2.18120   2.18453
 Alpha virt. eigenvalues --    2.18741   2.18968   2.19626   2.20060   2.20790
 Alpha virt. eigenvalues --    2.21655   2.21805   2.21852   2.22158   2.22661
 Alpha virt. eigenvalues --    2.22931   2.23156   2.24038   2.24336   2.24535
 Alpha virt. eigenvalues --    2.24746   2.24810   2.25346   2.25473   2.25691
 Alpha virt. eigenvalues --    2.26013   2.27173   2.27387   2.27609   2.28008
 Alpha virt. eigenvalues --    2.28726   2.28979   2.29915   2.30017   2.30174
 Alpha virt. eigenvalues --    2.30465   2.30774   2.31693   2.32028   2.32280
 Alpha virt. eigenvalues --    2.32478   2.33083   2.33482   2.34031   2.34623
 Alpha virt. eigenvalues --    2.34698   2.35152   2.35329   2.35933   2.36305
 Alpha virt. eigenvalues --    2.36817   2.37202   2.37580   2.38518   2.38944
 Alpha virt. eigenvalues --    2.39129   2.39408   2.39983   2.40070   2.40612
 Alpha virt. eigenvalues --    2.40763   2.41346   2.41979   2.42752   2.43190
 Alpha virt. eigenvalues --    2.43257   2.43914   2.44159   2.44225   2.44888
 Alpha virt. eigenvalues --    2.45497   2.45939   2.46338   2.47044   2.47322
 Alpha virt. eigenvalues --    2.47554   2.48139   2.48938   2.49370   2.49899
 Alpha virt. eigenvalues --    2.50413   2.51091   2.51505   2.52357   2.52760
 Alpha virt. eigenvalues --    2.53023   2.53261   2.53600   2.54014   2.54176
 Alpha virt. eigenvalues --    2.55574   2.56117   2.56553   2.56857   2.57019
 Alpha virt. eigenvalues --    2.57470   2.57756   2.57943   2.58115   2.58679
 Alpha virt. eigenvalues --    2.59140   2.59539   2.60271   2.60437   2.60677
 Alpha virt. eigenvalues --    2.61032   2.61508   2.62266   2.62482   2.62785
 Alpha virt. eigenvalues --    2.63095   2.63235   2.64025   2.64276   2.65537
 Alpha virt. eigenvalues --    2.66360   2.67126   2.67270   2.68173   2.68592
 Alpha virt. eigenvalues --    2.68872   2.69745   2.69850   2.70039   2.70621
 Alpha virt. eigenvalues --    2.70856   2.71593   2.71943   2.72665   2.73278
 Alpha virt. eigenvalues --    2.73974   2.74679   2.74878   2.76546   2.76955
 Alpha virt. eigenvalues --    2.78076   2.79314   2.80683   2.80982   2.82627
 Alpha virt. eigenvalues --    2.82808   2.83718   2.83765   2.85831   2.86622
 Alpha virt. eigenvalues --    2.87316   2.88607   2.89463   2.90187   2.91074
 Alpha virt. eigenvalues --    2.91982   2.92415   2.92580   2.92845   2.94366
 Alpha virt. eigenvalues --    2.94458   2.96160   2.96856   2.97614   2.98181
 Alpha virt. eigenvalues --    2.98396   2.98961   2.99585   2.99947   3.00112
 Alpha virt. eigenvalues --    3.03850   3.05134   3.07148   3.07380   3.07934
 Alpha virt. eigenvalues --    3.08693   3.09468   3.10245   3.11380   3.14804
 Alpha virt. eigenvalues --    3.34615   3.37238   3.69204   3.77605   3.78580
 Alpha virt. eigenvalues --    3.80976   3.81158   3.89497   3.90958   3.92198
 Alpha virt. eigenvalues --    3.93669   3.94798   3.96405   3.97149   3.98107
 Alpha virt. eigenvalues --    4.00597   4.01736   4.02879   4.03886   4.04824
 Alpha virt. eigenvalues --    4.05326   4.05933   4.06254   4.06981   4.07216
 Alpha virt. eigenvalues --    4.08459   4.09397   4.10269   4.12507   4.13062
 Alpha virt. eigenvalues --    4.15403   4.15818   4.16162   4.16534   4.17609
 Alpha virt. eigenvalues --    4.17634   4.20713   4.20881   4.20973   4.21893
 Alpha virt. eigenvalues --    4.22710   4.23481   4.25689   4.25758   4.26112
 Alpha virt. eigenvalues --    4.28535   4.29348   4.30418   4.31251   4.31679
 Alpha virt. eigenvalues --    4.32752   4.32939   4.34994   4.36489   4.38068
 Alpha virt. eigenvalues --    4.39419   4.40794   4.41725   4.42608   4.43066
 Alpha virt. eigenvalues --    4.44155   4.45532   4.47994   4.50441   4.51415
 Alpha virt. eigenvalues --    4.52318   4.52471   4.54030   4.55122   4.58631
 Alpha virt. eigenvalues --    4.59911   4.61100   4.63424   4.63853   4.64497
 Alpha virt. eigenvalues --    4.65480   4.71836
          Condensed to atoms (all electrons):
 Mulliken charges:
               1
     1  N   -0.798894
     2  H    0.335368
     3  H    0.345179
     4  H    0.487929
     5  C   -0.045701
     6  H    0.144755
     7  C    0.605852
     8  C   -0.070240
     9  H    0.152607
    10  O   -0.541372
    11  C   -0.487063
    12  H    0.142626
    13  H    0.168304
    14  H    0.167920
    15  C   -0.461828
    16  H    0.142144
    17  H    0.163133
    18  H    0.166124
    19  N   -0.612930
    20  H    0.349479
    21  C   -0.058895
    22  H    0.176943
    23  C    0.633061
    24  C   -0.088539
    25  H    0.133594
    26  O   -0.543988
    27  C   -0.267721
    28  H    0.162314
    29  H    0.143864
    30  C   -0.479585
    31  H    0.198111
    32  H    0.121508
    33  H    0.156986
    34  C   -0.460364
    35  H    0.157572
    36  H    0.146752
    37  H    0.146121
    38  N   -0.616900
    39  H    0.376661
    40  C   -0.034112
    41  H    0.195085
    42  C    0.616243
    43  C   -0.372958
    44  H    0.149067
    45  H    0.203370
    46  O   -0.551248
    47  C    0.126632
    48  C   -0.223286
    49  H    0.146194
    50  C   -0.182411
    51  H    0.163220
    52  C   -0.126737
    53  H    0.139868
    54  C   -0.127802
    55  H    0.147276
    56  C   -0.128066
    57  H    0.143419
    58  N   -0.619571
    59  H    0.362683
    60  C   -0.054881
    61  H    0.181061
    62  C    0.621977
    63  C   -0.280085
    64  H    0.157813
    65  H    0.149604
    66  O   -0.554221
    67  C   -0.081108
    68  H    0.133750
    69  C   -0.452132
    70  H    0.150711
    71  H    0.142090
    72  H    0.150007
    73  C   -0.445589
    74  H    0.148275
    75  H    0.145701
    76  H    0.147089
    77  N   -0.613470
    78  H    0.382541
    79  C   -0.059301
    80  H    0.180265
    81  C    0.657837
    82  C   -0.318056
    83  H    0.174561
    84  H    0.195101
    85  O   -0.556424
    86  C   -0.370584
    87  H    0.150750
    88  H    0.194127
    89  C    0.584901
    90  O   -0.500877
    91  O   -0.598479
    92  N   -0.607182
    93  H    0.378165
    94  C   -0.070236
    95  H    0.192943
    96  C    0.596370
    97  C   -0.361544
    98  H    0.195457
    99  H    0.197103
   100  O   -0.554340
   101  C    0.569795
   102  N   -0.733812
   103  H    0.350910
   104  H    0.413112
   105  O   -0.579950
   106  N   -0.637106
   107  H    0.419987
   108  C   -0.048035
   109  H    0.170596
   110  C    0.631218
   111  C   -0.383855
   112  H    0.157652
   113  H    0.187858
   114  O   -0.513741
   115  C    0.146659
   116  C   -0.186067
   117  H    0.160566
   118  C   -0.189328
   119  H    0.119864
   120  C   -0.160747
   121  H    0.144659
   122  C   -0.193504
   123  H    0.120193
   124  O   -0.639376
   125  H    0.408833
   126  C    0.350422
   127  N   -0.610648
   128  H    0.365478
   129  C   -0.057041
   130  H    0.211703
   131  C    0.592897
   132  C   -0.288166
   133  H    0.141071
   134  H    0.159892
   135  O   -0.471195
   136  C   -0.255263
   137  H    0.171786
   138  H    0.163995
   139  C   -0.184973
   140  H    0.171596
   141  H    0.190814
   142  N   -0.606423
   143  H    0.399625
   144  N   -0.759916
   145  H    0.373581
   146  H    0.387856
   147  N   -0.782028
   148  H    0.360735
   149  H    0.415504
   150  C    0.798277
   151  O   -0.544831
   152  H    0.421429
 Sum of Mulliken charges =   1.00000
 Mulliken charges with hydrogens summed into heavy atoms:
               1
     1  N   -0.118347
     5  C    0.099054
     7  C    0.605852
     8  C    0.082367
    10  O   -0.541372
    11  C   -0.008213
    15  C    0.009572
    19  N   -0.263451
    21  C    0.118048
    23  C    0.633061
    24  C    0.045056
    26  O   -0.543988
    27  C    0.038458
    30  C   -0.002980
    34  C   -0.009920
    38  N   -0.240240
    40  C    0.160973
    42  C    0.616243
    43  C   -0.020521
    46  O   -0.551248
    47  C    0.126632
    48  C   -0.077092
    50  C   -0.019191
    52  C    0.013131
    54  C    0.019474
    56  C    0.015353
    58  N   -0.256887
    60  C    0.126180
    62  C    0.621977
    63  C    0.027332
    66  O   -0.554221
    67  C    0.052643
    69  C   -0.009324
    73  C   -0.004523
    77  N   -0.230929
    79  C    0.120965
    81  C    0.657837
    82  C    0.051606
    85  O   -0.556424
    86  C   -0.025707
    89  C    0.584901
    90  O   -0.500877
    91  O   -0.110550
    92  N   -0.229017
    94  C    0.122707
    96  C    0.596370
    97  C    0.031016
   100  O   -0.554340
   101  C    0.569795
   102  N    0.030210
   105  O   -0.579950
   106  N   -0.217119
   108  C    0.122561
   110  C    0.631218
   111  C   -0.038345
   114  O   -0.513741
   115  C    0.146659
   116  C   -0.025501
   118  C   -0.069464
   120  C   -0.016088
   122  C   -0.073310
   124  O   -0.230543
   126  C    0.350422
   127  N   -0.245170
   129  C    0.154661
   131  C    0.592897
   132  C    0.012796
   135  O   -0.471195
   136  C    0.080517
   139  C    0.177437
   142  N   -0.206799
   144  N    0.001522
   147  N   -0.005790
   150  C    0.798277
   151  O   -0.123401
 Electronic spatial extent (au):  <R**2>=          91918.4463
 Charge=              1.0000 electrons
 Dipole moment (field-independent basis, Debye):
    X=             10.7648    Y=              7.0466    Z=            -15.8579  Tot=             20.4208
 Quadrupole moment (field-independent basis, Debye-Ang):
   XX=           -287.2524   YY=           -356.2734   ZZ=           -266.1609
   XY=             44.3713   XZ=           -142.8538   YZ=            -50.5640
 Traceless Quadrupole moment (field-independent basis, Debye-Ang):
   XX=             15.9765   YY=            -53.0445   ZZ=             37.0680
   XY=             44.3713   XZ=           -142.8538   YZ=            -50.5640
 Octapole moment (field-independent basis, Debye-Ang**2):
  XXX=            -14.2731  YYY=          -1814.7167  ZZZ=           -208.6907  XYY=           -178.9270
  XXY=           -393.4480  XXZ=           -604.0915  XZZ=            577.4977  YZZ=           -374.1617
  YYZ=            213.5381  XYZ=           -161.7003
 Hexadecapole moment (field-independent basis, Debye-Ang**3):
 XXXX=         -53841.7160 YYYY=         -19079.2338 ZZZZ=         -26582.6029 XXXY=           -494.4096
 XXXZ=           2920.8872 YYYX=          -2440.8026 YYYZ=           2989.4095 ZZZX=           3299.9298
 ZZZY=           -304.2192 XXYY=         -12274.5661 XXZZ=          -9453.2230 YYZZ=          -7173.2126
 XXYZ=          -1030.7935 YYXZ=           2694.2926 ZZXY=           1733.9313
 N-N= 1.338712892415D+04 E-N=-3.508923904823D+04  KE= 3.553205174536D+03
 Unable to Open any file for archive entry.
 1\1\GINC-QML-002\SP\RB3LYP\6-31G(d)\C50H77N12O13(1+)\KENGMITH\13-Aug-2
 022\0\\# B3LYP/6-31G* guess=read geom=check nosymm integral(ultrafineg
 rid)\\Candidate Structure: Conf:102 Charge calc in gas phase\\1,1\N,0,
 -1.3140624688,-2.8461905718,2.3487186152\H,0,-0.8165840425,-3.62235536
 62,2.780489449\H,0,-1.946728188,-3.2298657345,1.6479756363\H,0,-0.1427
 868089,-1.8694071439,1.5456810822\C,0,-2.1146861985,-2.1272585293,3.37
 13179735\H,0,-2.4470926028,-2.8207032596,4.1603115087\C,0,-3.370610093
 ,-1.5953215258,2.6533100373\C,0,-1.2509846759,-1.0191700465,4.04577073
 57\H,0,-0.9573339228,-0.3194945785,3.2522899251\O,0,-3.4009635899,-1.4
 851398284,1.4238944434\C,0,-2.0033890108,-0.2387913233,5.1354711791\H,
 0,-2.3800808655,-0.9093113548,5.9208692248\H,0,-1.3211124724,0.4654886
 988,5.6223737104\H,0,-2.84327876,0.3432933331,4.7453871272\C,0,0.02896
 16114,-1.6346937421,4.6373832702\H,0,-0.2107836337,-2.3886627583,5.399
 3383819\H,0,0.659317047,-2.0959489867,3.8723072671\H,0,0.6300396001,-0
 .8580941501,5.1214140127\N,0,-4.4351588883,-1.3100833178,3.4430907705\
 H,0,-4.3228647303,-1.3497068116,4.4463408952\C,0,-5.6765764714,-0.7211
 338761,2.9225290557\H,0,-5.8195879935,-1.1721806173,1.9375062257\C,0,-
 5.4525193426,0.7993406714,2.7265173507\C,0,-6.8920254466,-1.0913978824
 ,3.8055278955\H,0,-6.9771654883,-2.185953742,3.7281042014\O,0,-5.64839
 29137,1.6379106087,3.6066753528\C,0,-8.1985528587,-0.4840142882,3.2485
 389939\H,0,-8.1576107214,0.6070881257,3.35326988\H,0,-9.0151716332,-0.
 8218882669,3.8990193399\C,0,-6.7300258652,-0.7339168503,5.2941307978\H
 ,0,-6.5884733721,0.3404059841,5.4277152707\H,0,-5.8875202499,-1.255931
 7174,5.7675614577\H,0,-7.6257063631,-1.0419496705,5.8444406947\C,0,-8.
 5333741401,-0.8592292582,1.7992498232\H,0,-9.5304920383,-0.4943032077,
 1.5307010555\H,0,-7.8289932632,-0.4233687361,1.0813784967\H,0,-8.53078
 45044,-1.9470718995,1.6554072268\N,0,-4.9621940868,1.1119238073,1.5016
 953555\H,0,-4.7428330005,0.3764630855,0.8369917615\C,0,-4.5208856484,2
 .4455366791,1.1436771622\H,0,-5.3335576486,3.1557673587,1.3382160633\C
 ,0,-4.2174985843,2.4037481535,-0.3650403457\C,0,-3.2740999732,2.885332
 4229,1.9833362494\H,0,-2.3806215324,2.3873449162,1.5885546502\H,0,-3.4
 478158878,2.499519636,2.9913489435\O,0,-4.3896470134,1.3688555585,-1.0
 195346679\C,0,-3.0610873055,4.3822646163,2.0744578992\C,0,-1.973120281
 ,5.0155228909,1.4544374443\H,0,-1.2570966603,4.4252963159,0.8854444973
 \C,0,-3.9663659852,5.1658573535,2.8089112031\H,0,-4.800026638,4.680239
 3923,3.3116416161\C,0,-1.7983847064,6.3991204832,1.5599179347\H,0,-0.9
 473997127,6.8721765498,1.0772503266\C,0,-3.7918494683,6.5447418525,2.9
 139533225\H,0,-4.4988352956,7.1351103062,3.4903006999\C,0,-2.707423085
 ,7.1662908246,2.2880500085\H,0,-2.5711845352,8.2407421183,2.3728275582
 \N,0,-3.709764384,3.5338436775,-0.9137653405\H,0,-3.4713589587,4.30819
 00598,-0.3023512963\C,0,-3.1399718404,3.5503024565,-2.2702970113\H,0,-
 3.8290274047,2.9902929704,-2.9078254264\C,0,-1.7859575317,2.8033348628
 ,-2.2080209407\C,0,-2.9938896505,4.9934165281,-2.7583072633\H,0,-2.279
 8328494,5.5045318814,-2.1010876225\H,0,-3.9662673699,5.4887571014,-2.6
 349035171\O,0,-0.715078362,3.3847965013,-2.004754828\C,0,-2.524429583,
 5.1473486077,-4.2193651165\H,0,-1.565837672,4.619236254,-4.3190997986\
 C,0,-3.5177273382,4.5490377917,-5.2280092248\H,0,-4.5030377682,5.02416
 05345,-5.1382741528\H,0,-3.654262023,3.4695220766,-5.0957297829\H,0,-3
 .1682071538,4.7072927749,-6.2545779501\C,0,-2.2722133631,6.6315180572,
 -4.5255222314\H,0,-3.1966320272,7.2155794307,-4.4314792348\H,0,-1.9003
 219657,6.7641109455,-5.5478264795\H,0,-1.5330391994,7.0614261455,-3.83
 97259273\N,0,-1.8841044959,1.4518491764,-2.3250512657\H,0,-2.825541942
 6,1.0679606313,-2.2583746317\C,0,-0.7774458839,0.591375123,-1.89823313
 95\H,0,-0.276588463,1.0929359228,-1.0637138305\C,0,0.2676458825,0.4471
 867336,-3.0206294297\C,0,-1.3142471817,-0.769908763,-1.4352131216\H,0,
 -1.8626423607,-1.2381814654,-2.2596351597\H,0,-2.0246104263,-0.6002280
 559,-0.6190449501\O,0,0.2815767839,-0.5130232498,-3.8000783529\C,0,-0.
 2206430752,-1.764430993,-0.9757978436\H,0,-0.7104924405,-2.6225545479,
 -0.5064141049\H,0,0.3296387035,-2.1181114425,-1.8501954091\C,0,0.79763
 2702,-1.1284312741,-0.0362306669\O,0,1.7173790382,-0.4492129064,-0.476
 5022304\O,0,0.6439270785,-1.2856404793,1.2694105548\N,0,1.1959044878,1
 .4322664965,-3.0440369362\H,0,0.9937746967,2.2692187466,-2.4988760025\
 C,0,2.4385626265,1.2989176077,-3.784914276\H,0,2.6266289045,0.22003647
 75,-3.8326275628\C,0,3.6016836703,1.9013116632,-2.9512049071\C,0,2.408
 665918,1.8701081881,-5.2275075166\H,0,1.45017677,2.374031272,-5.391173
 1133\H,0,3.2057516607,2.6068858003,-5.3377338105\O,0,4.3757077838,2.73
 74320212,-3.4327189266\C,0,2.5887292312,0.8083254562,-6.3052213413\N,0
 ,1.7464894496,-0.2311980428,-6.269781516\H,0,1.8561345372,-0.957190300
 8,-6.9666541038\H,0,1.1046112854,-0.3813152995,-5.4820483773\O,0,3.477
 445648,0.8997599054,-7.1825675425\N,0,3.7032269614,1.4089427466,-1.700
 7962852\H,0,3.0279713821,0.7195136079,-1.3663878423\C,0,4.7050699536,1
 .8979792841,-0.7400074369\H,0,4.7541178195,2.9870964455,-0.8480670117\
 C,0,6.0997882377,1.3085927864,-1.0836149353\C,0,4.2838006609,1.5378115
 246,0.6962830078\H,0,3.2125429646,1.7459500605,0.7918680972\H,0,4.4134
 356516,0.4600644445,0.8318722811\O,0,6.538865723,0.288428934,-0.570317
 917\C,0,5.0555167682,2.309043414,1.7483348057\C,0,6.2528203462,1.81666
 33876,2.2906768582\H,0,6.635376648,0.8602372547,1.94789608\C,0,4.59098
 01275,3.5487365485,2.2038347709\H,0,3.6588875209,3.9514663128,1.811862
 0005\C,0,6.9616208818,2.5340349827,3.2493279031\H,0,7.8846324842,2.148
 6597315,3.6710250257\C,0,5.2906564086,4.2805967801,3.1630984831\H,0,4.
 9066351975,5.2395257171,3.5071466294\O,0,7.2183999782,4.4340212623,4.6
 326787552\H,0,6.7689042778,5.2616303165,4.8642551637\C,0,6.4824869473,
 3.7725455501,3.689576569\N,0,6.7773758284,2.0384928209,-2.0207524588\H
 ,0,6.2367903482,2.7318880283,-2.5317556134\C,0,8.0849306709,1.65754861
 93,-2.5241772495\H,0,8.3694548001,0.7594266527,-1.9631532154\C,0,9.112
 8243058,2.7527527125,-2.205403283\C,0,8.0697622889,1.382280007,-4.0356
 584771\H,0,7.6383654839,2.2653041681,-4.5257421123\H,0,9.1098748229,1.
 3062638036,-4.3769976994\O,0,9.7741124638,3.3412041856,-3.0350725888\C
 ,0,7.2964639133,0.1222757925,-4.4320145168\H,0,7.795752054,-0.76499439
 82,-4.0228548679\H,0,6.2899983662,0.1428600838,-3.9981254272\C,0,7.179
 9193788,-0.0648958568,-5.9527889725\H,0,8.1590966153,0.0029654747,-6.4
 400538386\H,0,6.7916037475,-1.0626426462,-6.1794691487\N,0,6.264391279
 1,0.8882570307,-6.5925381307\H,0,5.2653587827,0.6639064891,-6.60376340
 61\N,0,7.8372923771,2.4559336719,-7.3339543276\H,0,8.0470957809,3.2789
 05102,-7.8794164021\H,0,8.5188352533,2.1894479911,-6.6387706831\N,0,5.
 5973675432,2.6173341451,-7.9482060525\H,0,5.7163265368,3.5737334672,-8
 .2477021825\H,0,4.6471404123,2.2446969534,-7.8527125846\C,0,6.57250281
 77,1.9917817802,-7.2699499709\O,0,9.1949907515,2.9857893406,-0.8847318
 345\H,0,9.8579187712,3.6912317487,-0.758676996\\Version=ES64L-G16RevC.
 01\HF=-3586.6884884\RMSD=6.157e-09\Dipole=2.8730224,-0.2695663,-5.0353
 656\Quadrupole=11.8781665,-39.4372974,27.559131,32.9889455,-106.208305
 3,-37.593083\PG=C01 [X(C50H77N12O13)]\\@
 The archive entry for this job was punched.


 "I COULD HAVE DONE IT IN A MUCH MORE COMPLICATED WAY"
 SAID THE RED QUEEN, IMMENSELY PROUD.

                                      -- LEWIS CARROLL
 Job cpu time:       0 days  0 hours 15 minutes  5.8 seconds.
 Elapsed time:       0 days  0 hours  3 minutes 47.6 seconds.
 File lengths (MBytes):  RWF=   1088 Int=      0 D2E=      0 Chk=    160 Scr=     32
 Normal termination of Gaussian 16 at Sat Aug 13 08:31:28 2022.
