 Entering Gaussian System, Link 0=/opt/software/Gaussian/g16-AVX2-C.01/g16/g16
 Input=charge-conf-669.com
 Output=charge-conf-669.log
 Initial command:
 /opt/software/Gaussian/g16-AVX2-C.01/g16/l1.exe "/mnt/gs18/scratch/users/kengmith/Gau-121193.inp" -scrdir="/mnt/gs18/scratch/users/kengmith/"
 Entering Link 1 = /opt/software/Gaussian/g16-AVX2-C.01/g16/l1.exe PID=    121203.
  
 Copyright (c) 1988-2019, Gaussian, Inc.  All Rights Reserved.
  
 This is part of the Gaussian(R) 16 program.  It is based on
 the Gaussian(R) 09 system (copyright 2009, Gaussian, Inc.),
 the Gaussian(R) 03 system (copyright 2003, Gaussian, Inc.),
 the Gaussian(R) 98 system (copyright 1998, Gaussian, Inc.),
 the Gaussian(R) 94 system (copyright 1995, Gaussian, Inc.),
 the Gaussian 92(TM) system (copyright 1992, Gaussian, Inc.),
 the Gaussian 90(TM) system (copyright 1990, Gaussian, Inc.),
 the Gaussian 88(TM) system (copyright 1988, Gaussian, Inc.),
 the Gaussian 86(TM) system (copyright 1986, Carnegie Mellon
 University), and the Gaussian 82(TM) system (copyright 1983,
 Carnegie Mellon University). Gaussian is a federally registered
 trademark of Gaussian, Inc.
  
 This software contains proprietary and confidential information,
 including trade secrets, belonging to Gaussian, Inc.
  
 This software is provided under written license and may be
 used, copied, transmitted, or stored only in accord with that
 written license.
  
 The following legend is applicable only to US Government
 contracts under FAR:
  
                    RESTRICTED RIGHTS LEGEND
  
 Use, reproduction and disclosure by the US Government is
 subject to restrictions as set forth in subparagraphs (a)
 and (c) of the Commercial Computer Software - Restricted
 Rights clause in FAR 52.227-19.
  
 Gaussian, Inc.
 340 Quinnipiac St., Bldg. 40, Wallingford CT 06492
  
  
 ---------------------------------------------------------------
 Warning -- This program may not be used in any manner that
 competes with the business of Gaussian, Inc. or will provide
 assistance to any competitor of Gaussian, Inc.  The licensee
 of this program is prohibited from giving any competitor of
 Gaussian, Inc. access to this program.  By using this program,
 the user acknowledges that Gaussian, Inc. is engaged in the
 business of creating and licensing software in the field of
 computational chemistry and represents and warrants to the
 licensee that it is not a competitor of Gaussian, Inc. and that
 it will not use this program in any manner prohibited above.
 ---------------------------------------------------------------
  

 Cite this work as:
 Gaussian 16, Revision C.01,
 M. J. Frisch, G. W. Trucks, H. B. Schlegel, G. E. Scuseria, 
 M. A. Robb, J. R. Cheeseman, G. Scalmani, V. Barone, 
 G. A. Petersson, H. Nakatsuji, X. Li, M. Caricato, A. V. Marenich, 
 J. Bloino, B. G. Janesko, R. Gomperts, B. Mennucci, H. P. Hratchian, 
 J. V. Ortiz, A. F. Izmaylov, J. L. Sonnenberg, D. Williams-Young, 
 F. Ding, F. Lipparini, F. Egidi, J. Goings, B. Peng, A. Petrone, 
 T. Henderson, D. Ranasinghe, V. G. Zakrzewski, J. Gao, N. Rega, 
 G. Zheng, W. Liang, M. Hada, M. Ehara, K. Toyota, R. Fukuda, 
 J. Hasegawa, M. Ishida, T. Nakajima, Y. Honda, O. Kitao, H. Nakai, 
 T. Vreven, K. Throssell, J. A. Montgomery, Jr., J. E. Peralta, 
 F. Ogliaro, M. J. Bearpark, J. J. Heyd, E. N. Brothers, K. N. Kudin, 
 V. N. Staroverov, T. A. Keith, R. Kobayashi, J. Normand, 
 K. Raghavachari, A. P. Rendell, J. C. Burant, S. S. Iyengar, 
 J. Tomasi, M. Cossi, J. M. Millam, M. Klene, C. Adamo, R. Cammi, 
 J. W. Ochterski, R. L. Martin, K. Morokuma, O. Farkas, 
 J. B. Foresman, and D. J. Fox, Gaussian, Inc., Wallingford CT, 2019.
 
 ******************************************
 Gaussian 16:  ES64L-G16RevC.01  3-Jul-2019
                 1-Jun-2022 
 ******************************************
 %mem=8gb
 %nproc=4
 Will use up to    4 processors via shared memory.
 %chk=conf-669.chk
 ----------------------------------------------------------------------
 # B3LYP/6-31G* empiricaldispersion=gd3 guess=read geom=check nosymm in
 tegral(ultrafinegrid)
 ----------------------------------------------------------------------
 1/29=2,38=1,172=1/1;
 2/12=2,15=1,40=1/2;
 3/5=1,6=6,7=1,11=2,14=-4,25=1,30=1,74=-5,75=-5,116=-2,124=31/1,2,3;
 4/5=1/1;
 5/5=2,38=6/2;
 6/7=2,8=2,9=2,10=2,28=1/1;
 99/5=1,9=1/99;
 ------------------------------------------------------
 Candidate Structure: Conf:669 Charge calc in gas phase
 ------------------------------------------------------
 Structure from the checkpoint file:  "conf-669.chk"
 Charge =  1 Multiplicity = 1
 Redundant internal coordinates found in file.  (old form).
 N,0,-3.8909877958,-2.6105954894,1.778802399
 H,0,-4.2689040603,-3.5294510541,1.5321103847
 H,0,-4.2283702278,-2.3486869106,2.7095312796
 H,0,-4.2100007293,-1.9088409012,1.0560784122
 C,0,-2.3787190345,-2.5321606143,1.6567397531
 H,0,-1.9764759823,-3.5467907296,1.7132200634
 C,0,-2.1765666756,-1.8842936411,0.2671630984
 C,0,-1.7991674602,-1.6345828708,2.7694545707
 H,0,-0.7207229833,-1.5489194058,2.6047688413
 H,0,-1.9234798419,-2.1502344343,3.7305890983
 O,0,-3.1332340518,-1.2754870061,-0.2268113213
 C,0,-2.4100849268,-0.2257613678,2.8194162533
 H,0,-3.4801278668,-0.2335937408,3.0553396398
 H,0,-2.2857499416,0.2868023585,1.8573646516
 C,0,-1.7440967661,0.7109223536,3.8299513148
 O,0,-2.3683370885,1.5092552389,4.4831740391
 O,0,-0.4128884665,0.5481904047,3.8288912254
 N,0,-0.9452895992,-1.9581446319,-0.2526515231
 H,0,-0.2165895519,-2.4357948395,0.2735863861
 C,0,-0.4036553498,-0.9002896851,-1.1278214868
 H,0,-1.2075845721,-0.1819697793,-1.3001000834
 C,0,0.7454413488,-0.3009150349,-0.293686909
 C,0,0.1380390796,-1.4234851604,-2.4703914819
 H,0,0.8150372353,-2.2580482083,-2.2658014683
 H,0,-0.6938796512,-1.8001645392,-3.0751573756
 O,0,1.7066447992,-1.02693641,-0.01347675
 C,0,0.8863028003,-0.3158909632,-3.1889506268
 C,0,0.2067375117,0.6609738153,-3.9282063031
 H,0,-0.8714645393,0.5915917624,-4.0491761235
 C,0,2.2772186099,-0.2024970991,-3.0542326712
 H,0,2.8133290503,-0.9229251771,-2.4452997871
 C,0,0.8902592177,1.7182586561,-4.5340868923
 H,0,0.3673207567,2.451825171,-5.1403495855
 C,0,2.9747150318,0.8483908801,-3.6484777926
 H,0,4.0530325443,0.9274311101,-3.5306753626
 O,0,2.9374904768,2.8760422481,-4.9984103428
 H,0,3.826607422,2.5882227183,-5.2636586999
 C,0,2.2725852813,1.7953202442,-4.3907418025
 N,0,0.5576533007,0.9639081451,0.0796565634
 H,0,-0.3781195759,1.3907493741,0.0521159878
 C,0,1.3449332036,1.6708085317,1.0841014013
 H,0,1.8788308321,0.9471362528,1.7034282117
 C,0,0.3022332599,2.4380363605,1.9679643567
 C,0,2.3451523969,2.6262559318,0.4163607036
 H,0,2.9036671943,3.1457240828,1.2022223111
 H,0,3.0597588047,2.0279703393,-0.1660691354
 O,0,0.7237075404,2.8052688324,3.0907011471
 C,0,1.6335782032,3.6297481964,-0.5054991615
 H,0,1.1833834127,4.4335609575,0.0881057487
 H,0,0.8073886717,3.1162999059,-1.0112652136
 C,0,2.5542458408,4.201535256,-1.5902934564
 H,0,3.3621145742,4.8016224525,-1.1492259453
 H,0,3.0188827113,3.3653030179,-2.1297456343
 C,0,1.7522898636,5.0416260426,-2.5757007573
 H,0,0.8835280104,4.4931447966,-2.9486529515
 H,0,1.4198891336,5.9914238133,-2.1500630152
 N,0,2.5894288051,5.3593974934,-3.807942766
 H,0,2.0975263882,5.9743172417,-4.4645958015
 H,0,2.8173793764,4.4598356641,-4.3055809613
 H,0,3.465957772,5.8213693605,-3.5439337751
 O,0,-0.8447478286,2.5562865839,1.4602158437
 H,0,0.0294662855,1.4390704796,3.9720445275
 Recover connectivity data from disk.
                           ----------------------------
                           !    Current Parameters    !
                           ! (Angstroms and Degrees)  !
 --------------------------                            --------------------------
 ! Name  Definition              Value                                          !
 --------------------------------------------------------------------------------
 ! R1    R(1,2)                  1.0237                                         !
 ! R2    R(1,3)                  1.0241                                         !
 ! R3    R(1,4)                  1.0567                                         !
 ! R4    R(1,5)                  1.5192                                         !
 ! R5    R(5,6)                  1.0929                                         !
 ! R6    R(5,7)                  1.5465                                         !
 ! R7    R(5,8)                  1.5426                                         !
 ! R8    R(7,11)                 1.2369                                         !
 ! R9    R(7,18)                 1.3385                                         !
 ! R10   R(8,9)                  1.0943                                         !
 ! R11   R(8,10)                 1.0978                                         !
 ! R12   R(8,12)                 1.5364                                         !
 ! R13   R(12,13)                1.0958                                         !
 ! R14   R(12,14)                1.0971                                         !
 ! R15   R(12,15)                1.5304                                         !
 ! R16   R(15,16)                1.2057                                         !
 ! R17   R(15,17)                1.3411                                         !
 ! R18   R(17,62)                1.0049                                         !
 ! R19   R(18,19)                1.0179                                         !
 ! R20   R(18,20)                1.4759                                         !
 ! R21   R(20,21)                1.0918                                         !
 ! R22   R(20,22)                1.5413                                         !
 ! R23   R(20,23)                1.5394                                         !
 ! R24   R(22,26)                1.2367                                         !
 ! R25   R(22,39)                1.3321                                         !
 ! R26   R(23,24)                1.0939                                         !
 ! R27   R(23,25)                1.0953                                         !
 ! R28   R(23,27)                1.5176                                         !
 ! R29   R(27,28)                1.4009                                         !
 ! R30   R(27,30)                1.402                                          !
 ! R31   R(28,29)                1.0872                                         !
 ! R32   R(28,32)                1.3972                                         !
 ! R33   R(30,31)                1.085                                          !
 ! R34   R(30,34)                1.3943                                         !
 ! R35   R(32,33)                1.0859                                         !
 ! R36   R(32,38)                1.3919                                         !
 ! R37   R(34,35)                1.0876                                         !
 ! R38   R(34,38)                1.3931                                         !
 ! R39   R(36,37)                0.9715                                         !
 ! R40   R(36,38)                1.4069                                         !
 ! R41   R(39,40)                1.0289                                         !
 ! R42   R(39,41)                1.4589                                         !
 ! R43   R(41,42)                1.0919                                         !
 ! R44   R(41,43)                1.5675                                         !
 ! R45   R(41,44)                1.536                                          !
 ! R46   R(43,47)                1.2542                                         !
 ! R47   R(43,61)                1.2599                                         !
 ! R48   R(44,45)                1.0952                                         !
 ! R49   R(44,46)                1.099                                          !
 ! R50   R(44,48)                1.5373                                         !
 ! R51   R(48,49)                1.096                                          !
 ! R52   R(48,50)                1.0964                                         !
 ! R53   R(48,51)                1.5334                                         !
 ! R54   R(51,52)                1.0988                                         !
 ! R55   R(51,53)                1.0983                                         !
 ! R56   R(51,54)                1.5231                                         !
 ! R57   R(54,55)                1.093                                          !
 ! R58   R(54,56)                1.0926                                         !
 ! R59   R(54,57)                1.5232                                         !
 ! R60   R(57,58)                1.0253                                         !
 ! R61   R(57,59)                1.053                                          !
 ! R62   R(57,60)                1.0254                                         !
 ! A1    A(2,1,3)              109.0842                                         !
 ! A2    A(2,1,4)              108.6523                                         !
 ! A3    A(2,1,5)              113.2321                                         !
 ! A4    A(3,1,4)              110.629                                          !
 ! A5    A(3,1,5)              112.816                                          !
 ! A6    A(4,1,5)              102.1975                                         !
 ! A7    A(1,5,6)              108.3174                                         !
 ! A8    A(1,5,7)              102.941                                          !
 ! A9    A(1,5,8)              110.2467                                         !
 ! A10   A(6,5,7)              112.7837                                         !
 ! A11   A(6,5,8)              111.3846                                         !
 ! A12   A(7,5,8)              110.8102                                         !
 ! A13   A(5,7,11)             117.6428                                         !
 ! A14   A(5,7,18)             116.4924                                         !
 ! A15   A(11,7,18)            125.6994                                         !
 ! A16   A(5,8,9)              107.8932                                         !
 ! A17   A(5,8,10)             108.4017                                         !
 ! A18   A(5,8,12)             114.0549                                         !
 ! A19   A(9,8,10)             106.2679                                         !
 ! A20   A(9,8,12)             108.9644                                         !
 ! A21   A(10,8,12)            110.9296                                         !
 ! A22   A(8,12,13)            112.8763                                         !
 ! A23   A(8,12,14)            110.782                                          !
 ! A24   A(8,12,15)            114.184                                          !
 ! A25   A(13,12,14)           107.6257                                         !
 ! A26   A(13,12,15)           106.6883                                         !
 ! A27   A(14,12,15)           104.108                                          !
 ! A28   A(12,15,16)           122.527                                          !
 ! A29   A(12,15,17)           110.9265                                         !
 ! A30   A(16,15,17)           126.4903                                         !
 ! A31   A(15,17,62)           109.2237                                         !
 ! A32   A(7,18,19)            118.9239                                         !
 ! A33   A(7,18,20)            121.8907                                         !
 ! A34   A(19,18,20)           112.3446                                         !
 ! A35   A(18,20,21)           107.1524                                         !
 ! A36   A(18,20,22)           103.3808                                         !
 ! A37   A(18,20,23)           113.7466                                         !
 ! A38   A(21,20,22)           112.2428                                         !
 ! A39   A(21,20,23)           110.1886                                         !
 ! A40   A(22,20,23)           109.9885                                         !
 ! A41   A(20,22,26)           118.28                                           !
 ! A42   A(20,22,39)           114.5719                                         !
 ! A43   A(26,22,39)           127.1187                                         !
 ! A44   A(20,23,24)           108.2978                                         !
 ! A45   A(20,23,25)           109.3393                                         !
 ! A46   A(20,23,27)           109.7801                                         !
 ! A47   A(24,23,25)           108.1162                                         !
 ! A48   A(24,23,27)           109.8901                                         !
 ! A49   A(25,23,27)           111.3497                                         !
 ! A50   A(23,27,28)           121.3059                                         !
 ! A51   A(23,27,30)           120.1786                                         !
 ! A52   A(28,27,30)           118.3953                                         !
 ! A53   A(27,28,29)           119.6891                                         !
 ! A54   A(27,28,32)           121.2776                                         !
 ! A55   A(29,28,32)           119.0263                                         !
 ! A56   A(27,30,31)           119.3683                                         !
 ! A57   A(27,30,34)           121.0846                                         !
 ! A58   A(31,30,34)           119.5033                                         !
 ! A59   A(28,32,33)           121.1792                                         !
 ! A60   A(28,32,38)           118.8875                                         !
 ! A61   A(33,32,38)           119.8924                                         !
 ! A62   A(30,34,35)           120.3046                                         !
 ! A63   A(30,34,38)           119.1628                                         !
 ! A64   A(35,34,38)           120.5325                                         !
 ! A65   A(37,36,38)           108.8381                                         !
 ! A66   A(32,38,34)           121.185                                          !
 ! A67   A(32,38,36)           117.8666                                         !
 ! A68   A(34,38,36)           120.9372                                         !
 ! A69   A(22,39,40)           120.9722                                         !
 ! A70   A(22,39,41)           125.2374                                         !
 ! A71   A(40,39,41)           107.9514                                         !
 ! A72   A(39,41,42)           109.4648                                         !
 ! A73   A(39,41,43)           105.4509                                         !
 ! A74   A(39,41,44)           110.7019                                         !
 ! A75   A(42,41,43)           109.2576                                         !
 ! A76   A(42,41,44)           109.9033                                         !
 ! A77   A(43,41,44)           111.9527                                         !
 ! A78   A(41,43,47)           115.1212                                         !
 ! A79   A(41,43,61)           115.1047                                         !
 ! A80   A(47,43,61)           129.7328                                         !
 ! A81   A(41,44,45)           108.3731                                         !
 ! A82   A(41,44,46)           108.3719                                         !
 ! A83   A(41,44,48)           111.4281                                         !
 ! A84   A(45,44,46)           107.8725                                         !
 ! A85   A(45,44,48)           110.9006                                         !
 ! A86   A(46,44,48)           109.7879                                         !
 ! A87   A(44,48,49)           110.1272                                         !
 ! A88   A(44,48,50)           108.6476                                         !
 ! A89   A(44,48,51)           112.9377                                         !
 ! A90   A(49,48,50)           106.4864                                         !
 ! A91   A(49,48,51)           110.8739                                         !
 ! A92   A(50,48,51)           107.5013                                         !
 ! A93   A(48,51,52)           111.1688                                         !
 ! A94   A(48,51,53)           108.5163                                         !
 ! A95   A(48,51,54)           110.318                                          !
 ! A96   A(52,51,53)           107.5751                                         !
 ! A97   A(52,51,54)           110.2182                                         !
 ! A98   A(53,51,54)           108.9617                                         !
 ! A99   A(51,54,55)           111.2522                                         !
 ! A100  A(51,54,56)           112.8063                                         !
 ! A101  A(51,54,57)           110.4306                                         !
 ! A102  A(55,54,56)           109.1071                                         !
 ! A103  A(55,54,57)           105.3956                                         !
 ! A104  A(56,54,57)           107.5173                                         !
 ! A105  A(54,57,58)           112.3054                                         !
 ! A106  A(54,57,59)           108.8484                                         !
 ! A107  A(54,57,60)           110.8242                                         !
 ! A108  A(58,57,59)           108.2723                                         !
 ! A109  A(58,57,60)           107.7462                                         !
 ! A110  A(59,57,60)           108.7543                                         !
 ! D1    D(2,1,5,6)            -21.9825                                         !
 ! D2    D(2,1,5,7)             97.6626                                         !
 ! D3    D(2,1,5,8)           -144.089                                          !
 ! D4    D(3,1,5,6)            102.5308                                         !
 ! D5    D(3,1,5,7)           -137.8241                                         !
 ! D6    D(3,1,5,8)            -19.5757                                         !
 ! D7    D(4,1,5,6)           -138.6539                                         !
 ! D8    D(4,1,5,7)            -19.0089                                         !
 ! D9    D(4,1,5,8)             99.2395                                         !
 ! D10   D(1,5,7,11)            19.0002                                         !
 ! D11   D(1,5,7,18)          -165.4043                                         !
 ! D12   D(6,5,7,11)           135.5053                                         !
 ! D13   D(6,5,7,18)           -48.8992                                         !
 ! D14   D(8,5,7,11)           -98.8522                                         !
 ! D15   D(8,5,7,18)            76.7433                                         !
 ! D16   D(1,5,8,9)           -176.1439                                         !
 ! D17   D(1,5,8,10)            69.1703                                         !
 ! D18   D(1,5,8,12)           -54.9394                                         !
 ! D19   D(6,5,8,9)             63.5789                                         !
 ! D20   D(6,5,8,10)           -51.1069                                         !
 ! D21   D(6,5,8,12)          -175.2166                                         !
 ! D22   D(7,5,8,9)            -62.844                                          !
 ! D23   D(7,5,8,10)          -177.5299                                         !
 ! D24   D(7,5,8,12)            58.3605                                         !
 ! D25   D(5,7,18,19)            0.6673                                         !
 ! D26   D(5,7,18,20)         -148.1365                                         !
 ! D27   D(11,7,18,19)         175.8618                                         !
 ! D28   D(11,7,18,20)          27.058                                          !
 ! D29   D(5,8,12,13)           63.5924                                         !
 ! D30   D(5,8,12,14)          -57.1808                                         !
 ! D31   D(5,8,12,15)         -174.3246                                         !
 ! D32   D(9,8,12,13)         -175.7994                                         !
 ! D33   D(9,8,12,14)           63.4274                                         !
 ! D34   D(9,8,12,15)          -53.7164                                         !
 ! D35   D(10,8,12,13)         -59.1483                                         !
 ! D36   D(10,8,12,14)        -179.9216                                         !
 ! D37   D(10,8,12,15)          62.9347                                         !
 ! D38   D(8,12,15,16)        -142.5203                                         !
 ! D39   D(8,12,15,17)          40.0431                                         !
 ! D40   D(13,12,15,16)        -17.1041                                         !
 ! D41   D(13,12,15,17)        165.4593                                         !
 ! D42   D(14,12,15,16)         96.5548                                         !
 ! D43   D(14,12,15,17)        -80.8818                                         !
 ! D44   D(12,15,17,62)        143.682                                          !
 ! D45   D(16,15,17,62)        -33.6296                                         !
 ! D46   D(7,18,20,21)          -5.033                                          !
 ! D47   D(7,18,20,22)         113.6932                                         !
 ! D48   D(7,18,20,23)        -127.0632                                         !
 ! D49   D(19,18,20,21)       -155.6815                                         !
 ! D50   D(19,18,20,22)        -36.9553                                         !
 ! D51   D(19,18,20,23)         82.2883                                         !
 ! D52   D(18,20,22,26)         63.7048                                         !
 ! D53   D(18,20,22,39)       -114.4641                                         !
 ! D54   D(21,20,22,26)        178.8427                                         !
 ! D55   D(21,20,22,39)          0.6738                                         !
 ! D56   D(23,20,22,26)        -58.0974                                         !
 ! D57   D(23,20,22,39)        123.7337                                         !
 ! D58   D(18,20,23,24)        -50.1374                                         !
 ! D59   D(18,20,23,25)         67.4528                                         !
 ! D60   D(18,20,23,27)       -170.1191                                         !
 ! D61   D(21,20,23,24)       -170.4721                                         !
 ! D62   D(21,20,23,25)        -52.8819                                         !
 ! D63   D(21,20,23,27)         69.5462                                         !
 ! D64   D(22,20,23,24)         65.2704                                         !
 ! D65   D(22,20,23,25)       -177.1393                                         !
 ! D66   D(22,20,23,27)        -54.7113                                         !
 ! D67   D(20,22,39,40)         17.1156                                         !
 ! D68   D(20,22,39,41)        166.8942                                         !
 ! D69   D(26,22,39,40)       -160.862                                          !
 ! D70   D(26,22,39,41)        -11.0834                                         !
 ! D71   D(20,23,27,28)        -81.178                                          !
 ! D72   D(20,23,27,30)         94.7736                                         !
 ! D73   D(24,23,27,28)        159.8148                                         !
 ! D74   D(24,23,27,30)        -24.2336                                         !
 ! D75   D(25,23,27,28)         40.049                                          !
 ! D76   D(25,23,27,30)       -143.9994                                         !
 ! D77   D(23,27,28,29)         -4.203                                          !
 ! D78   D(23,27,28,32)        176.7666                                         !
 ! D79   D(30,27,28,29)        179.7752                                         !
 ! D80   D(30,27,28,32)          0.7448                                         !
 ! D81   D(23,27,30,31)          0.985                                          !
 ! D82   D(23,27,30,34)       -176.599                                          !
 ! D83   D(28,27,30,31)        177.0532                                         !
 ! D84   D(28,27,30,34)         -0.5309                                         !
 ! D85   D(27,28,32,33)        177.4747                                         !
 ! D86   D(27,28,32,38)         -0.1993                                         !
 ! D87   D(29,28,32,33)         -1.562                                          !
 ! D88   D(29,28,32,38)       -179.236                                          !
 ! D89   D(27,30,34,35)        179.6242                                         !
 ! D90   D(27,30,34,38)         -0.2218                                         !
 ! D91   D(31,30,34,35)          2.0434                                         !
 ! D92   D(31,30,34,38)       -177.8027                                         !
 ! D93   D(28,32,38,34)         -0.5839                                         !
 ! D94   D(28,32,38,36)       -179.3751                                         !
 ! D95   D(33,32,38,34)       -178.2885                                         !
 ! D96   D(33,32,38,36)          2.9203                                         !
 ! D97   D(30,34,38,32)          0.7922                                         !
 ! D98   D(30,34,38,36)        179.5463                                         !
 ! D99   D(35,34,38,32)       -179.0535                                         !
 ! D100  D(35,34,38,36)         -0.2994                                         !
 ! D101  D(37,36,38,32)       -148.5163                                         !
 ! D102  D(37,36,38,34)         32.6894                                         !
 ! D103  D(22,39,41,42)        -18.2126                                         !
 ! D104  D(22,39,41,43)       -135.6393                                         !
 ! D105  D(22,39,41,44)        103.0898                                         !
 ! D106  D(40,39,41,42)        134.8087                                         !
 ! D107  D(40,39,41,43)         17.3819                                         !
 ! D108  D(40,39,41,44)       -103.8889                                         !
 ! D109  D(39,41,43,47)        161.2617                                         !
 ! D110  D(39,41,43,61)        -16.6327                                         !
 ! D111  D(42,41,43,47)         43.6951                                         !
 ! D112  D(42,41,43,61)       -134.1992                                         !
 ! D113  D(44,41,43,47)        -78.2847                                         !
 ! D114  D(44,41,43,61)        103.821                                          !
 ! D115  D(39,41,44,45)        179.1894                                         !
 ! D116  D(39,41,44,46)        -63.999                                          !
 ! D117  D(39,41,44,48)         56.9016                                         !
 ! D118  D(42,41,44,45)        -59.7675                                         !
 ! D119  D(42,41,44,46)         57.0441                                         !
 ! D120  D(42,41,44,48)        177.9447                                         !
 ! D121  D(43,41,44,45)         61.8418                                         !
 ! D122  D(43,41,44,46)        178.6534                                         !
 ! D123  D(43,41,44,48)        -60.446                                          !
 ! D124  D(41,44,48,49)         78.621                                          !
 ! D125  D(41,44,48,50)        -37.6532                                         !
 ! D126  D(41,44,48,51)       -156.8264                                         !
 ! D127  D(45,44,48,49)        -42.1981                                         !
 ! D128  D(45,44,48,50)       -158.4723                                         !
 ! D129  D(45,44,48,51)         82.3545                                         !
 ! D130  D(46,44,48,49)       -161.3105                                         !
 ! D131  D(46,44,48,50)         82.4154                                         !
 ! D132  D(46,44,48,51)        -36.7578                                         !
 ! D133  D(44,48,51,52)        -64.8273                                         !
 ! D134  D(44,48,51,53)         53.2835                                         !
 ! D135  D(44,48,51,54)        172.5858                                         !
 ! D136  D(49,48,51,52)         59.3169                                         !
 ! D137  D(49,48,51,53)        177.4276                                         !
 ! D138  D(49,48,51,54)        -63.2701                                         !
 ! D139  D(50,48,51,52)        175.3384                                         !
 ! D140  D(50,48,51,53)        -66.5509                                         !
 ! D141  D(50,48,51,54)         52.7514                                         !
 ! D142  D(48,51,54,55)        -51.1026                                         !
 ! D143  D(48,51,54,56)         71.8911                                         !
 ! D144  D(48,51,54,57)       -167.7725                                         !
 ! D145  D(52,51,54,55)       -174.2453                                         !
 ! D146  D(52,51,54,56)        -51.2516                                         !
 ! D147  D(52,51,54,57)         69.0847                                         !
 ! D148  D(53,51,54,55)         67.929                                          !
 ! D149  D(53,51,54,56)       -169.0773                                         !
 ! D150  D(53,51,54,57)        -48.7409                                         !
 ! D151  D(51,54,57,58)       -176.3694                                         !
 ! D152  D(51,54,57,59)         63.7538                                         !
 ! D153  D(51,54,57,60)        -55.8047                                         !
 ! D154  D(55,54,57,58)         63.3804                                         !
 ! D155  D(55,54,57,59)        -56.4964                                         !
 ! D156  D(55,54,57,60)       -176.0548                                         !
 ! D157  D(56,54,57,58)        -52.9113                                         !
 ! D158  D(56,54,57,59)       -172.7882                                         !
 ! D159  D(56,54,57,60)         67.6534                                         !
 --------------------------------------------------------------------------------
 Symmetry turned off by external request.
 Stoichiometry    C20H31N4O7(1+)
 Framework group  C1[X(C20H31N4O7)]
 Deg. of freedom   180
 Full point group                 C1      NOp   1
                          Input orientation:                          
 ---------------------------------------------------------------------
 Center     Atomic      Atomic             Coordinates (Angstroms)
 Number     Number       Type             X           Y           Z
 ---------------------------------------------------------------------
      1          7           0       -3.890988   -2.610595    1.778802
      2          1           0       -4.268904   -3.529451    1.532110
      3          1           0       -4.228370   -2.348687    2.709531
      4          1           0       -4.210001   -1.908841    1.056078
      5          6           0       -2.378719   -2.532161    1.656740
      6          1           0       -1.976476   -3.546791    1.713220
      7          6           0       -2.176567   -1.884294    0.267163
      8          6           0       -1.799167   -1.634583    2.769455
      9          1           0       -0.720723   -1.548919    2.604769
     10          1           0       -1.923480   -2.150234    3.730589
     11          8           0       -3.133234   -1.275487   -0.226811
     12          6           0       -2.410085   -0.225761    2.819416
     13          1           0       -3.480128   -0.233594    3.055340
     14          1           0       -2.285750    0.286802    1.857365
     15          6           0       -1.744097    0.710922    3.829951
     16          8           0       -2.368337    1.509255    4.483174
     17          8           0       -0.412888    0.548190    3.828891
     18          7           0       -0.945290   -1.958145   -0.252652
     19          1           0       -0.216590   -2.435795    0.273586
     20          6           0       -0.403655   -0.900290   -1.127821
     21          1           0       -1.207585   -0.181970   -1.300100
     22          6           0        0.745441   -0.300915   -0.293687
     23          6           0        0.138039   -1.423485   -2.470391
     24          1           0        0.815037   -2.258048   -2.265801
     25          1           0       -0.693880   -1.800165   -3.075157
     26          8           0        1.706645   -1.026936   -0.013477
     27          6           0        0.886303   -0.315891   -3.188951
     28          6           0        0.206738    0.660974   -3.928206
     29          1           0       -0.871465    0.591592   -4.049176
     30          6           0        2.277219   -0.202497   -3.054233
     31          1           0        2.813329   -0.922925   -2.445300
     32          6           0        0.890259    1.718259   -4.534087
     33          1           0        0.367321    2.451825   -5.140350
     34          6           0        2.974715    0.848391   -3.648478
     35          1           0        4.053033    0.927431   -3.530675
     36          8           0        2.937490    2.876042   -4.998410
     37          1           0        3.826607    2.588223   -5.263659
     38          6           0        2.272585    1.795320   -4.390742
     39          7           0        0.557653    0.963908    0.079657
     40          1           0       -0.378120    1.390749    0.052116
     41          6           0        1.344933    1.670809    1.084101
     42          1           0        1.878831    0.947136    1.703428
     43          6           0        0.302233    2.438036    1.967964
     44          6           0        2.345152    2.626256    0.416361
     45          1           0        2.903667    3.145724    1.202222
     46          1           0        3.059759    2.027970   -0.166069
     47          8           0        0.723708    2.805269    3.090701
     48          6           0        1.633578    3.629748   -0.505499
     49          1           0        1.183383    4.433561    0.088106
     50          1           0        0.807389    3.116300   -1.011265
     51          6           0        2.554246    4.201535   -1.590293
     52          1           0        3.362115    4.801622   -1.149226
     53          1           0        3.018883    3.365303   -2.129746
     54          6           0        1.752290    5.041626   -2.575701
     55          1           0        0.883528    4.493145   -2.948653
     56          1           0        1.419889    5.991424   -2.150063
     57          7           0        2.589429    5.359397   -3.807943
     58          1           0        2.097526    5.974317   -4.464596
     59          1           0        2.817379    4.459836   -4.305581
     60          1           0        3.465958    5.821369   -3.543934
     61          8           0       -0.844748    2.556287    1.460216
     62          1           0        0.029466    1.439070    3.972045
 ---------------------------------------------------------------------
 Rotational constants (GHZ):           0.2158609           0.0960644           0.0750097
 Standard basis: 6-31G(d) (6D, 7F)
   527 basis functions,   992 primitive gaussians,   527 cartesian basis functions
   117 alpha electrons      117 beta electrons
       nuclear repulsion energy      3420.8678874608 Hartrees.
 NAtoms=   62 NActive=   62 NUniq=   62 SFac= 1.00D+00 NAtFMM=   60 NAOKFM=T Big=T
 Integral buffers will be    131072 words long.
 Raffenetti 2 integral format.
 Two-electron integral symmetry is turned off.
 Nuclear repulsion after empirical dispersion term =     3420.7833092980 Hartrees.
 One-electron integrals computed using PRISM.
 NBasis=   527 RedAO= T EigKep=  4.25D-04  NBF=   527
 NBsUse=   527 1.00D-06 EigRej= -1.00D+00 NBFU=   527
 Initial guess from the checkpoint file:  "conf-669.chk"
 B after Tr=     0.000000    0.000000    0.000000
         Rot=    1.000000    0.000000    0.000000    0.000000 Ang=   0.00 deg.
 Requested convergence on RMS density matrix=1.00D-08 within 128 cycles.
 Requested convergence on MAX density matrix=1.00D-06.
 Requested convergence on             energy=1.00D-06.
 No special actions if energy rises.
 SCF Done:  E(RB3LYP) =  -1526.24299652     A.U. after    2 cycles
            NFock=  2  Conv=0.85D-08     -V/T= 2.0093

 **********************************************************************

            Population analysis using the SCF Density.

 **********************************************************************

 Alpha  occ. eigenvalues --  -19.32291 -19.26203 -19.21734 -19.18978 -19.17609
 Alpha  occ. eigenvalues --  -19.12844 -19.11747 -14.59750 -14.59415 -14.49038
 Alpha  occ. eigenvalues --  -14.42050 -10.42872 -10.39833 -10.38202 -10.36523
 Alpha  occ. eigenvalues --  -10.36441 -10.36116 -10.33424 -10.31773 -10.30988
 Alpha  occ. eigenvalues --  -10.30516 -10.30173 -10.30149 -10.29959 -10.29887
 Alpha  occ. eigenvalues --  -10.29381 -10.29054 -10.28275 -10.27069 -10.26654
 Alpha  occ. eigenvalues --  -10.25287  -1.18990  -1.18577  -1.14129  -1.13323
 Alpha  occ. eigenvalues --   -1.13241  -1.10927  -1.06016  -1.05336  -1.04880
 Alpha  occ. eigenvalues --   -0.99268  -0.96800  -0.96436  -0.92836  -0.91945
 Alpha  occ. eigenvalues --   -0.89467  -0.85734  -0.85507  -0.84791  -0.82825
 Alpha  occ. eigenvalues --   -0.79334  -0.76689  -0.75494  -0.74305  -0.73584
 Alpha  occ. eigenvalues --   -0.73201  -0.72679  -0.71921  -0.71141  -0.70480
 Alpha  occ. eigenvalues --   -0.69695  -0.68108  -0.65940  -0.65455  -0.65306
 Alpha  occ. eigenvalues --   -0.63845  -0.62120  -0.61562  -0.60726  -0.59909
 Alpha  occ. eigenvalues --   -0.58916  -0.58640  -0.57327  -0.56938  -0.56443
 Alpha  occ. eigenvalues --   -0.55112  -0.54944  -0.54209  -0.53488  -0.53365
 Alpha  occ. eigenvalues --   -0.53169  -0.52966  -0.52243  -0.51962  -0.51490
 Alpha  occ. eigenvalues --   -0.50723  -0.50238  -0.49740  -0.49244  -0.48852
 Alpha  occ. eigenvalues --   -0.48304  -0.47395  -0.47029  -0.46274  -0.45966
 Alpha  occ. eigenvalues --   -0.45309  -0.45004  -0.44730  -0.44574  -0.43955
 Alpha  occ. eigenvalues --   -0.43180  -0.42873  -0.41571  -0.41272  -0.40879
 Alpha  occ. eigenvalues --   -0.40387  -0.38945  -0.38858  -0.35966  -0.34868
 Alpha  occ. eigenvalues --   -0.34087  -0.33389  -0.32660  -0.31238  -0.28336
 Alpha  occ. eigenvalues --   -0.27251  -0.25736
 Alpha virt. eigenvalues --   -0.12136  -0.11723  -0.10959  -0.10560  -0.10220
 Alpha virt. eigenvalues --   -0.06120  -0.05764  -0.05188  -0.05020  -0.03565
 Alpha virt. eigenvalues --   -0.03439  -0.02782  -0.01186  -0.00568  -0.00407
 Alpha virt. eigenvalues --   -0.00023   0.00686   0.00713   0.01456   0.02386
 Alpha virt. eigenvalues --    0.02642   0.03361   0.03830   0.05010   0.05158
 Alpha virt. eigenvalues --    0.05694   0.06347   0.06644   0.06799   0.06922
 Alpha virt. eigenvalues --    0.07842   0.08067   0.08372   0.08942   0.09334
 Alpha virt. eigenvalues --    0.09956   0.10302   0.11387   0.11614   0.11704
 Alpha virt. eigenvalues --    0.12149   0.12522   0.12904   0.13540   0.13736
 Alpha virt. eigenvalues --    0.14626   0.14989   0.15387   0.16076   0.16730
 Alpha virt. eigenvalues --    0.17324   0.18265   0.19411   0.20778   0.21339
 Alpha virt. eigenvalues --    0.22673   0.23264   0.23744   0.24356   0.25742
 Alpha virt. eigenvalues --    0.26613   0.27333   0.29678   0.31371   0.33375
 Alpha virt. eigenvalues --    0.34551   0.35268   0.37482   0.38210   0.39091
 Alpha virt. eigenvalues --    0.39609   0.39962   0.40394   0.41009   0.41382
 Alpha virt. eigenvalues --    0.42242   0.42536   0.42832   0.43120   0.43523
 Alpha virt. eigenvalues --    0.44728   0.46242   0.46572   0.47594   0.47727
 Alpha virt. eigenvalues --    0.48576   0.49117   0.49245   0.49810   0.50084
 Alpha virt. eigenvalues --    0.50755   0.51429   0.51765   0.52095   0.53134
 Alpha virt. eigenvalues --    0.53649   0.54160   0.54282   0.54621   0.54763
 Alpha virt. eigenvalues --    0.55287   0.55623   0.56537   0.57286   0.57742
 Alpha virt. eigenvalues --    0.58477   0.58741   0.59151   0.60390   0.60602
 Alpha virt. eigenvalues --    0.61667   0.62168   0.62676   0.63414   0.64042
 Alpha virt. eigenvalues --    0.64711   0.65127   0.65672   0.66157   0.66367
 Alpha virt. eigenvalues --    0.67503   0.67831   0.68361   0.68782   0.69446
 Alpha virt. eigenvalues --    0.70111   0.70536   0.71249   0.71674   0.72100
 Alpha virt. eigenvalues --    0.72985   0.73166   0.73750   0.73917   0.74611
 Alpha virt. eigenvalues --    0.74868   0.75620   0.75938   0.76424   0.77010
 Alpha virt. eigenvalues --    0.77130   0.77983   0.78138   0.78688   0.79544
 Alpha virt. eigenvalues --    0.79958   0.80037   0.80970   0.81259   0.81677
 Alpha virt. eigenvalues --    0.81811   0.82850   0.83394   0.84257   0.84891
 Alpha virt. eigenvalues --    0.85407   0.85864   0.86262   0.86590   0.87192
 Alpha virt. eigenvalues --    0.87907   0.88456   0.88827   0.89377   0.89927
 Alpha virt. eigenvalues --    0.90382   0.90732   0.91817   0.92250   0.93469
 Alpha virt. eigenvalues --    0.94545   0.95607   0.96897   0.97380   0.97685
 Alpha virt. eigenvalues --    0.98557   0.99540   1.00506   1.01982   1.02746
 Alpha virt. eigenvalues --    1.03048   1.04455   1.04514   1.04922   1.05518
 Alpha virt. eigenvalues --    1.06735   1.07345   1.07581   1.08083   1.08923
 Alpha virt. eigenvalues --    1.09824   1.10805   1.12098   1.13420   1.14877
 Alpha virt. eigenvalues --    1.14981   1.16237   1.17077   1.19353   1.20078
 Alpha virt. eigenvalues --    1.20447   1.22206   1.24050   1.26324   1.26825
 Alpha virt. eigenvalues --    1.28171   1.28799   1.29657   1.30746   1.31621
 Alpha virt. eigenvalues --    1.32448   1.33201   1.34402   1.35295   1.36765
 Alpha virt. eigenvalues --    1.37168   1.37861   1.39056   1.39398   1.41540
 Alpha virt. eigenvalues --    1.41854   1.42653   1.43433   1.43564   1.45505
 Alpha virt. eigenvalues --    1.46075   1.46724   1.47525   1.48556   1.50591
 Alpha virt. eigenvalues --    1.51419   1.53553   1.54420   1.56194   1.58119
 Alpha virt. eigenvalues --    1.59836   1.60611   1.61708   1.62569   1.63291
 Alpha virt. eigenvalues --    1.64534   1.65044   1.66649   1.66942   1.68022
 Alpha virt. eigenvalues --    1.69034   1.69520   1.70052   1.70277   1.70973
 Alpha virt. eigenvalues --    1.71469   1.72657   1.72912   1.73882   1.74999
 Alpha virt. eigenvalues --    1.75290   1.75590   1.76604   1.76992   1.77428
 Alpha virt. eigenvalues --    1.78113   1.78895   1.80122   1.80485   1.81340
 Alpha virt. eigenvalues --    1.81906   1.82066   1.82632   1.83397   1.84316
 Alpha virt. eigenvalues --    1.84574   1.84701   1.86175   1.86746   1.87279
 Alpha virt. eigenvalues --    1.87585   1.88063   1.88575   1.89407   1.89723
 Alpha virt. eigenvalues --    1.90728   1.91317   1.92158   1.93016   1.93667
 Alpha virt. eigenvalues --    1.94100   1.95146   1.95552   1.96563   1.97031
 Alpha virt. eigenvalues --    1.98178   1.98885   1.99627   2.00094   2.01430
 Alpha virt. eigenvalues --    2.02712   2.03126   2.04199   2.04507   2.05251
 Alpha virt. eigenvalues --    2.06840   2.08424   2.08697   2.10317   2.10813
 Alpha virt. eigenvalues --    2.12504   2.13732   2.14438   2.15421   2.16311
 Alpha virt. eigenvalues --    2.17054   2.17784   2.19108   2.19824   2.20780
 Alpha virt. eigenvalues --    2.21644   2.22042   2.22847   2.25342   2.26492
 Alpha virt. eigenvalues --    2.26849   2.26938   2.29171   2.30497   2.30922
 Alpha virt. eigenvalues --    2.32311   2.32985   2.33085   2.33824   2.34599
 Alpha virt. eigenvalues --    2.36212   2.36847   2.39675   2.41183   2.42002
 Alpha virt. eigenvalues --    2.43230   2.44376   2.45834   2.47550   2.48747
 Alpha virt. eigenvalues --    2.49739   2.50267   2.51750   2.52262   2.53430
 Alpha virt. eigenvalues --    2.55057   2.55567   2.56924   2.57451   2.58115
 Alpha virt. eigenvalues --    2.63035   2.64198   2.65902   2.66871   2.67283
 Alpha virt. eigenvalues --    2.68561   2.71128   2.72775   2.74095   2.75089
 Alpha virt. eigenvalues --    2.76309   2.78415   2.79485   2.81010   2.81859
 Alpha virt. eigenvalues --    2.83256   2.86940   2.88025   2.89652   2.93401
 Alpha virt. eigenvalues --    2.94030   2.96047   2.99261   2.99610   3.01149
 Alpha virt. eigenvalues --    3.04966   3.08411   3.16738   3.30919   3.64327
 Alpha virt. eigenvalues --    3.67278   3.84291   3.88968   3.94297   3.95819
 Alpha virt. eigenvalues --    4.00121   4.00770   4.02583   4.06519   4.07945
 Alpha virt. eigenvalues --    4.10162   4.13004   4.17057   4.17573   4.20558
 Alpha virt. eigenvalues --    4.22647   4.25919   4.28254   4.31734   4.35609
 Alpha virt. eigenvalues --    4.36080   4.37206   4.39355   4.43695   4.44883
 Alpha virt. eigenvalues --    4.49306   4.53171   4.60182   4.65988   4.67710
          Condensed to atoms (all electrons):
 Mulliken charges:
               1
     1  N   -0.749802
     2  H    0.415518
     3  H    0.420127
     4  H    0.434789
     5  C   -0.125662
     6  H    0.210108
     7  C    0.645298
     8  C   -0.307689
     9  H    0.224917
    10  H    0.182340
    11  O   -0.527735
    12  C   -0.393257
    13  H    0.142613
    14  H    0.219397
    15  C    0.617953
    16  O   -0.437186
    17  O   -0.615650
    18  N   -0.585955
    19  H    0.361218
    20  C   -0.059391
    21  H    0.185615
    22  C    0.603783
    23  C   -0.348540
    24  H    0.175924
    25  H    0.168699
    26  O   -0.561327
    27  C    0.149836
    28  C   -0.187306
    29  H    0.154270
    30  C   -0.170373
    31  H    0.185179
    32  C   -0.163127
    33  H    0.147483
    34  C   -0.177505
    35  H    0.148889
    36  O   -0.706445
    37  H    0.436512
    38  C    0.324945
    39  N   -0.593449
    40  H    0.354134
    41  C   -0.078266
    42  H    0.173221
    43  C    0.612523
    44  C   -0.263407
    45  H    0.173995
    46  H    0.132737
    47  O   -0.614740
    48  C   -0.274439
    49  H    0.181542
    50  H    0.151571
    51  C   -0.296726
    52  H    0.163694
    53  H    0.157716
    54  C   -0.199170
    55  H    0.213213
    56  H    0.219372
    57  N   -0.767439
    58  H    0.410692
    59  H    0.446453
    60  H    0.406337
    61  O   -0.602096
    62  H    0.454065
 Sum of Mulliken charges =   1.00000
 Mulliken charges with hydrogens summed into heavy atoms:
               1
     1  N    0.520633
     5  C    0.084446
     7  C    0.645298
     8  C    0.099569
    11  O   -0.527735
    12  C   -0.031247
    15  C    0.617953
    16  O   -0.437186
    17  O   -0.161585
    18  N   -0.224737
    20  C    0.126224
    22  C    0.603783
    23  C   -0.003916
    26  O   -0.561327
    27  C    0.149836
    28  C   -0.033035
    30  C    0.014806
    32  C   -0.015644
    34  C   -0.028615
    36  O   -0.269933
    38  C    0.324945
    39  N   -0.239315
    41  C    0.094955
    43  C    0.612523
    44  C    0.043324
    47  O   -0.614740
    48  C    0.058674
    51  C    0.024684
    54  C    0.233415
    57  N    0.496043
    61  O   -0.602096
 Electronic spatial extent (au):  <R**2>=          15007.5381
 Charge=              1.0000 electrons
 Dipole moment (field-independent basis, Debye):
    X=              1.2345    Y=              2.5344    Z=            -17.4748  Tot=             17.7008
 Quadrupole moment (field-independent basis, Debye-Ang):
   XX=           -105.0169   YY=            -61.5645   ZZ=           -133.0641
   XY=             96.3965   XZ=            -62.3685   YZ=           -115.1034
 Traceless Quadrupole moment (field-independent basis, Debye-Ang):
   XX=             -5.1350   YY=             38.3173   ZZ=            -33.1823
   XY=             96.3965   XZ=            -62.3685   YZ=           -115.1034
 Octapole moment (field-independent basis, Debye-Ang**2):
  XXX=           -150.6682  YYY=            -20.9249  ZZZ=           -150.6883  XYY=            141.8154
  XXY=           -142.9525  XXZ=            -21.0196  XZZ=            127.4223  YZZ=             12.9082
  YYZ=           -331.0496  XYZ=           -100.9085
 Hexadecapole moment (field-independent basis, Debye-Ang**3):
 XXXX=          -3020.1784 YYYY=          -2617.7789 ZZZZ=          -7656.3839 XXXY=           -433.1271
 XXXZ=            844.4143 YYYX=            286.7432 YYYZ=          -1500.0080 ZZZX=           1159.3157
 ZZZY=           -576.9879 XXYY=           -581.4206 XXZZ=          -1300.2848 YYZZ=           -985.2824
 XXYZ=           -641.9781 YYXZ=           -558.3954 ZZXY=            492.5988
 N-N= 3.420783309298D+03 E-N=-1.037902033391D+04  KE= 1.512244655517D+03
 Unable to Open any file for archive entry.
 1\1\GINC-NAL-000\SP\RB3LYP\6-31G(d)\C20H31N4O7(1+)\KENGMITH\01-Jun-202
 2\0\\# B3LYP/6-31G* empiricaldispersion=gd3 guess=read geom=check nosy
 mm integral(ultrafinegrid)\\Candidate Structure: Conf:669 Charge calc 
 in gas phase\\1,1\N,0,-3.8909877958,-2.6105954894,1.778802399\H,0,-4.2
 689040603,-3.5294510541,1.5321103847\H,0,-4.2283702278,-2.3486869106,2
 .7095312796\H,0,-4.2100007293,-1.9088409012,1.0560784122\C,0,-2.378719
 0345,-2.5321606143,1.6567397531\H,0,-1.9764759823,-3.5467907296,1.7132
 200634\C,0,-2.1765666756,-1.8842936411,0.2671630984\C,0,-1.7991674602,
 -1.6345828708,2.7694545707\H,0,-0.7207229833,-1.5489194058,2.604768841
 3\H,0,-1.9234798419,-2.1502344343,3.7305890983\O,0,-3.1332340518,-1.27
 54870061,-0.2268113213\C,0,-2.4100849268,-0.2257613678,2.8194162533\H,
 0,-3.4801278668,-0.2335937408,3.0553396398\H,0,-2.2857499416,0.2868023
 585,1.8573646516\C,0,-1.7440967661,0.7109223536,3.8299513148\O,0,-2.36
 83370885,1.5092552389,4.4831740391\O,0,-0.4128884665,0.5481904047,3.82
 88912254\N,0,-0.9452895992,-1.9581446319,-0.2526515231\H,0,-0.21658955
 19,-2.4357948395,0.2735863861\C,0,-0.4036553498,-0.9002896851,-1.12782
 14868\H,0,-1.2075845721,-0.1819697793,-1.3001000834\C,0,0.7454413488,-
 0.3009150349,-0.293686909\C,0,0.1380390796,-1.4234851604,-2.4703914819
 \H,0,0.8150372353,-2.2580482083,-2.2658014683\H,0,-0.6938796512,-1.800
 1645392,-3.0751573756\O,0,1.7066447992,-1.02693641,-0.01347675\C,0,0.8
 863028003,-0.3158909632,-3.1889506268\C,0,0.2067375117,0.6609738153,-3
 .9282063031\H,0,-0.8714645393,0.5915917624,-4.0491761235\C,0,2.2772186
 099,-0.2024970991,-3.0542326712\H,0,2.8133290503,-0.9229251771,-2.4452
 997871\C,0,0.8902592177,1.7182586561,-4.5340868923\H,0,0.3673207567,2.
 451825171,-5.1403495855\C,0,2.9747150318,0.8483908801,-3.6484777926\H,
 0,4.0530325443,0.9274311101,-3.5306753626\O,0,2.9374904768,2.876042248
 1,-4.9984103428\H,0,3.826607422,2.5882227183,-5.2636586999\C,0,2.27258
 52813,1.7953202442,-4.3907418025\N,0,0.5576533007,0.9639081451,0.07965
 65634\H,0,-0.3781195759,1.3907493741,0.0521159878\C,0,1.3449332036,1.6
 708085317,1.0841014013\H,0,1.8788308321,0.9471362528,1.7034282117\C,0,
 0.3022332599,2.4380363605,1.9679643567\C,0,2.3451523969,2.6262559318,0
 .4163607036\H,0,2.9036671943,3.1457240828,1.2022223111\H,0,3.059758804
 7,2.0279703393,-0.1660691354\O,0,0.7237075404,2.8052688324,3.090701147
 1\C,0,1.6335782032,3.6297481964,-0.5054991615\H,0,1.1833834127,4.43356
 09575,0.0881057487\H,0,0.8073886717,3.1162999059,-1.0112652136\C,0,2.5
 542458408,4.201535256,-1.5902934564\H,0,3.3621145742,4.8016224525,-1.1
 492259453\H,0,3.0188827113,3.3653030179,-2.1297456343\C,0,1.7522898636
 ,5.0416260426,-2.5757007573\H,0,0.8835280104,4.4931447966,-2.948652951
 5\H,0,1.4198891336,5.9914238133,-2.1500630152\N,0,2.5894288051,5.35939
 74934,-3.807942766\H,0,2.0975263882,5.9743172417,-4.4645958015\H,0,2.8
 173793764,4.4598356641,-4.3055809613\H,0,3.465957772,5.8213693605,-3.5
 439337751\O,0,-0.8447478286,2.5562865839,1.4602158437\H,0,0.0294662855
 ,1.4390704796,3.9720445275\\Version=ES64L-G16RevC.01\HF=-1526.2429965\
 RMSD=8.462e-09\Dipole=0.1169323,-0.6686052,-6.257627\Quadrupole=-3.817
 7739,28.4879992,-24.6702253,71.6684681,-46.3694866,-85.5765508\PG=C01 
 [X(C20H31N4O7)]\\@
 The archive entry for this job was punched.


 K N O W I N G  IS A BARRIER WHICH PREVENTS LEARNING

                     -- TEACHING OF THE BENE GESSERIT
 Job cpu time:       0 days  0 hours  1 minutes 39.6 seconds.
 Elapsed time:       0 days  0 hours  0 minutes 25.3 seconds.
 File lengths (MBytes):  RWF=    264 Int=      0 D2E=      0 Chk=     40 Scr=     16
 Normal termination of Gaussian 16 at Wed Jun  1 23:31:28 2022.
