 Entering Gaussian System, Link 0=/opt/software/Gaussian/g16-AVX2-C.01/g16/g16
 Input=charge-conf-217.com
 Output=charge-conf-217.log
 Initial command:
 /opt/software/Gaussian/g16-AVX2-C.01/g16/l1.exe "/mnt/gs18/scratch/users/kengmith/Gau-30966.inp" -scrdir="/mnt/gs18/scratch/users/kengmith/"
 Entering Link 1 = /opt/software/Gaussian/g16-AVX2-C.01/g16/l1.exe PID=     30977.
  
 Copyright (c) 1988-2019, Gaussian, Inc.  All Rights Reserved.
  
 This is part of the Gaussian(R) 16 program.  It is based on
 the Gaussian(R) 09 system (copyright 2009, Gaussian, Inc.),
 the Gaussian(R) 03 system (copyright 2003, Gaussian, Inc.),
 the Gaussian(R) 98 system (copyright 1998, Gaussian, Inc.),
 the Gaussian(R) 94 system (copyright 1995, Gaussian, Inc.),
 the Gaussian 92(TM) system (copyright 1992, Gaussian, Inc.),
 the Gaussian 90(TM) system (copyright 1990, Gaussian, Inc.),
 the Gaussian 88(TM) system (copyright 1988, Gaussian, Inc.),
 the Gaussian 86(TM) system (copyright 1986, Carnegie Mellon
 University), and the Gaussian 82(TM) system (copyright 1983,
 Carnegie Mellon University). Gaussian is a federally registered
 trademark of Gaussian, Inc.
  
 This software contains proprietary and confidential information,
 including trade secrets, belonging to Gaussian, Inc.
  
 This software is provided under written license and may be
 used, copied, transmitted, or stored only in accord with that
 written license.
  
 The following legend is applicable only to US Government
 contracts under FAR:
  
                    RESTRICTED RIGHTS LEGEND
  
 Use, reproduction and disclosure by the US Government is
 subject to restrictions as set forth in subparagraphs (a)
 and (c) of the Commercial Computer Software - Restricted
 Rights clause in FAR 52.227-19.
  
 Gaussian, Inc.
 340 Quinnipiac St., Bldg. 40, Wallingford CT 06492
  
  
 ---------------------------------------------------------------
 Warning -- This program may not be used in any manner that
 competes with the business of Gaussian, Inc. or will provide
 assistance to any competitor of Gaussian, Inc.  The licensee
 of this program is prohibited from giving any competitor of
 Gaussian, Inc. access to this program.  By using this program,
 the user acknowledges that Gaussian, Inc. is engaged in the
 business of creating and licensing software in the field of
 computational chemistry and represents and warrants to the
 licensee that it is not a competitor of Gaussian, Inc. and that
 it will not use this program in any manner prohibited above.
 ---------------------------------------------------------------
  

 Cite this work as:
 Gaussian 16, Revision C.01,
 M. J. Frisch, G. W. Trucks, H. B. Schlegel, G. E. Scuseria, 
 M. A. Robb, J. R. Cheeseman, G. Scalmani, V. Barone, 
 G. A. Petersson, H. Nakatsuji, X. Li, M. Caricato, A. V. Marenich, 
 J. Bloino, B. G. Janesko, R. Gomperts, B. Mennucci, H. P. Hratchian, 
 J. V. Ortiz, A. F. Izmaylov, J. L. Sonnenberg, D. Williams-Young, 
 F. Ding, F. Lipparini, F. Egidi, J. Goings, B. Peng, A. Petrone, 
 T. Henderson, D. Ranasinghe, V. G. Zakrzewski, J. Gao, N. Rega, 
 G. Zheng, W. Liang, M. Hada, M. Ehara, K. Toyota, R. Fukuda, 
 J. Hasegawa, M. Ishida, T. Nakajima, Y. Honda, O. Kitao, H. Nakai, 
 T. Vreven, K. Throssell, J. A. Montgomery, Jr., J. E. Peralta, 
 F. Ogliaro, M. J. Bearpark, J. J. Heyd, E. N. Brothers, K. N. Kudin, 
 V. N. Staroverov, T. A. Keith, R. Kobayashi, J. Normand, 
 K. Raghavachari, A. P. Rendell, J. C. Burant, S. S. Iyengar, 
 J. Tomasi, M. Cossi, J. M. Millam, M. Klene, C. Adamo, R. Cammi, 
 J. W. Ochterski, R. L. Martin, K. Morokuma, O. Farkas, 
 J. B. Foresman, and D. J. Fox, Gaussian, Inc., Wallingford CT, 2019.
 
 ******************************************
 Gaussian 16:  ES64L-G16RevC.01  3-Jul-2019
                11-Jul-2022 
 ******************************************
 %mem=8gb
 %nproc=4
 Will use up to    4 processors via shared memory.
 %chk=conf-217.chk
 -------------------------------------------------------------------
 # B3LYP/6-31G* guess=read geom=check nosymm integral(ultrafinegrid)
 -------------------------------------------------------------------
 1/29=2,38=1,172=1/1;
 2/12=2,15=1,40=1/2;
 3/5=1,6=6,7=1,11=2,14=-4,25=1,30=1,74=-5,75=-5,116=-2/1,2,3;
 4/5=1/1;
 5/5=2,38=6/2;
 6/7=2,8=2,9=2,10=2,28=1/1;
 99/5=1,9=1/99;
 ------------------------------------------------------
 Candidate Structure: Conf:217 Charge calc in gas phase
 ------------------------------------------------------
 Structure from the checkpoint file:  "conf-217.chk"
 Charge =  1 Multiplicity = 1
 Redundant internal coordinates found in file.  (old form).
 N,0,-6.8214370927,0.1426737618,-10.2396417192
 H,0,-6.0357725394,-0.4227991129,-9.7840946093
 H,0,-6.4746398006,0.6354366658,-11.0692143289
 H,0,-7.5442306838,-0.5289468025,-10.5302280265
 C,0,-7.4375896105,1.0785647951,-9.2016056453
 H,0,-6.6775945635,1.8239316719,-8.9544494253
 C,0,-7.6832275187,0.0836058301,-8.0496143901
 C,0,-8.7060184379,1.7292008965,-9.7349423004
 H,0,-9.1019390039,2.4131144816,-8.9787613958
 H,0,-9.4692754086,0.9704889198,-9.9365643882
 H,0,-8.513473244,2.3085260491,-10.64538661
 O,0,-8.5118915514,-0.8051856879,-8.230405784
 N,0,-6.8419262946,0.1845261157,-7.0100801441
 H,0,-6.120132696,0.9046198725,-6.9536031073
 C,0,-6.5738503717,-0.9339873332,-6.1219122934
 H,0,-7.5082693585,-1.2879319321,-5.6757418579
 C,0,-5.59049649,-0.4006588079,-5.0586707245
 C,0,-5.9411190701,-2.1167032077,-6.9302065723
 H,0,-6.7058057236,-2.4972425396,-7.6121287394
 H,0,-5.6687451848,-2.9254945795,-6.244499184
 O,0,-4.9462418974,0.6283491687,-5.3110052666
 C,0,-4.7315327901,-1.6847883945,-7.7557558403
 N,0,-3.5237544926,-1.913180521,-7.219925222
 H,0,-2.6993889664,-1.5610820313,-7.6956484972
 H,0,-3.4031773466,-2.2468101213,-6.2711589153
 O,0,-4.8410647659,-1.1463716868,-8.8803793861
 N,0,-5.459280784,-1.1379605069,-3.9501327885
 H,0,-5.9559170291,-2.0201624904,-3.8689582217
 C,0,-4.4609364711,-0.8616393186,-2.8993559159
 H,0,-4.3802434202,0.2272915493,-2.8231106628
 C,0,-3.0755837283,-1.4176323521,-3.3206058879
 C,0,-4.9155435367,-1.4494932474,-1.5630449832
 H,0,-5.1002219306,-2.5265754755,-1.6852489049
 H,0,-4.0732834018,-1.3649218692,-0.8737071065
 O,0,-2.6703571622,-2.5186656706,-2.9546749378
 C,0,-6.1177292663,-0.7702445547,-0.8991203227
 H,0,-7.043969665,-0.9383398769,-1.4654324712
 H,0,-5.9296902085,0.3099509753,-0.8220203272
 C,0,-6.2440649641,-1.3880052542,0.5434551256
 O,0,-5.4575693212,-0.9053198073,1.4071188755
 O,0,-7.0496220861,-2.3416165078,0.6507938122
 N,0,-2.328158851,-0.5869176225,-4.1235265487
 H,0,-2.7108242732,0.3355129681,-4.3071178095
 C,0,-0.8608074825,-0.7363904612,-4.2332715333
 H,0,-0.67955157,-1.8142168208,-4.2454417733
 C,0,-0.1884302183,-0.1248568374,-2.9717726973
 C,0,-0.3605627771,-0.0750581099,-5.5251253925
 H,0,-0.6435753747,0.9863211456,-5.5023912774
 H,0,-0.9055548391,-0.5360788483,-6.3660062136
 O,0,0.4158021091,0.9464451711,-3.0216195159
 C,0,1.1577016829,-0.1659950169,-5.7971522559
 H,0,1.6588915809,0.3353299504,-4.9629428721
 C,0,1.6659668616,-1.615671676,-5.8773175166
 H,0,1.2295784751,-2.1457054944,-6.7370241333
 H,0,1.4378789798,-2.1858078601,-4.9697595265
 H,0,2.7547060445,-1.6368547169,-5.9982808365
 C,0,1.5020800405,0.6148280879,-7.0765018431
 H,0,0.9744019338,0.2049018469,-7.9504124446
 H,0,1.2309184344,1.6734244672,-6.9824536733
 H,0,2.5771025351,0.5652435188,-7.2918864564
 N,0,-0.3983200467,-0.8051612537,-1.8140301799
 H,0,-0.7879781316,-1.741210573,-1.8598477448
 C,0,0.2982457526,-0.397746634,-0.5989792712
 H,0,0.1965598137,0.6873968393,-0.5142637279
 C,0,1.7847660967,-0.7805952239,-0.7331974192
 C,0,-0.2993948126,-1.0784334435,0.6546249418
 H,0,-0.0438141682,-2.1482918898,0.6168750492
 H,0,0.2172464198,-0.6631072596,1.5327672828
 O,0,2.1233891185,-1.8434649532,-1.2424821513
 C,0,-1.8248519839,-0.9089953818,0.8418449845
 H,0,-2.3170387014,-1.4230158495,0.0049068637
 C,0,-2.2955076324,-1.6013816587,2.1310622976
 H,0,-1.8391919436,-1.1345765439,3.0162713768
 H,0,-2.0327345105,-2.6682943417,2.1402017628
 H,0,-3.3828684536,-1.5059935733,2.2192288547
 C,0,-2.2853871344,0.5590287279,0.843789888
 H,0,-1.813289617,1.1102949982,1.6714834189
 H,0,-2.023900157,1.0764471363,-0.0898161058
 H,0,-3.3769851078,0.6007642635,0.9719062453
 N,0,2.6733978617,0.1209845062,-0.2240164826
 H,0,2.3367194296,0.9452346457,0.2627475984
 C,0,4.0771439235,-0.2040896563,-0.0082825882
 H,0,4.1665833221,-1.2922628672,-0.0917391383
 C,0,4.3962321976,0.2481359975,1.4229850276
 C,0,5.0264211117,0.4612941092,-1.0548174287
 H,0,4.8505006336,1.5451783103,-0.9886115617
 O,0,3.9143718386,1.3014008868,1.8756217513
 C,0,4.6687157409,0.0388371635,-2.5022687641
 H,0,3.6230353359,0.30855026,-2.6939847766
 H,0,5.2739105036,0.6673576415,-3.1723688615
 C,0,6.509051443,0.1953210494,-0.7297674071
 H,0,6.7136407358,-0.8697226421,-0.5643313945
 H,0,6.8402157654,0.7377073023,0.1623476091
 H,0,7.1417509201,0.5191996451,-1.5644019366
 C,0,4.8943103177,-1.4414899939,-2.8542053297
 H,0,4.5963008793,-1.6285392105,-3.8942569833
 H,0,4.28436483,-2.0987333237,-2.2292619994
 H,0,5.9482266969,-1.7327246752,-2.7615460298
 N,0,5.2006382798,-0.5535402013,2.1593200094
 H,0,5.7411341062,-1.3122618892,1.7424581213
 C,0,5.5876577223,-0.2024267437,3.5267427804
 H,0,4.7102055851,0.2698958554,3.9826394412
 C,0,6.736593767,0.8325725325,3.5683172606
 C,0,5.9440255752,-1.4786049707,4.3024435128
 H,0,5.073207996,-2.1456034385,4.2573162323
 H,0,6.1173927345,-1.2340885536,5.355447374
 O,0,7.8914538515,0.505819571,3.8754761291
 C,0,7.1138057887,-2.2552617574,3.6892627731
 N,0,8.0260689372,-2.7635111734,4.5612506866
 H,0,8.0660954287,-2.4580108595,5.5217908677
 H,0,8.8296992166,-3.2409315917,4.1728304607
 O,0,7.1773800524,-2.4827451917,2.4808681844
 N,0,6.3563833607,2.0918018901,3.2558232053
 H,0,5.3993739469,2.2068933058,2.9169036458
 C,0,7.3252482895,3.1871444857,3.0850952048
 H,0,8.209932232,2.7596606099,2.594795852
 C,0,7.7366575673,3.7001446569,4.4863938031
 C,0,6.7731803594,4.3395939594,2.2185881931
 H,0,5.9432774136,4.7956146765,2.7755116494
 O,0,7.2057113715,4.6538426661,5.0446856741
 C,0,7.8639140221,5.4075349315,2.0203019603
 H,0,8.7188937488,4.9976714028,1.4643335316
 H,0,7.4650779443,6.2466891314,1.439929188
 H,0,8.228127562,5.8023205386,2.9729753338
 C,0,6.2567370208,3.8494936915,0.8533901794
 H,0,7.043381879,3.3218633473,0.2973183942
 H,0,5.9443672287,4.7085105197,0.2481405214
 H,0,5.394701192,3.1808007348,0.936229423
 N,0,8.7714296579,3.0121311396,5.0585291437
 H,0,8.9655235589,2.0863100188,4.6771392252
 C,0,9.1511846106,3.3267339603,6.4207344726
 H,0,8.2982884599,3.229149789,7.1051867942
 C,0,9.6026460784,4.783635535,6.5858467727
 C,0,10.289577753,2.3863939389,6.8748931615
 H,0,11.1718367932,2.5660253235,6.2453897634
 H,0,9.9727489601,1.3492673507,6.6965546014
 O,0,9.4270655842,5.4222260593,7.6010996855
 C,0,10.6389088626,2.5767870074,8.3609123548
 H,0,9.7437857401,2.3915728043,8.9705142862
 H,0,10.9208419964,3.6206952913,8.5439058979
 C,0,11.7793964052,1.6520255005,8.8276246798
 H,0,11.5125938238,0.5992251795,8.6515520317
 H,0,12.6867089642,1.8558306879,8.2395069626
 C,0,12.0622961633,1.8789737369,10.3117674246
 H,0,12.3632799447,2.9086023058,10.5213554869
 H,0,11.2028691664,1.6343617478,10.9411258696
 N,0,13.2111295475,0.996932133,10.8062745347
 H,0,13.4120968053,1.1501609799,11.811425772
 H,0,14.0823812836,1.190232347,10.2795355122
 H,0,12.9924498958,-0.0082112738,10.6800875759
 O,0,10.314125851,5.2384449804,5.5327746263
 H,0,10.5548527334,6.1624979315,5.7473939215
 Recover connectivity data from disk.
                           ----------------------------
                           !    Current Parameters    !
                           ! (Angstroms and Degrees)  !
 --------------------------                            --------------------------
 ! Name  Definition              Value                                          !
 --------------------------------------------------------------------------------
 ! R1    R(1,2)                  1.0698                                         !
 ! R2    R(1,3)                  1.0253                                         !
 ! R3    R(1,4)                  1.0286                                         !
 ! R4    R(1,5)                  1.5274                                         !
 ! R5    R(5,6)                  1.0928                                         !
 ! R6    R(5,7)                  1.5419                                         !
 ! R7    R(5,8)                  1.5221                                         !
 ! R8    R(7,12)                 1.2285                                         !
 ! R9    R(7,13)                 1.3411                                         !
 ! R10   R(8,9)                  1.0938                                         !
 ! R11   R(8,10)                 1.0949                                         !
 ! R12   R(8,11)                 1.0962                                         !
 ! R13   R(13,14)                1.0211                                         !
 ! R14   R(13,15)                1.4532                                         !
 ! R15   R(15,16)                1.0943                                         !
 ! R16   R(15,17)                1.5433                                         !
 ! R17   R(15,18)                1.566                                          !
 ! R18   R(17,21)                1.24                                           !
 ! R19   R(17,27)                1.3378                                         !
 ! R20   R(18,19)                1.093                                          !
 ! R21   R(18,20)                1.0948                                         !
 ! R22   R(18,22)                1.5268                                         !
 ! R23   R(22,23)                1.3409                                         !
 ! R24   R(22,26)                1.2517                                         !
 ! R25   R(23,24)                1.0148                                         !
 ! R26   R(23,25)                1.0129                                         !
 ! R27   R(27,28)                1.0156                                         !
 ! R28   R(27,29)                1.4755                                         !
 ! R29   R(29,30)                1.0946                                         !
 ! R30   R(29,31)                1.5511                                         !
 ! R31   R(29,32)                1.529                                          !
 ! R32   R(31,35)                1.229                                          !
 ! R33   R(31,42)                1.376                                          !
 ! R34   R(32,33)                1.0996                                         !
 ! R35   R(32,34)                1.0917                                         !
 ! R36   R(32,36)                1.5321                                         !
 ! R37   R(36,37)                1.0986                                         !
 ! R38   R(36,38)                1.0991                                         !
 ! R39   R(36,39)                1.5744                                         !
 ! R40   R(39,40)                1.2639                                         !
 ! R41   R(39,41)                1.2529                                         !
 ! R42   R(42,43)                1.0154                                         !
 ! R43   R(42,44)                1.479                                          !
 ! R44   R(44,45)                1.093                                          !
 ! R45   R(44,46)                1.5548                                         !
 ! R46   R(44,47)                1.5351                                         !
 ! R47   R(46,50)                1.231                                          !
 ! R48   R(46,61)                1.3591                                         !
 ! R49   R(47,48)                1.0987                                         !
 ! R50   R(47,49)                1.103                                          !
 ! R51   R(47,51)                1.5451                                         !
 ! R52   R(51,52)                1.0947                                         !
 ! R53   R(51,53)                1.5383                                         !
 ! R54   R(51,57)                1.5379                                         !
 ! R55   R(53,54)                1.1002                                         !
 ! R56   R(53,55)                1.0958                                         !
 ! R57   R(53,56)                1.0956                                         !
 ! R58   R(57,58)                1.1001                                         !
 ! R59   R(57,59)                1.0968                                         !
 ! R60   R(57,60)                1.0975                                         !
 ! R61   R(61,62)                1.0149                                         !
 ! R62   R(61,63)                1.4586                                         !
 ! R63   R(63,64)                1.0932                                         !
 ! R64   R(63,65)                1.5409                                         !
 ! R65   R(63,66)                1.5466                                         !
 ! R66   R(65,69)                1.2263                                         !
 ! R67   R(65,80)                1.3645                                         !
 ! R68   R(66,67)                1.1006                                         !
 ! R69   R(66,68)                1.1002                                         !
 ! R70   R(66,70)                1.5462                                         !
 ! R71   R(70,71)                1.0986                                         !
 ! R72   R(70,72)                1.5372                                         !
 ! R73   R(70,76)                1.5386                                         !
 ! R74   R(72,73)                1.0999                                         !
 ! R75   R(72,74)                1.0988                                         !
 ! R76   R(72,75)                1.0951                                         !
 ! R77   R(76,77)                1.1008                                         !
 ! R78   R(76,78)                1.099                                          !
 ! R79   R(76,79)                1.0999                                         !
 ! R80   R(80,81)                1.0147                                         !
 ! R81   R(80,82)                1.457                                          !
 ! R82   R(82,83)                1.095                                          !
 ! R83   R(82,84)                1.5346                                         !
 ! R84   R(82,85)                1.5618                                         !
 ! R85   R(84,87)                1.2436                                         !
 ! R86   R(84,99)                1.3535                                         !
 ! R87   R(85,86)                1.1001                                         !
 ! R88   R(85,88)                1.5497                                         !
 ! R89   R(85,91)                1.541                                          !
 ! R90   R(88,89)                1.0968                                         !
 ! R91   R(88,90)                1.1002                                         !
 ! R92   R(88,95)                1.5382                                         !
 ! R93   R(91,92)                1.0971                                         !
 ! R94   R(91,93)                1.0953                                         !
 ! R95   R(91,94)                1.0963                                         !
 ! R96   R(95,96)                1.098                                          !
 ! R97   R(95,97)                1.093                                          !
 ! R98   R(95,98)                1.0973                                         !
 ! R99   R(99,100)               1.0206                                         !
 ! R100  R(99,101)               1.4639                                         !
 ! R101  R(101,102)              1.0958                                         !
 ! R102  R(101,103)              1.5469                                         !
 ! R103  R(101,104)              1.5354                                         !
 ! R104  R(103,107)              1.2389                                         !
 ! R105  R(103,113)              1.352                                          !
 ! R106  R(104,105)              1.0978                                         !
 ! R107  R(104,106)              1.0948                                         !
 ! R108  R(104,108)              1.5322                                         !
 ! R109  R(108,109)              1.3605                                         !
 ! R110  R(108,112)              1.2313                                         !
 ! R111  R(109,110)              1.0087                                         !
 ! R112  R(109,111)              1.0122                                         !
 ! R113  R(113,114)              1.0218                                         !
 ! R114  R(113,115)              1.4723                                         !
 ! R115  R(115,116)              1.0981                                         !
 ! R116  R(115,117)              1.5479                                         !
 ! R117  R(115,118)              1.5439                                         !
 ! R118  R(117,120)              1.226                                          !
 ! R119  R(117,129)              1.368                                          !
 ! R120  R(118,119)              1.0986                                         !
 ! R121  R(118,121)              1.5393                                         !
 ! R122  R(118,125)              1.5397                                         !
 ! R123  R(121,122)              1.0991                                         !
 ! R124  R(121,123)              1.0955                                         !
 ! R125  R(121,124)              1.0937                                         !
 ! R126  R(125,126)              1.0984                                         !
 ! R127  R(125,127)              1.0963                                         !
 ! R128  R(125,128)              1.0941                                         !
 ! R129  R(129,130)              1.0199                                         !
 ! R130  R(129,131)              1.4487                                         !
 ! R131  R(131,132)              1.0979                                         !
 ! R132  R(131,133)              1.5342                                         !
 ! R133  R(131,134)              1.5448                                         !
 ! R134  R(133,137)              1.2122                                         !
 ! R135  R(133,151)              1.3498                                         !
 ! R136  R(134,135)              1.0986                                         !
 ! R137  R(134,136)              1.099                                          !
 ! R138  R(134,138)              1.5384                                         !
 ! R139  R(138,139)              1.0987                                         !
 ! R140  R(138,140)              1.0967                                         !
 ! R141  R(138,141)              1.5407                                         !
 ! R142  R(141,142)              1.1003                                         !
 ! R143  R(141,143)              1.1003                                         !
 ! R144  R(141,144)              1.5278                                         !
 ! R145  R(144,145)              1.093                                          !
 ! R146  R(144,146)              1.093                                          !
 ! R147  R(144,147)              1.5305                                         !
 ! R148  R(147,148)              1.0364                                         !
 ! R149  R(147,149)              1.0363                                         !
 ! R150  R(147,150)              1.0364                                         !
 ! R151  R(151,152)              0.9787                                         !
 ! A1    A(2,1,3)              110.4965                                         !
 ! A2    A(2,1,4)              106.9315                                         !
 ! A3    A(2,1,5)              109.3126                                         !
 ! A4    A(3,1,4)              108.8394                                         !
 ! A5    A(3,1,5)              113.0679                                         !
 ! A6    A(4,1,5)              107.9757                                         !
 ! A7    A(1,5,6)              106.9224                                         !
 ! A8    A(1,5,7)              100.1736                                         !
 ! A9    A(1,5,8)              111.0975                                         !
 ! A10   A(6,5,7)              112.4542                                         !
 ! A11   A(6,5,8)              111.5458                                         !
 ! A12   A(7,5,8)              113.8835                                         !
 ! A13   A(5,7,12)             117.668                                          !
 ! A14   A(5,7,13)             115.5074                                         !
 ! A15   A(12,7,13)            126.2731                                         !
 ! A16   A(5,8,9)              109.0685                                         !
 ! A17   A(5,8,10)             110.4408                                         !
 ! A18   A(5,8,11)             111.7506                                         !
 ! A19   A(9,8,10)             107.9545                                         !
 ! A20   A(9,8,11)             107.899                                          !
 ! A21   A(10,8,11)            109.6161                                         !
 ! A22   A(7,13,14)            122.6398                                         !
 ! A23   A(7,13,15)            122.1099                                         !
 ! A24   A(14,13,15)           112.2458                                         !
 ! A25   A(13,15,16)           109.9149                                         !
 ! A26   A(13,15,17)           105.8199                                         !
 ! A27   A(13,15,18)           109.8993                                         !
 ! A28   A(16,15,17)           112.0213                                         !
 ! A29   A(16,15,18)           108.1297                                         !
 ! A30   A(17,15,18)           111.0465                                         !
 ! A31   A(15,17,21)           118.5299                                         !
 ! A32   A(15,17,27)           116.2893                                         !
 ! A33   A(21,17,27)           125.101                                          !
 ! A34   A(15,18,19)           107.5956                                         !
 ! A35   A(15,18,20)           109.5836                                         !
 ! A36   A(15,18,22)           112.6758                                         !
 ! A37   A(19,18,20)           107.9169                                         !
 ! A38   A(19,18,22)           108.3859                                         !
 ! A39   A(20,18,22)           110.5211                                         !
 ! A40   A(18,22,23)           116.7005                                         !
 ! A41   A(18,22,26)           122.5596                                         !
 ! A42   A(23,22,26)           120.7395                                         !
 ! A43   A(22,23,24)           119.0294                                         !
 ! A44   A(22,23,25)           122.5218                                         !
 ! A45   A(24,23,25)           117.1721                                         !
 ! A46   A(17,27,28)           119.8012                                         !
 ! A47   A(17,27,29)           123.5905                                         !
 ! A48   A(28,27,29)           115.8872                                         !
 ! A49   A(27,29,30)           106.606                                          !
 ! A50   A(27,29,31)           110.1074                                         !
 ! A51   A(27,29,32)           110.4392                                         !
 ! A52   A(30,29,31)           108.0403                                         !
 ! A53   A(30,29,32)           110.0913                                         !
 ! A54   A(31,29,32)           111.4134                                         !
 ! A55   A(29,31,35)           122.3288                                         !
 ! A56   A(29,31,42)           115.2913                                         !
 ! A57   A(35,31,42)           122.3779                                         !
 ! A58   A(29,32,33)           109.2318                                         !
 ! A59   A(29,32,34)           107.0189                                         !
 ! A60   A(29,32,36)           116.2033                                         !
 ! A61   A(33,32,34)           105.9999                                         !
 ! A62   A(33,32,36)           110.5258                                         !
 ! A63   A(34,32,36)           107.302                                          !
 ! A64   A(32,36,37)           111.7366                                         !
 ! A65   A(32,36,38)           109.3812                                         !
 ! A66   A(32,36,39)           106.6226                                         !
 ! A67   A(37,36,38)           109.3156                                         !
 ! A68   A(37,36,39)           110.1602                                         !
 ! A69   A(38,36,39)           109.5772                                         !
 ! A70   A(36,39,40)           115.2355                                         !
 ! A71   A(36,39,41)           115.3878                                         !
 ! A72   A(40,39,41)           129.2132                                         !
 ! A73   A(31,42,43)           116.6949                                         !
 ! A74   A(31,42,44)           121.4115                                         !
 ! A75   A(43,42,44)           116.8904                                         !
 ! A76   A(42,44,45)           105.3671                                         !
 ! A77   A(42,44,46)           109.2132                                         !
 ! A78   A(42,44,47)           110.0114                                         !
 ! A79   A(45,44,46)           108.9757                                         !
 ! A80   A(45,44,47)           111.1868                                         !
 ! A81   A(46,44,47)           111.8652                                         !
 ! A82   A(44,46,50)           121.4477                                         !
 ! A83   A(44,46,61)           115.3074                                         !
 ! A84   A(50,46,61)           123.0875                                         !
 ! A85   A(44,47,48)           108.3501                                         !
 ! A86   A(44,47,49)           107.4864                                         !
 ! A87   A(44,47,51)           116.2964                                         !
 ! A88   A(48,47,49)           106.9939                                         !
 ! A89   A(48,47,51)           108.2769                                         !
 ! A90   A(49,47,51)           109.0681                                         !
 ! A91   A(47,51,52)           106.7834                                         !
 ! A92   A(47,51,53)           112.9113                                         !
 ! A93   A(47,51,57)           109.6711                                         !
 ! A94   A(52,51,53)           108.6635                                         !
 ! A95   A(52,51,57)           107.3912                                         !
 ! A96   A(53,51,57)           111.1704                                         !
 ! A97   A(51,53,54)           111.326                                          !
 ! A98   A(51,53,55)           112.2342                                         !
 ! A99   A(51,53,56)           110.6282                                         !
 ! A100  A(54,53,55)           108.298                                          !
 ! A101  A(54,53,56)           107.371                                          !
 ! A102  A(55,53,56)           106.7514                                         !
 ! A103  A(51,57,58)           111.3615                                         !
 ! A104  A(51,57,59)           111.3059                                         !
 ! A105  A(51,57,60)           111.0797                                         !
 ! A106  A(58,57,59)           108.0096                                         !
 ! A107  A(58,57,60)           107.2838                                         !
 ! A108  A(59,57,60)           107.6135                                         !
 ! A109  A(46,61,62)           118.8467                                         !
 ! A110  A(46,61,63)           119.7376                                         !
 ! A111  A(62,61,63)           118.5908                                         !
 ! A112  A(61,63,64)           107.3013                                         !
 ! A113  A(61,63,65)           108.5872                                         !
 ! A114  A(61,63,66)           111.5759                                         !
 ! A115  A(64,63,65)           110.067                                          !
 ! A116  A(64,63,66)           109.7623                                         !
 ! A117  A(65,63,66)           109.5139                                         !
 ! A118  A(63,65,69)           121.1934                                         !
 ! A119  A(63,65,80)           115.5699                                         !
 ! A120  A(69,65,80)           123.2198                                         !
 ! A121  A(63,66,67)           108.0762                                         !
 ! A122  A(63,66,68)           107.4177                                         !
 ! A123  A(63,66,70)           115.5402                                         !
 ! A124  A(67,66,68)           106.575                                          !
 ! A125  A(67,66,70)           109.8631                                         !
 ! A126  A(68,66,70)           108.9812                                         !
 ! A127  A(66,70,71)           107.3664                                         !
 ! A128  A(66,70,72)           110.7479                                         !
 ! A129  A(66,70,76)           113.5794                                         !
 ! A130  A(71,70,72)           106.9182                                         !
 ! A131  A(71,70,76)           108.2578                                         !
 ! A132  A(72,70,76)           109.6979                                         !
 ! A133  A(70,72,73)           110.9037                                         !
 ! A134  A(70,72,74)           111.783                                          !
 ! A135  A(70,72,75)           109.4087                                         !
 ! A136  A(73,72,74)           107.8291                                         !
 ! A137  A(73,72,75)           108.0704                                         !
 ! A138  A(74,72,75)           108.7449                                         !
 ! A139  A(70,76,77)           110.5113                                         !
 ! A140  A(70,76,78)           112.1444                                         !
 ! A141  A(70,76,79)           109.4768                                         !
 ! A142  A(77,76,78)           107.5134                                         !
 ! A143  A(77,76,79)           108.6049                                         !
 ! A144  A(78,76,79)           108.4959                                         !
 ! A145  A(65,80,81)           119.9766                                         !
 ! A146  A(65,80,82)           122.3649                                         !
 ! A147  A(81,80,82)           115.4599                                         !
 ! A148  A(80,82,83)           106.806                                          !
 ! A149  A(80,82,84)           105.8247                                         !
 ! A150  A(80,82,85)           113.0382                                         !
 ! A151  A(83,82,84)           110.301                                          !
 ! A152  A(83,82,85)           108.8241                                         !
 ! A153  A(84,82,85)           111.9041                                         !
 ! A154  A(82,84,87)           120.565                                          !
 ! A155  A(82,84,99)           117.1577                                         !
 ! A156  A(87,84,99)           122.2719                                         !
 ! A157  A(82,85,86)           106.3945                                         !
 ! A158  A(82,85,88)           111.6815                                         !
 ! A159  A(82,85,91)           111.7111                                         !
 ! A160  A(86,85,88)           106.7322                                         !
 ! A161  A(86,85,91)           108.1335                                         !
 ! A162  A(88,85,91)           111.8424                                         !
 ! A163  A(85,88,89)           108.4391                                         !
 ! A164  A(85,88,90)           106.6303                                         !
 ! A165  A(85,88,95)           116.244                                          !
 ! A166  A(89,88,90)           106.1116                                         !
 ! A167  A(89,88,95)           109.6631                                         !
 ! A168  A(90,88,95)           109.2546                                         !
 ! A169  A(85,91,92)           112.2594                                         !
 ! A170  A(85,91,93)           112.1625                                         !
 ! A171  A(85,91,94)           110.1023                                         !
 ! A172  A(92,91,93)           107.5493                                         !
 ! A173  A(92,91,94)           107.0972                                         !
 ! A174  A(93,91,94)           107.4158                                         !
 ! A175  A(88,95,96)           109.93                                           !
 ! A176  A(88,95,97)           111.4718                                         !
 ! A177  A(88,95,98)           112.1449                                         !
 ! A178  A(96,95,97)           106.7214                                         !
 ! A179  A(96,95,98)           107.1849                                         !
 ! A180  A(97,95,98)           109.154                                          !
 ! A181  A(84,99,100)          122.1998                                         !
 ! A182  A(84,99,101)          121.5501                                         !
 ! A183  A(100,99,101)         114.8248                                         !
 ! A184  A(99,101,102)         106.2783                                         !
 ! A185  A(99,101,103)         112.4541                                         !
 ! A186  A(99,101,104)         109.508                                          !
 ! A187  A(102,101,103)        107.1664                                         !
 ! A188  A(102,101,104)        109.507                                          !
 ! A189  A(103,101,104)        111.725                                          !
 ! A190  A(101,103,107)        121.5033                                         !
 ! A191  A(101,103,113)        114.0842                                         !
 ! A192  A(107,103,113)        124.4101                                         !
 ! A193  A(101,104,105)        107.4647                                         !
 ! A194  A(101,104,106)        109.6966                                         !
 ! A195  A(101,104,108)        113.3498                                         !
 ! A196  A(105,104,106)        107.5075                                         !
 ! A197  A(105,104,108)        106.3305                                         !
 ! A198  A(106,104,108)        112.1618                                         !
 ! A199  A(104,108,109)        116.4109                                         !
 ! A200  A(104,108,112)        121.7249                                         !
 ! A201  A(109,108,112)        121.6947                                         !
 ! A202  A(108,109,110)        121.5861                                         !
 ! A203  A(108,109,111)        117.5557                                         !
 ! A204  A(110,109,111)        118.4717                                         !
 ! A205  A(103,113,114)        116.4224                                         !
 ! A206  A(103,113,115)        122.3215                                         !
 ! A207  A(114,113,115)        119.6106                                         !
 ! A208  A(113,115,116)        106.9973                                         !
 ! A209  A(113,115,117)        108.4506                                         !
 ! A210  A(113,115,118)        112.6501                                         !
 ! A211  A(116,115,117)        108.6083                                         !
 ! A212  A(116,115,118)        109.1519                                         !
 ! A213  A(117,115,118)        110.8381                                         !
 ! A214  A(115,117,120)        123.7061                                         !
 ! A215  A(115,117,129)        114.3916                                         !
 ! A216  A(120,117,129)        121.8937                                         !
 ! A217  A(115,118,119)        107.1847                                         !
 ! A218  A(115,118,121)        109.681                                          !
 ! A219  A(115,118,125)        112.3314                                         !
 ! A220  A(119,118,121)        108.2162                                         !
 ! A221  A(119,118,125)        109.162                                          !
 ! A222  A(121,118,125)        110.1385                                         !
 ! A223  A(118,121,122)        110.955                                          !
 ! A224  A(118,121,123)        109.981                                          !
 ! A225  A(118,121,124)        111.9749                                         !
 ! A226  A(122,121,123)        107.5097                                         !
 ! A227  A(122,121,124)        108.432                                          !
 ! A228  A(123,121,124)        107.8317                                         !
 ! A229  A(118,125,126)        111.197                                          !
 ! A230  A(118,125,127)        109.6138                                         !
 ! A231  A(118,125,128)        113.0587                                         !
 ! A232  A(126,125,127)        107.516                                          !
 ! A233  A(126,125,128)        107.9997                                         !
 ! A234  A(127,125,128)        107.2296                                         !
 ! A235  A(117,129,130)        116.3642                                         !
 ! A236  A(117,129,131)        118.8364                                         !
 ! A237  A(130,129,131)        119.9233                                         !
 ! A238  A(129,131,132)        111.2997                                         !
 ! A239  A(129,131,133)        112.6163                                         !
 ! A240  A(129,131,134)        109.7195                                         !
 ! A241  A(132,131,133)        104.2357                                         !
 ! A242  A(132,131,134)        109.5773                                         !
 ! A243  A(133,131,134)        109.2422                                         !
 ! A244  A(131,133,137)        123.2163                                         !
 ! A245  A(131,133,151)        113.0241                                         !
 ! A246  A(137,133,151)        123.5223                                         !
 ! A247  A(131,134,135)        108.8935                                         !
 ! A248  A(131,134,136)        108.3177                                         !
 ! A249  A(131,134,138)        112.0856                                         !
 ! A250  A(135,134,136)        107.0278                                         !
 ! A251  A(135,134,138)        110.5431                                         !
 ! A252  A(136,134,138)        109.8167                                         !
 ! A253  A(134,138,139)        109.2743                                         !
 ! A254  A(134,138,140)        109.7167                                         !
 ! A255  A(134,138,141)        112.7325                                         !
 ! A256  A(139,138,140)        106.1005                                         !
 ! A257  A(139,138,141)        109.5011                                         !
 ! A258  A(140,138,141)        109.2988                                         !
 ! A259  A(138,141,142)        110.2646                                         !
 ! A260  A(138,141,143)        109.7137                                         !
 ! A261  A(138,141,144)        110.0094                                         !
 ! A262  A(142,141,143)        106.9575                                         !
 ! A263  A(142,141,144)        110.0287                                         !
 ! A264  A(143,141,144)        109.8177                                         !
 ! A265  A(141,144,145)        112.16                                           !
 ! A266  A(141,144,146)        112.3662                                         !
 ! A267  A(141,144,147)        111.5464                                         !
 ! A268  A(145,144,146)        108.4785                                         !
 ! A269  A(145,144,147)        105.9167                                         !
 ! A270  A(146,144,147)        105.9747                                         !
 ! A271  A(144,147,148)        111.944                                          !
 ! A272  A(144,147,149)        111.0608                                         !
 ! A273  A(144,147,150)        111.1755                                         !
 ! A274  A(148,147,149)        107.5989                                         !
 ! A275  A(148,147,150)        107.601                                          !
 ! A276  A(149,147,150)        107.2429                                         !
 ! A277  A(133,151,152)        106.0627                                         !
 ! D1    D(2,1,5,6)             67.6876                                         !
 ! D2    D(2,1,5,7)            -49.713                                          !
 ! D3    D(2,1,5,8)           -170.3859                                         !
 ! D4    D(3,1,5,6)            -55.8524                                         !
 ! D5    D(3,1,5,7)           -173.2529                                         !
 ! D6    D(3,1,5,8)             66.0742                                         !
 ! D7    D(4,1,5,6)           -176.3278                                         !
 ! D8    D(4,1,5,7)             66.2717                                         !
 ! D9    D(4,1,5,8)            -54.4012                                         !
 ! D10   D(1,5,7,12)           -66.0974                                         !
 ! D11   D(1,5,7,13)           105.9265                                         !
 ! D12   D(6,5,7,12)          -179.3103                                         !
 ! D13   D(6,5,7,13)            -7.2865                                         !
 ! D14   D(8,5,7,12)            52.5499                                         !
 ! D15   D(8,5,7,13)          -135.4263                                         !
 ! D16   D(1,5,8,9)           -178.3211                                         !
 ! D17   D(1,5,8,10)            63.1953                                         !
 ! D18   D(1,5,8,11)           -59.1106                                         !
 ! D19   D(6,5,8,9)            -59.1275                                         !
 ! D20   D(6,5,8,10)          -177.6111                                         !
 ! D21   D(6,5,8,11)            60.083                                          !
 ! D22   D(7,5,8,9)             69.4759                                         !
 ! D23   D(7,5,8,10)           -49.0078                                         !
 ! D24   D(7,5,8,11)          -171.3136                                         !
 ! D25   D(5,7,13,14)            3.4719                                         !
 ! D26   D(5,7,13,15)         -155.3901                                         !
 ! D27   D(12,7,13,14)         174.7038                                         !
 ! D28   D(12,7,13,15)          15.8419                                         !
 ! D29   D(7,13,15,16)         -57.7446                                         !
 ! D30   D(7,13,15,17)        -178.8862                                         !
 ! D31   D(7,13,15,18)          61.1447                                         !
 ! D32   D(14,13,15,16)        141.4081                                         !
 ! D33   D(14,13,15,17)         20.2666                                         !
 ! D34   D(14,13,15,18)        -99.7025                                         !
 ! D35   D(13,15,17,21)        -19.3667                                         !
 ! D36   D(13,15,17,27)        163.7148                                         !
 ! D37   D(16,15,17,21)       -139.1353                                         !
 ! D38   D(16,15,17,27)         43.9462                                         !
 ! D39   D(18,15,17,21)         99.8482                                         !
 ! D40   D(18,15,17,27)        -77.0703                                         !
 ! D41   D(13,15,18,19)        -67.3406                                         !
 ! D42   D(13,15,18,20)        175.5703                                         !
 ! D43   D(13,15,18,22)         52.0737                                         !
 ! D44   D(16,15,18,19)         52.6396                                         !
 ! D45   D(16,15,18,20)        -64.4496                                         !
 ! D46   D(16,15,18,22)        172.0539                                         !
 ! D47   D(17,15,18,19)        175.9197                                         !
 ! D48   D(17,15,18,20)         58.8305                                         !
 ! D49   D(17,15,18,22)        -64.666                                          !
 ! D50   D(15,17,27,28)          3.2016                                         !
 ! D51   D(15,17,27,29)        173.0624                                         !
 ! D52   D(21,17,27,28)       -173.4891                                         !
 ! D53   D(21,17,27,29)         -3.6283                                         !
 ! D54   D(15,18,22,23)         97.8849                                         !
 ! D55   D(15,18,22,26)        -82.3185                                         !
 ! D56   D(19,18,22,23)       -143.1603                                         !
 ! D57   D(19,18,22,26)         36.6363                                         !
 ! D58   D(20,18,22,23)        -25.0894                                         !
 ! D59   D(20,18,22,26)        154.7072                                         !
 ! D60   D(18,22,23,24)       -174.1883                                         !
 ! D61   D(18,22,23,25)         -7.4659                                         !
 ! D62   D(26,22,23,24)          6.0111                                         !
 ! D63   D(26,22,23,25)        172.7336                                         !
 ! D64   D(17,27,29,30)         36.5291                                         !
 ! D65   D(17,27,29,31)        -80.4277                                         !
 ! D66   D(17,27,29,32)        156.1128                                         !
 ! D67   D(28,27,29,30)       -153.247                                          !
 ! D68   D(28,27,29,31)         89.7962                                         !
 ! D69   D(28,27,29,32)        -33.6633                                         !
 ! D70   D(27,29,31,35)        -96.0415                                         !
 ! D71   D(27,29,31,42)         84.4688                                         !
 ! D72   D(30,29,31,35)        147.8986                                         !
 ! D73   D(30,29,31,42)        -31.591                                          !
 ! D74   D(32,29,31,35)         26.8481                                         !
 ! D75   D(32,29,31,42)       -152.6415                                         !
 ! D76   D(27,29,32,33)         56.2737                                         !
 ! D77   D(27,29,32,34)        170.6093                                         !
 ! D78   D(27,29,32,36)        -69.5697                                         !
 ! D79   D(30,29,32,33)        173.7298                                         !
 ! D80   D(30,29,32,34)        -71.9346                                         !
 ! D81   D(30,29,32,36)         47.8864                                         !
 ! D82   D(31,29,32,33)        -66.4258                                         !
 ! D83   D(31,29,32,34)         47.9098                                         !
 ! D84   D(31,29,32,36)        167.7308                                         !
 ! D85   D(29,31,42,43)          4.6955                                         !
 ! D86   D(29,31,42,44)        158.8861                                         !
 ! D87   D(35,31,42,43)       -174.7938                                         !
 ! D88   D(35,31,42,44)        -20.6032                                         !
 ! D89   D(29,32,36,37)         68.5674                                         !
 ! D90   D(29,32,36,38)        -52.6131                                         !
 ! D91   D(29,32,36,39)       -171.0194                                         !
 ! D92   D(33,32,36,37)        -56.6204                                         !
 ! D93   D(33,32,36,38)       -177.8009                                         !
 ! D94   D(33,32,36,39)         63.7928                                         !
 ! D95   D(34,32,36,37)       -171.7646                                         !
 ! D96   D(34,32,36,38)         67.0549                                         !
 ! D97   D(34,32,36,39)        -51.3514                                         !
 ! D98   D(32,36,39,40)         80.3826                                         !
 ! D99   D(32,36,39,41)        -95.4044                                         !
 ! D100  D(37,36,39,40)       -158.1964                                         !
 ! D101  D(37,36,39,41)         26.0166                                         !
 ! D102  D(38,36,39,40)        -37.8952                                         !
 ! D103  D(38,36,39,41)        146.3179                                         !
 ! D104  D(31,42,44,45)         39.2959                                         !
 ! D105  D(31,42,44,46)        -77.6335                                         !
 ! D106  D(31,42,44,47)        159.2288                                         !
 ! D107  D(43,42,44,45)       -166.5613                                         !
 ! D108  D(43,42,44,46)         76.5093                                         !
 ! D109  D(43,42,44,47)        -46.6284                                         !
 ! D110  D(42,44,46,50)       -106.6148                                         !
 ! D111  D(42,44,46,61)         68.9585                                         !
 ! D112  D(45,44,46,50)        138.7656                                         !
 ! D113  D(45,44,46,61)        -45.6612                                         !
 ! D114  D(47,44,46,50)         15.4131                                         !
 ! D115  D(47,44,46,61)       -169.0136                                         !
 ! D116  D(42,44,47,48)         58.7657                                         !
 ! D117  D(42,44,47,49)        -56.5332                                         !
 ! D118  D(42,44,47,51)       -179.0627                                         !
 ! D119  D(45,44,47,48)        175.1022                                         !
 ! D120  D(45,44,47,49)         59.8033                                         !
 ! D121  D(45,44,47,51)        -62.7262                                         !
 ! D122  D(46,44,47,48)        -62.8033                                         !
 ! D123  D(46,44,47,49)       -178.1023                                         !
 ! D124  D(46,44,47,51)         59.3682                                         !
 ! D125  D(44,46,61,62)         12.974                                          !
 ! D126  D(44,46,61,63)        173.6856                                         !
 ! D127  D(50,46,61,62)       -171.5336                                         !
 ! D128  D(50,46,61,63)        -10.822                                          !
 ! D129  D(44,47,51,52)        -60.4949                                         !
 ! D130  D(44,47,51,53)         58.8685                                         !
 ! D131  D(44,47,51,57)       -176.558                                          !
 ! D132  D(48,47,51,52)         61.7151                                         !
 ! D133  D(48,47,51,53)       -178.9215                                         !
 ! D134  D(48,47,51,57)        -54.3479                                         !
 ! D135  D(49,47,51,52)        177.8079                                         !
 ! D136  D(49,47,51,53)        -62.8287                                         !
 ! D137  D(49,47,51,57)         61.7449                                         !
 ! D138  D(47,51,53,54)         64.7949                                         !
 ! D139  D(47,51,53,55)        -56.7861                                         !
 ! D140  D(47,51,53,56)       -175.9025                                         !
 ! D141  D(52,51,53,54)       -176.934                                          !
 ! D142  D(52,51,53,55)         61.485                                          !
 ! D143  D(52,51,53,56)        -57.6313                                         !
 ! D144  D(57,51,53,54)        -58.9561                                         !
 ! D145  D(57,51,53,55)        179.4629                                         !
 ! D146  D(57,51,53,56)         60.3465                                         !
 ! D147  D(47,51,57,58)        -60.4757                                         !
 ! D148  D(47,51,57,59)         60.1132                                         !
 ! D149  D(47,51,57,60)       -179.9914                                         !
 ! D150  D(52,51,57,58)       -176.1533                                         !
 ! D151  D(52,51,57,59)        -55.5644                                         !
 ! D152  D(52,51,57,60)         64.3309                                         !
 ! D153  D(53,51,57,58)         65.1018                                         !
 ! D154  D(53,51,57,59)       -174.3094                                         !
 ! D155  D(53,51,57,60)        -54.414                                          !
 ! D156  D(46,61,63,64)         47.1309                                         !
 ! D157  D(46,61,63,65)        -71.8099                                         !
 ! D158  D(46,61,63,66)        167.3961                                         !
 ! D159  D(62,61,63,64)       -152.1085                                         !
 ! D160  D(62,61,63,65)         88.9507                                         !
 ! D161  D(62,61,63,66)        -31.8433                                         !
 ! D162  D(61,63,65,69)        -39.9818                                         !
 ! D163  D(61,63,65,80)        141.4702                                         !
 ! D164  D(64,63,65,69)       -157.168                                          !
 ! D165  D(64,63,65,80)         24.284                                          !
 ! D166  D(66,63,65,69)         82.0771                                         !
 ! D167  D(66,63,65,80)        -96.4709                                         !
 ! D168  D(61,63,66,67)         69.9357                                         !
 ! D169  D(61,63,66,68)       -175.4255                                         !
 ! D170  D(61,63,66,70)        -53.5743                                         !
 ! D171  D(64,63,66,67)       -171.2552                                         !
 ! D172  D(64,63,66,68)        -56.6164                                         !
 ! D173  D(64,63,66,70)         65.2347                                         !
 ! D174  D(65,63,66,67)        -50.3155                                         !
 ! D175  D(65,63,66,68)         64.3233                                         !
 ! D176  D(65,63,66,70)       -173.8256                                         !
 ! D177  D(63,65,80,81)          4.1511                                         !
 ! D178  D(63,65,80,82)        166.5325                                         !
 ! D179  D(69,65,80,81)       -174.3642                                         !
 ! D180  D(69,65,80,82)        -11.9828                                         !
 ! D181  D(63,66,70,71)         64.7651                                         !
 ! D182  D(63,66,70,72)       -178.8422                                         !
 ! D183  D(63,66,70,76)        -54.8822                                         !
 ! D184  D(67,66,70,71)        -57.8005                                         !
 ! D185  D(67,66,70,72)         58.5923                                         !
 ! D186  D(67,66,70,76)       -177.4478                                         !
 ! D187  D(68,66,70,71)       -174.2249                                         !
 ! D188  D(68,66,70,72)        -57.8322                                         !
 ! D189  D(68,66,70,76)         66.1278                                         !
 ! D190  D(66,70,72,73)         63.3569                                         !
 ! D191  D(66,70,72,74)        -57.0133                                         !
 ! D192  D(66,70,72,75)       -177.525                                          !
 ! D193  D(71,70,72,73)       -179.9734                                         !
 ! D194  D(71,70,72,74)         59.6564                                         !
 ! D195  D(71,70,72,75)        -60.8553                                         !
 ! D196  D(76,70,72,73)        -62.798                                          !
 ! D197  D(76,70,72,74)        176.8317                                         !
 ! D198  D(76,70,72,75)         56.32                                           !
 ! D199  D(66,70,76,77)        -60.9097                                         !
 ! D200  D(66,70,76,78)         59.0329                                         !
 ! D201  D(66,70,76,79)        179.5115                                         !
 ! D202  D(71,70,76,77)        179.9514                                         !
 ! D203  D(71,70,76,78)        -60.106                                          !
 ! D204  D(71,70,76,79)         60.3727                                         !
 ! D205  D(72,70,76,77)         63.6185                                         !
 ! D206  D(72,70,76,78)       -176.4389                                         !
 ! D207  D(72,70,76,79)        -55.9603                                         !
 ! D208  D(65,80,82,83)        -13.3773                                         !
 ! D209  D(65,80,82,84)       -130.914                                          !
 ! D210  D(65,80,82,85)        106.2736                                         !
 ! D211  D(81,80,82,83)        149.7413                                         !
 ! D212  D(81,80,82,84)         32.2047                                         !
 ! D213  D(81,80,82,85)        -90.6077                                         !
 ! D214  D(80,82,84,87)        -38.638                                          !
 ! D215  D(80,82,84,99)        140.5334                                         !
 ! D216  D(83,82,84,87)       -153.8062                                         !
 ! D217  D(83,82,84,99)         25.3652                                         !
 ! D218  D(85,82,84,87)         84.8921                                         !
 ! D219  D(85,82,84,99)        -95.9365                                         !
 ! D220  D(80,82,85,86)         57.4139                                         !
 ! D221  D(80,82,85,88)        -58.6849                                         !
 ! D222  D(80,82,85,91)        175.211                                          !
 ! D223  D(83,82,85,86)        175.898                                          !
 ! D224  D(83,82,85,88)         59.7993                                         !
 ! D225  D(83,82,85,91)        -66.3049                                         !
 ! D226  D(84,82,85,86)        -61.9514                                         !
 ! D227  D(84,82,85,88)       -178.0501                                         !
 ! D228  D(84,82,85,91)         55.8457                                         !
 ! D229  D(82,84,99,100)        13.153                                          !
 ! D230  D(82,84,99,101)       178.8202                                         !
 ! D231  D(87,84,99,100)      -167.6908                                         !
 ! D232  D(87,84,99,101)        -2.0236                                         !
 ! D233  D(82,85,88,89)         57.4383                                         !
 ! D234  D(82,85,88,90)        171.3222                                         !
 ! D235  D(82,85,88,95)        -66.6065                                         !
 ! D236  D(86,85,88,89)        -58.4545                                         !
 ! D237  D(86,85,88,90)         55.4294                                         !
 ! D238  D(86,85,88,95)        177.5007                                         !
 ! D239  D(91,85,88,89)       -176.5295                                         !
 ! D240  D(91,85,88,90)        -62.6457                                         !
 ! D241  D(91,85,88,95)         59.4257                                         !
 ! D242  D(82,85,91,92)         50.9714                                         !
 ! D243  D(82,85,91,93)        -70.2616                                         !
 ! D244  D(82,85,91,94)        170.1855                                         !
 ! D245  D(86,85,91,92)        167.7201                                         !
 ! D246  D(86,85,91,93)         46.4871                                         !
 ! D247  D(86,85,91,94)        -73.0657                                         !
 ! D248  D(88,85,91,92)        -75.0446                                         !
 ! D249  D(88,85,91,93)        163.7224                                         !
 ! D250  D(88,85,91,94)         44.1696                                         !
 ! D251  D(85,88,95,96)        179.2467                                         !
 ! D252  D(85,88,95,97)         61.1155                                         !
 ! D253  D(85,88,95,98)        -61.6182                                         !
 ! D254  D(89,88,95,96)         55.835                                          !
 ! D255  D(89,88,95,97)        -62.2962                                         !
 ! D256  D(89,88,95,98)        174.9701                                         !
 ! D257  D(90,88,95,96)        -60.0757                                         !
 ! D258  D(90,88,95,97)       -178.2069                                         !
 ! D259  D(90,88,95,98)         59.0594                                         !
 ! D260  D(84,99,101,102)       37.2077                                         !
 ! D261  D(84,99,101,103)      -79.7528                                         !
 ! D262  D(84,99,101,104)      155.4047                                         !
 ! D263  D(100,99,101,102)    -156.1368                                         !
 ! D264  D(100,99,101,103)      86.9026                                         !
 ! D265  D(100,99,101,104)     -37.9398                                         !
 ! D266  D(99,101,103,107)    -105.8497                                         !
 ! D267  D(99,101,103,113)      74.6939                                         !
 ! D268  D(102,101,103,107)    137.7203                                         !
 ! D269  D(102,101,103,113)    -41.7361                                         !
 ! D270  D(104,101,103,107)     17.7667                                         !
 ! D271  D(104,101,103,113)   -161.6897                                         !
 ! D272  D(99,101,104,105)     -56.6693                                         !
 ! D273  D(99,101,104,106)    -173.2588                                         !
 ! D274  D(99,101,104,108)      60.5168                                         !
 ! D275  D(102,101,104,105)     59.4976                                         !
 ! D276  D(102,101,104,106)    -57.092                                          !
 ! D277  D(102,101,104,108)    176.6837                                         !
 ! D278  D(103,101,104,105)    178.0665                                         !
 ! D279  D(103,101,104,106)     61.477                                          !
 ! D280  D(103,101,104,108)    -64.7474                                         !
 ! D281  D(101,103,113,114)     -7.3855                                         !
 ! D282  D(101,103,113,115)   -172.6886                                         !
 ! D283  D(107,103,113,114)    173.1763                                         !
 ! D284  D(107,103,113,115)      7.8731                                         !
 ! D285  D(101,104,108,109)    138.2721                                         !
 ! D286  D(101,104,108,112)    -46.3835                                         !
 ! D287  D(105,104,108,109)   -103.8804                                         !
 ! D288  D(105,104,108,112)     71.464                                          !
 ! D289  D(106,104,108,109)     13.3665                                         !
 ! D290  D(106,104,108,112)   -171.2891                                         !
 ! D291  D(104,108,109,110)    -14.904                                          !
 ! D292  D(104,108,109,111)   -177.0946                                         !
 ! D293  D(112,108,109,110)    169.7501                                         !
 ! D294  D(112,108,109,111)      7.5595                                         !
 ! D295  D(103,113,115,116)     37.3709                                         !
 ! D296  D(103,113,115,117)    -79.613                                          !
 ! D297  D(103,113,115,118)    157.3236                                         !
 ! D298  D(114,113,115,116)   -127.4801                                         !
 ! D299  D(114,113,115,117)    115.536                                          !
 ! D300  D(114,113,115,118)     -7.5274                                         !
 ! D301  D(113,115,117,120)    -94.7468                                         !
 ! D302  D(113,115,117,129)     86.3102                                         !
 ! D303  D(116,115,117,120)    149.3086                                         !
 ! D304  D(116,115,117,129)    -29.6344                                         !
 ! D305  D(118,115,117,120)     29.4042                                         !
 ! D306  D(118,115,117,129)   -149.5388                                         !
 ! D307  D(113,115,118,119)     65.839                                          !
 ! D308  D(113,115,118,121)   -176.8947                                         !
 ! D309  D(113,115,118,125)    -54.0598                                         !
 ! D310  D(116,115,118,119)   -175.46                                           !
 ! D311  D(116,115,118,121)    -58.1937                                         !
 ! D312  D(116,115,118,125)     64.6412                                         !
 ! D313  D(117,115,118,119)    -55.8809                                         !
 ! D314  D(117,115,118,121)     61.3854                                         !
 ! D315  D(117,115,118,125)   -175.7798                                         !
 ! D316  D(115,117,129,130)    -18.8709                                         !
 ! D317  D(115,117,129,131)   -174.1615                                         !
 ! D318  D(120,117,129,130)    162.1648                                         !
 ! D319  D(120,117,129,131)      6.8742                                         !
 ! D320  D(115,118,121,122)     63.4488                                         !
 ! D321  D(115,118,121,123)   -177.7316                                         !
 ! D322  D(115,118,121,124)    -57.8585                                         !
 ! D323  D(119,118,121,122)   -179.9326                                         !
 ! D324  D(119,118,121,123)    -61.113                                          !
 ! D325  D(119,118,121,124)     58.7601                                         !
 ! D326  D(125,118,121,122)    -60.6746                                         !
 ! D327  D(125,118,121,123)     58.145                                          !
 ! D328  D(125,118,121,124)    178.0181                                         !
 ! D329  D(115,118,125,126)    -57.1424                                         !
 ! D330  D(115,118,125,127)   -175.8864                                         !
 ! D331  D(115,118,125,128)     64.5462                                         !
 ! D332  D(119,118,125,126)   -175.8854                                         !
 ! D333  D(119,118,125,127)     65.3706                                         !
 ! D334  D(119,118,125,128)    -54.1968                                         !
 ! D335  D(121,118,125,126)     65.4345                                         !
 ! D336  D(121,118,125,127)    -53.3095                                         !
 ! D337  D(121,118,125,128)   -172.8769                                         !
 ! D338  D(117,129,131,132)     55.9172                                         !
 ! D339  D(117,129,131,133)    -60.7206                                         !
 ! D340  D(117,129,131,134)    177.3699                                         !
 ! D341  D(130,129,131,132)    -98.479                                          !
 ! D342  D(130,129,131,133)    144.8832                                         !
 ! D343  D(130,129,131,134)     22.9737                                         !
 ! D344  D(129,131,133,137)    147.7734                                         !
 ! D345  D(129,131,133,151)    -37.6514                                         !
 ! D346  D(132,131,133,137)     26.9987                                         !
 ! D347  D(132,131,133,151)   -158.4261                                         !
 ! D348  D(134,131,133,137)    -90.0473                                         !
 ! D349  D(134,131,133,151)     84.5279                                         !
 ! D350  D(129,131,134,135)     63.167                                          !
 ! D351  D(129,131,134,136)    -52.8946                                         !
 ! D352  D(129,131,134,138)   -174.208                                          !
 ! D353  D(132,131,134,135)   -174.3516                                         !
 ! D354  D(132,131,134,136)     69.5867                                         !
 ! D355  D(132,131,134,138)    -51.7267                                         !
 ! D356  D(133,131,134,135)    -60.737                                          !
 ! D357  D(133,131,134,136)   -176.7987                                         !
 ! D358  D(133,131,134,138)     61.8879                                         !
 ! D359  D(131,133,151,152)   -179.4267                                         !
 ! D360  D(137,133,151,152)     -4.8706                                         !
 ! D361  D(131,134,138,139)     58.3671                                         !
 ! D362  D(131,134,138,140)    -57.5717                                         !
 ! D363  D(131,134,138,141)   -179.6311                                         !
 ! D364  D(135,134,138,139)   -179.9484                                         !
 ! D365  D(135,134,138,140)     64.1128                                         !
 ! D366  D(135,134,138,141)    -57.9467                                         !
 ! D367  D(136,134,138,139)    -62.0799                                         !
 ! D368  D(136,134,138,140)   -178.0187                                         !
 ! D369  D(136,134,138,141)     59.9219                                         !
 ! D370  D(134,138,141,142)    -57.733                                          !
 ! D371  D(134,138,141,143)     59.8194                                         !
 ! D372  D(134,138,141,144)   -179.2663                                         !
 ! D373  D(139,138,141,142)     64.1407                                         !
 ! D374  D(139,138,141,143)   -178.3069                                         !
 ! D375  D(139,138,141,144)    -57.3926                                         !
 ! D376  D(140,138,141,142)    179.9722                                         !
 ! D377  D(140,138,141,143)    -62.4754                                         !
 ! D378  D(140,138,141,144)     58.439                                          !
 ! D379  D(138,141,144,145)    -60.194                                          !
 ! D380  D(138,141,144,146)     62.3302                                         !
 ! D381  D(138,141,144,147)   -178.8254                                         !
 ! D382  D(142,141,144,145)    178.1321                                         !
 ! D383  D(142,141,144,146)    -59.3437                                         !
 ! D384  D(142,141,144,147)     59.5007                                         !
 ! D385  D(143,141,144,145)     60.6579                                         !
 ! D386  D(143,141,144,146)   -176.8179                                         !
 ! D387  D(143,141,144,147)    -57.9735                                         !
 ! D388  D(141,144,147,148)    179.6554                                         !
 ! D389  D(141,144,147,149)     59.3607                                         !
 ! D390  D(141,144,147,150)    -59.9678                                         !
 ! D391  D(145,144,147,148)     57.3589                                         !
 ! D392  D(145,144,147,149)    -62.9358                                         !
 ! D393  D(145,144,147,150)    177.7357                                         !
 ! D394  D(146,144,147,148)    -57.7576                                         !
 ! D395  D(146,144,147,149)   -178.0523                                         !
 ! D396  D(146,144,147,150)     62.6192                                         !
 --------------------------------------------------------------------------------
 Symmetry turned off by external request.
 Stoichiometry    C45H81N12O14(1+)
 Framework group  C1[X(C45H81N12O14)]
 Deg. of freedom   450
 Full point group                 C1      NOp   1
                          Input orientation:                          
 ---------------------------------------------------------------------
[...]
 Alpha virt. eigenvalues --    1.81906   1.82070   1.82224   1.82524   1.83224
 Alpha virt. eigenvalues --    1.83388   1.83560   1.83758   1.84021   1.84403
 Alpha virt. eigenvalues --    1.85072   1.85198   1.85612   1.85920   1.86172
 Alpha virt. eigenvalues --    1.86205   1.86733   1.87282   1.87479   1.87575
 Alpha virt. eigenvalues --    1.87656   1.87738   1.88217   1.88725   1.88806
 Alpha virt. eigenvalues --    1.89188   1.89439   1.89634   1.89833   1.90248
 Alpha virt. eigenvalues --    1.90479   1.90715   1.90935   1.91321   1.91841
 Alpha virt. eigenvalues --    1.92255   1.92311   1.92586   1.93102   1.93908
 Alpha virt. eigenvalues --    1.94191   1.94378   1.94976   1.95308   1.95515
 Alpha virt. eigenvalues --    1.95649   1.95800   1.95895   1.96028   1.96288
 Alpha virt. eigenvalues --    1.96613   1.97103   1.97359   1.97611   1.97826
 Alpha virt. eigenvalues --    1.97977   1.98200   1.98474   1.98947   1.99176
 Alpha virt. eigenvalues --    1.99410   1.99923   2.00046   2.00656   2.00936
 Alpha virt. eigenvalues --    2.01412   2.01776   2.01995   2.02261   2.02672
 Alpha virt. eigenvalues --    2.03089   2.03361   2.03693   2.04068   2.04456
 Alpha virt. eigenvalues --    2.04757   2.05303   2.05650   2.05756   2.06213
 Alpha virt. eigenvalues --    2.06319   2.06839   2.06940   2.07335   2.07416
 Alpha virt. eigenvalues --    2.07843   2.08043   2.08344   2.08861   2.09138
 Alpha virt. eigenvalues --    2.09598   2.09638   2.10043   2.10791   2.10978
 Alpha virt. eigenvalues --    2.11085   2.11797   2.12444   2.12509   2.13277
 Alpha virt. eigenvalues --    2.13596   2.13662   2.14000   2.15269   2.15277
 Alpha virt. eigenvalues --    2.15733   2.16202   2.16880   2.17878   2.18084
 Alpha virt. eigenvalues --    2.18605   2.19100   2.19157   2.19550   2.19934
 Alpha virt. eigenvalues --    2.20399   2.20533   2.20923   2.21210   2.21502
 Alpha virt. eigenvalues --    2.21986   2.22315   2.22406   2.22987   2.23740
 Alpha virt. eigenvalues --    2.23871   2.24114   2.24543   2.25206   2.25619
 Alpha virt. eigenvalues --    2.26193   2.26348   2.26749   2.27368   2.27696
 Alpha virt. eigenvalues --    2.27957   2.28206   2.28339   2.28829   2.28957
 Alpha virt. eigenvalues --    2.30166   2.30537   2.31077   2.31372   2.31809
 Alpha virt. eigenvalues --    2.32406   2.33028   2.33609   2.33987   2.34115
 Alpha virt. eigenvalues --    2.34670   2.35447   2.36555   2.37268   2.37646
 Alpha virt. eigenvalues --    2.37971   2.38356   2.38581   2.39406   2.39910
 Alpha virt. eigenvalues --    2.40376   2.40704   2.41122   2.41419   2.42474
 Alpha virt. eigenvalues --    2.42876   2.42912   2.43280   2.43607   2.43821
 Alpha virt. eigenvalues --    2.44439   2.44805   2.45159   2.45805   2.46299
 Alpha virt. eigenvalues --    2.46542   2.47708   2.47860   2.47955   2.48439
 Alpha virt. eigenvalues --    2.49562   2.50144   2.50247   2.50459   2.51080
 Alpha virt. eigenvalues --    2.51943   2.52755   2.52957   2.53719   2.53790
 Alpha virt. eigenvalues --    2.53965   2.54886   2.55035   2.55747   2.56374
 Alpha virt. eigenvalues --    2.56542   2.56854   2.56990   2.57603   2.58647
 Alpha virt. eigenvalues --    2.58859   2.59388   2.59921   2.60140   2.60588
 Alpha virt. eigenvalues --    2.60988   2.61679   2.62087   2.62528   2.63846
 Alpha virt. eigenvalues --    2.65451   2.65758   2.66193   2.67131   2.67811
 Alpha virt. eigenvalues --    2.69165   2.69516   2.69543   2.70167   2.70729
 Alpha virt. eigenvalues --    2.71232   2.71977   2.72157   2.72479   2.72766
 Alpha virt. eigenvalues --    2.73037   2.74996   2.75639   2.76208   2.77400
 Alpha virt. eigenvalues --    2.78193   2.79563   2.80197   2.80300   2.81021
 Alpha virt. eigenvalues --    2.81081   2.82310   2.84025   2.84482   2.85841
 Alpha virt. eigenvalues --    2.86187   2.87393   2.88018   2.88100   2.88766
 Alpha virt. eigenvalues --    2.89655   2.89852   2.91625   2.92159   2.92709
 Alpha virt. eigenvalues --    2.93530   2.94698   2.95421   2.97706   2.97809
 Alpha virt. eigenvalues --    2.98069   2.98951   2.99288   3.01035   3.01112
 Alpha virt. eigenvalues --    3.01522   3.02128   3.02889   3.04363   3.07387
 Alpha virt. eigenvalues --    3.09166   3.10314   3.11573   3.11617   3.12044
 Alpha virt. eigenvalues --    3.13639   3.15976   3.20602   3.54943   3.71558
 Alpha virt. eigenvalues --    3.74135   3.75586   3.77689   3.92976   3.95482
 Alpha virt. eigenvalues --    3.96103   3.97489   3.97792   3.98242   3.99210
 Alpha virt. eigenvalues --    4.00905   4.01949   4.02439   4.06656   4.09150
 Alpha virt. eigenvalues --    4.09961   4.10304   4.11488   4.12882   4.13351
 Alpha virt. eigenvalues --    4.14051   4.14464   4.15141   4.16246   4.17029
 Alpha virt. eigenvalues --    4.17711   4.18451   4.20102   4.20688   4.22997
 Alpha virt. eigenvalues --    4.23192   4.23678   4.25132   4.26107   4.26415
 Alpha virt. eigenvalues --    4.27343   4.27772   4.29382   4.30810   4.31682
 Alpha virt. eigenvalues --    4.32019   4.33127   4.34393   4.35160   4.36402
 Alpha virt. eigenvalues --    4.38191   4.39544   4.41432   4.43061   4.44688
 Alpha virt. eigenvalues --    4.46203   4.46739   4.46914   4.47660   4.48577
 Alpha virt. eigenvalues --    4.49784   4.50593   4.52259   4.53224   4.55825
 Alpha virt. eigenvalues --    4.57141   4.58230   4.59947   4.60575   4.63117
 Alpha virt. eigenvalues --    4.64211   4.67446   4.68627   4.71770
          Condensed to atoms (all electrons):
 Mulliken charges:
               1
     1  N   -0.767530
     2  H    0.457621
     3  H    0.402969
     4  H    0.409055
     5  C   -0.102110
     6  H    0.202952
     7  C    0.624914
     8  C   -0.463241
     9  H    0.211028
    10  H    0.202146
    11  H    0.172379
    12  O   -0.516571
    13  N   -0.595950
    14  H    0.369308
    15  C   -0.059231
    16  H    0.216158
    17  C    0.640201
    18  C   -0.386270
    19  H    0.213118
    20  H    0.184740
    21  O   -0.556346
    22  C    0.627191
    23  N   -0.714035
    24  H    0.371406
    25  H    0.382496
    26  O   -0.581361
    27  N   -0.596499
    28  H    0.351565
    29  C   -0.060162
    30  H    0.180786
    31  C    0.598880
    32  C   -0.316095
    33  H    0.152203
    34  H    0.204558
    35  O   -0.525787
    36  C   -0.315160
    37  H    0.100126
    38  H    0.113199
    39  C    0.545467
    40  O   -0.579615
    41  O   -0.569029
    42  N   -0.620949
    43  H    0.350096
    44  C   -0.076398
    45  H    0.178075
    46  C    0.640346
    47  C   -0.251476
    48  H    0.148510
    49  H    0.091498
    50  O   -0.537570
    51  C   -0.085234
    52  H    0.178679
    53  C   -0.457022
    54  H    0.123146
    55  H    0.162219
    56  H    0.152697
    57  C   -0.444999
    58  H    0.121146
    59  H    0.146189
    60  H    0.146731
    61  N   -0.602714
    62  H    0.364677
    63  C   -0.052233
    64  H    0.167075
    65  C    0.632757
    66  C   -0.289911
    67  H    0.148291
    68  H    0.131411
    69  O   -0.536690
    70  C   -0.069286
    71  H    0.133179
    72  C   -0.471970
    73  H    0.111772
    74  H    0.119499
    75  H    0.236591
    76  C   -0.475605
    77  H    0.121780
    78  H    0.117280
    79  H    0.205377
    80  N   -0.609068
    81  H    0.348579
    82  C   -0.047551
    83  H    0.180536
    84  C    0.625977
    85  C   -0.069526
    86  H    0.137837
    87  O   -0.570788
    88  C   -0.267631
    89  H    0.168456
    90  H    0.125742
    91  C   -0.482735
    92  H    0.158072
    93  H    0.145041
    94  H    0.152636
    95  C   -0.471153
    96  H    0.140338
    97  H    0.190624
    98  H    0.131574
    99  N   -0.612798
   100  H    0.388066
   101  C   -0.073823
   102  H    0.192248
   103  C    0.639241
   104  C   -0.377330
   105  H    0.200999
   106  H    0.147752
   107  O   -0.563508
   108  C    0.643345
   109  N   -0.740781
   110  H    0.333610
   111  H    0.347898
   112  O   -0.524828
   113  N   -0.632700
   114  H    0.389890
   115  C   -0.035547
   116  H    0.161891
   117  C    0.630309
   118  C   -0.104212
   119  H    0.164164
   120  O   -0.518287
   121  C   -0.462375
   122  H    0.137922
   123  H    0.154983
   124  H    0.168383
   125  C   -0.479204
   126  H    0.144727
   127  H    0.156128
   128  H    0.171511
   129  N   -0.638190
   130  H    0.365698
   131  C    0.017459
   132  H    0.181200
   133  C    0.602437
   134  C   -0.319124
   135  H    0.171106
   136  H    0.158881
   137  O   -0.472811
   138  C   -0.280628
   139  H    0.164820
   140  H    0.184868
   141  C   -0.287360
   142  H    0.163168
   143  H    0.168275
   144  C   -0.204104
   145  H    0.228800
   146  H    0.225749
   147  N   -0.694763
   148  H    0.397844
   149  H    0.393035
   150  H    0.391145
   151  O   -0.556682
   152  H    0.418109
 Sum of Mulliken charges =   1.00000
 Mulliken charges with hydrogens summed into heavy atoms:
               1
     1  N    0.502115
     5  C    0.100841
     7  C    0.624914
     8  C    0.122312
    12  O   -0.516571
    13  N   -0.226642
    15  C    0.156927
    17  C    0.640201
    18  C    0.011587
    21  O   -0.556346
    22  C    0.627191
    23  N    0.039867
    26  O   -0.581361
    27  N   -0.244934
    29  C    0.120625
    31  C    0.598880
    32  C    0.040665
    35  O   -0.525787
    36  C   -0.101836
    39  C    0.545467
    40  O   -0.579615
    41  O   -0.569029
    42  N   -0.270853
    44  C    0.101677
    46  C    0.640346
    47  C   -0.011467
    50  O   -0.537570
    51  C    0.093445
    53  C   -0.018960
    57  C   -0.030933
    61  N   -0.238037
    63  C    0.114842
    65  C    0.632757
    66  C   -0.010209
    69  O   -0.536690
    70  C    0.063893
    72  C   -0.004108
    76  C   -0.031168
    80  N   -0.260489
    82  C    0.132984
    84  C    0.625977
    85  C    0.068312
    87  O   -0.570788
    88  C    0.026567
    91  C   -0.026987
    95  C   -0.008617
    99  N   -0.224732
   101  C    0.118425
   103  C    0.639241
   104  C   -0.028578
   107  O   -0.563508
   108  C    0.643345
   109  N   -0.059273
   112  O   -0.524828
   113  N   -0.242810
   115  C    0.126344
   117  C    0.630309
   118  C    0.059952
   120  O   -0.518287
   121  C   -0.001087
   125  C   -0.006838
   129  N   -0.272492
   131  C    0.198659
   133  C    0.602437
   134  C    0.010863
   137  O   -0.472811
   138  C    0.069060
   141  C    0.044083
   144  C    0.250445
   147  N    0.487261
   151  O   -0.138573
 Electronic spatial extent (au):  <R**2>=         143014.3831
 Charge=              1.0000 electrons
 Dipole moment (field-independent basis, Debye):
    X=             49.9335    Y=              7.2784    Z=              7.3287  Tot=             50.9906
 Quadrupole moment (field-independent basis, Debye-Ang):
   XX=            333.5446   YY=           -434.6586   ZZ=            353.3296
   XY=              2.4979   XZ=            823.7161   YZ=              9.5740
 Traceless Quadrupole moment (field-independent basis, Debye-Ang):
   XX=            249.4727   YY=           -518.7305   ZZ=            269.2577
   XY=              2.4979   XZ=            823.7161   YZ=              9.5740
 Octapole moment (field-independent basis, Debye-Ang**2):
  XXX=           7159.6525  YYY=           -412.8496  ZZZ=           2204.5872  XYY=           -603.6677
  XXY=            916.5205  XXZ=           6060.7984  XZZ=           3194.1543  YZZ=            240.2652
  YYZ=             73.6509  XYZ=            458.9556
 Hexadecapole moment (field-independent basis, Debye-Ang**3):
 XXXX=          22721.1197 YYYY=         -11836.0620 ZZZZ=          18347.1565 XXXY=          -2020.1162
 XXXZ=          77782.5800 YYYX=          -9302.6711 YYYZ=          -6362.6440 ZZZX=          54829.8415
 ZZZY=          -4516.9211 XXYY=         -17282.8090 XXZZ=          65658.7190 YYZZ=         -13113.9950
 XXYZ=           3652.3408 YYXZ=          -9617.6575 ZZXY=           -214.4210
 N-N= 1.159364389363D+04 E-N=-3.125445168891D+04  KE= 3.441092201450D+03
 Unable to Open any file for archive entry.
 1\1\GINC-LAC-259\SP\RB3LYP\6-31G(d)\C45H81N12O14(1+)\KENGMITH\11-Jul-2
 022\0\\# B3LYP/6-31G* guess=read geom=check nosymm integral(ultrafineg
 rid)\\Candidate Structure: Conf:217 Charge calc in gas phase\\1,1\N,0,
 -6.8214370927,0.1426737618,-10.2396417192\H,0,-6.0357725394,-0.4227991
 129,-9.7840946093\H,0,-6.4746398006,0.6354366658,-11.0692143289\H,0,-7
 .5442306838,-0.5289468025,-10.5302280265\C,0,-7.4375896105,1.078564795
 1,-9.2016056453\H,0,-6.6775945635,1.8239316719,-8.9544494253\C,0,-7.68
 32275187,0.0836058301,-8.0496143901\C,0,-8.7060184379,1.7292008965,-9.
 7349423004\H,0,-9.1019390039,2.4131144816,-8.9787613958\H,0,-9.4692754
 086,0.9704889198,-9.9365643882\H,0,-8.513473244,2.3085260491,-10.64538
 661\O,0,-8.5118915514,-0.8051856879,-8.230405784\N,0,-6.8419262946,0.1
 845261157,-7.0100801441\H,0,-6.120132696,0.9046198725,-6.9536031073\C,
 0,-6.5738503717,-0.9339873332,-6.1219122934\H,0,-7.5082693585,-1.28793
 19321,-5.6757418579\C,0,-5.59049649,-0.4006588079,-5.0586707245\C,0,-5
 .9411190701,-2.1167032077,-6.9302065723\H,0,-6.7058057236,-2.497242539
 6,-7.6121287394\H,0,-5.6687451848,-2.9254945795,-6.244499184\O,0,-4.94
 62418974,0.6283491687,-5.3110052666\C,0,-4.7315327901,-1.6847883945,-7
 .7557558403\N,0,-3.5237544926,-1.913180521,-7.219925222\H,0,-2.6993889
 664,-1.5610820313,-7.6956484972\H,0,-3.4031773466,-2.2468101213,-6.271
 1589153\O,0,-4.8410647659,-1.1463716868,-8.8803793861\N,0,-5.459280784
 ,-1.1379605069,-3.9501327885\H,0,-5.9559170291,-2.0201624904,-3.868958
 2217\C,0,-4.4609364711,-0.8616393186,-2.8993559159\H,0,-4.3802434202,0
 .2272915493,-2.8231106628\C,0,-3.0755837283,-1.4176323521,-3.320605887
 9\C,0,-4.9155435367,-1.4494932474,-1.5630449832\H,0,-5.1002219306,-2.5
 265754755,-1.6852489049\H,0,-4.0732834018,-1.3649218692,-0.8737071065\
 O,0,-2.6703571622,-2.5186656706,-2.9546749378\C,0,-6.1177292663,-0.770
 2445547,-0.8991203227\H,0,-7.043969665,-0.9383398769,-1.4654324712\H,0
 ,-5.9296902085,0.3099509753,-0.8220203272\C,0,-6.2440649641,-1.3880052
 542,0.5434551256\O,0,-5.4575693212,-0.9053198073,1.4071188755\O,0,-7.0
 496220861,-2.3416165078,0.6507938122\N,0,-2.328158851,-0.5869176225,-4
 .1235265487\H,0,-2.7108242732,0.3355129681,-4.3071178095\C,0,-0.860807
 4825,-0.7363904612,-4.2332715333\H,0,-0.67955157,-1.8142168208,-4.2454
 417733\C,0,-0.1884302183,-0.1248568374,-2.9717726973\C,0,-0.3605627771
 ,-0.0750581099,-5.5251253925\H,0,-0.6435753747,0.9863211456,-5.5023912
 774\H,0,-0.9055548391,-0.5360788483,-6.3660062136\O,0,0.4158021091,0.9
 464451711,-3.0216195159\C,0,1.1577016829,-0.1659950169,-5.7971522559\H
 ,0,1.6588915809,0.3353299504,-4.9629428721\C,0,1.6659668616,-1.6156716
 76,-5.8773175166\H,0,1.2295784751,-2.1457054944,-6.7370241333\H,0,1.43
 78789798,-2.1858078601,-4.9697595265\H,0,2.7547060445,-1.6368547169,-5
 .9982808365\C,0,1.5020800405,0.6148280879,-7.0765018431\H,0,0.97440193
 38,0.2049018469,-7.9504124446\H,0,1.2309184344,1.6734244672,-6.9824536
 733\H,0,2.5771025351,0.5652435188,-7.2918864564\N,0,-0.3983200467,-0.8
 051612537,-1.8140301799\H,0,-0.7879781316,-1.741210573,-1.8598477448\C
 ,0,0.2982457526,-0.397746634,-0.5989792712\H,0,0.1965598137,0.68739683
 93,-0.5142637279\C,0,1.7847660967,-0.7805952239,-0.7331974192\C,0,-0.2
 993948126,-1.0784334435,0.6546249418\H,0,-0.0438141682,-2.1482918898,0
 .6168750492\H,0,0.2172464198,-0.6631072596,1.5327672828\O,0,2.12338911
 85,-1.8434649532,-1.2424821513\C,0,-1.8248519839,-0.9089953818,0.84184
 49845\H,0,-2.3170387014,-1.4230158495,0.0049068637\C,0,-2.2955076324,-
 1.6013816587,2.1310622976\H,0,-1.8391919436,-1.1345765439,3.0162713768
 \H,0,-2.0327345105,-2.6682943417,2.1402017628\H,0,-3.3828684536,-1.505
 9935733,2.2192288547\C,0,-2.2853871344,0.5590287279,0.843789888\H,0,-1
 .813289617,1.1102949982,1.6714834189\H,0,-2.023900157,1.0764471363,-0.
 0898161058\H,0,-3.3769851078,0.6007642635,0.9719062453\N,0,2.673397861
 7,0.1209845062,-0.2240164826\H,0,2.3367194296,0.9452346457,0.262747598
 4\C,0,4.0771439235,-0.2040896563,-0.0082825882\H,0,4.1665833221,-1.292
 2628672,-0.0917391383\C,0,4.3962321976,0.2481359975,1.4229850276\C,0,5
 .0264211117,0.4612941092,-1.0548174287\H,0,4.8505006336,1.5451783103,-
 0.9886115617\O,0,3.9143718386,1.3014008868,1.8756217513\C,0,4.66871574
 09,0.0388371635,-2.5022687641\H,0,3.6230353359,0.30855026,-2.693984776
 6\H,0,5.2739105036,0.6673576415,-3.1723688615\C,0,6.509051443,0.195321
 0494,-0.7297674071\H,0,6.7136407358,-0.8697226421,-0.5643313945\H,0,6.
 8402157654,0.7377073023,0.1623476091\H,0,7.1417509201,0.5191996451,-1.
 5644019366\C,0,4.8943103177,-1.4414899939,-2.8542053297\H,0,4.59630087
 93,-1.6285392105,-3.8942569833\H,0,4.28436483,-2.0987333237,-2.2292619
 994\H,0,5.9482266969,-1.7327246752,-2.7615460298\N,0,5.2006382798,-0.5
 535402013,2.1593200094\H,0,5.7411341062,-1.3122618892,1.7424581213\C,0
 ,5.5876577223,-0.2024267437,3.5267427804\H,0,4.7102055851,0.2698958554
 ,3.9826394412\C,0,6.736593767,0.8325725325,3.5683172606\C,0,5.94402557
 52,-1.4786049707,4.3024435128\H,0,5.073207996,-2.1456034385,4.25731623
 23\H,0,6.1173927345,-1.2340885536,5.355447374\O,0,7.8914538515,0.50581
 9571,3.8754761291\C,0,7.1138057887,-2.2552617574,3.6892627731\N,0,8.02
 60689372,-2.7635111734,4.5612506866\H,0,8.0660954287,-2.4580108595,5.5
 217908677\H,0,8.8296992166,-3.2409315917,4.1728304607\O,0,7.1773800524
 ,-2.4827451917,2.4808681844\N,0,6.3563833607,2.0918018901,3.2558232053
 \H,0,5.3993739469,2.2068933058,2.9169036458\C,0,7.3252482895,3.1871444
 857,3.0850952048\H,0,8.209932232,2.7596606099,2.594795852\C,0,7.736657
 5673,3.7001446569,4.4863938031\C,0,6.7731803594,4.3395939594,2.2185881
 931\H,0,5.9432774136,4.7956146765,2.7755116494\O,0,7.2057113715,4.6538
 426661,5.0446856741\C,0,7.8639140221,5.4075349315,2.0203019603\H,0,8.7
 188937488,4.9976714028,1.4643335316\H,0,7.4650779443,6.2466891314,1.43
 9929188\H,0,8.228127562,5.8023205386,2.9729753338\C,0,6.2567370208,3.8
 494936915,0.8533901794\H,0,7.043381879,3.3218633473,0.2973183942\H,0,5
 .9443672287,4.7085105197,0.2481405214\H,0,5.394701192,3.1808007348,0.9
 36229423\N,0,8.7714296579,3.0121311396,5.0585291437\H,0,8.9655235589,2
 .0863100188,4.6771392252\C,0,9.1511846106,3.3267339603,6.4207344726\H,
 0,8.2982884599,3.229149789,7.1051867942\C,0,9.6026460784,4.783635535,6
 .5858467727\C,0,10.289577753,2.3863939389,6.8748931615\H,0,11.17183679
 32,2.5660253235,6.2453897634\H,0,9.9727489601,1.3492673507,6.696554601
 4\O,0,9.4270655842,5.4222260593,7.6010996855\C,0,10.6389088626,2.57678
 70074,8.3609123548\H,0,9.7437857401,2.3915728043,8.9705142862\H,0,10.9
 208419964,3.6206952913,8.5439058979\C,0,11.7793964052,1.6520255005,8.8
 276246798\H,0,11.5125938238,0.5992251795,8.6515520317\H,0,12.686708964
 2,1.8558306879,8.2395069626\C,0,12.0622961633,1.8789737369,10.31176742
 46\H,0,12.3632799447,2.9086023058,10.5213554869\H,0,11.2028691664,1.63
 43617478,10.9411258696\N,0,13.2111295475,0.996932133,10.8062745347\H,0
 ,13.4120968053,1.1501609799,11.811425772\H,0,14.0823812836,1.190232347
 ,10.2795355122\H,0,12.9924498958,-0.0082112738,10.6800875759\O,0,10.31
 4125851,5.2384449804,5.5327746263\H,0,10.5548527334,6.1624979315,5.747
 3939215\\Version=ES64L-G16RevC.01\HF=-3473.6351321\RMSD=5.328e-11\Dipo
 le=16.448507,2.197577,3.6618785\Quadrupole=185.4768668,-385.6633869,20
 0.1865201,1.8571362,612.4127347,7.1180304\PG=C01 [X(C45H81N12O14)]\\@
 The archive entry for this job was punched.


 ... THIS SEEMS PLAINLY ABSURD; BUT WHOEVER WISHES TO BECOME A 
 PHILOSOPHER MUST LEARN NOT TO BE FRIGHTENED BY ABSURDITIES.

                          -- BERTRAND RUSSELL
 Job cpu time:       0 days  0 hours 11 minutes  6.0 seconds.
 Elapsed time:       0 days  0 hours  2 minutes 48.1 seconds.
 File lengths (MBytes):  RWF=    896 Int=      0 D2E=      0 Chk=    144 Scr=     16
 Normal termination of Gaussian 16 at Mon Jul 11 13:23:49 2022.
