 Entering Gaussian System, Link 0=/opt/software/Gaussian/g16-AVX2-C.01/g16/g16
 Input=charge-conf-978.com
 Output=charge-conf-978.log
 Initial command:
 /opt/software/Gaussian/g16-AVX2-C.01/g16/l1.exe "/mnt/gs18/scratch/users/kengmith/Gau-59402.inp" -scrdir="/mnt/gs18/scratch/users/kengmith/"
 Entering Link 1 = /opt/software/Gaussian/g16-AVX2-C.01/g16/l1.exe PID=     59421.
  
 Copyright (c) 1988-2019, Gaussian, Inc.  All Rights Reserved.
  
 This is part of the Gaussian(R) 16 program.  It is based on
 the Gaussian(R) 09 system (copyright 2009, Gaussian, Inc.),
 the Gaussian(R) 03 system (copyright 2003, Gaussian, Inc.),
 the Gaussian(R) 98 system (copyright 1998, Gaussian, Inc.),
 the Gaussian(R) 94 system (copyright 1995, Gaussian, Inc.),
 the Gaussian 92(TM) system (copyright 1992, Gaussian, Inc.),
 the Gaussian 90(TM) system (copyright 1990, Gaussian, Inc.),
 the Gaussian 88(TM) system (copyright 1988, Gaussian, Inc.),
 the Gaussian 86(TM) system (copyright 1986, Carnegie Mellon
 University), and the Gaussian 82(TM) system (copyright 1983,
 Carnegie Mellon University). Gaussian is a federally registered
 trademark of Gaussian, Inc.
  
 This software contains proprietary and confidential information,
 including trade secrets, belonging to Gaussian, Inc.
  
 This software is provided under written license and may be
 used, copied, transmitted, or stored only in accord with that
 written license.
  
 The following legend is applicable only to US Government
 contracts under FAR:
  
                    RESTRICTED RIGHTS LEGEND
  
 Use, reproduction and disclosure by the US Government is
 subject to restrictions as set forth in subparagraphs (a)
 and (c) of the Commercial Computer Software - Restricted
 Rights clause in FAR 52.227-19.
  
 Gaussian, Inc.
 340 Quinnipiac St., Bldg. 40, Wallingford CT 06492
  
  
 ---------------------------------------------------------------
 Warning -- This program may not be used in any manner that
 competes with the business of Gaussian, Inc. or will provide
 assistance to any competitor of Gaussian, Inc.  The licensee
 of this program is prohibited from giving any competitor of
 Gaussian, Inc. access to this program.  By using this program,
 the user acknowledges that Gaussian, Inc. is engaged in the
 business of creating and licensing software in the field of
 computational chemistry and represents and warrants to the
 licensee that it is not a competitor of Gaussian, Inc. and that
 it will not use this program in any manner prohibited above.
 ---------------------------------------------------------------
  

 Cite this work as:
 Gaussian 16, Revision C.01,
 M. J. Frisch, G. W. Trucks, H. B. Schlegel, G. E. Scuseria, 
 M. A. Robb, J. R. Cheeseman, G. Scalmani, V. Barone, 
 G. A. Petersson, H. Nakatsuji, X. Li, M. Caricato, A. V. Marenich, 
 J. Bloino, B. G. Janesko, R. Gomperts, B. Mennucci, H. P. Hratchian, 
 J. V. Ortiz, A. F. Izmaylov, J. L. Sonnenberg, D. Williams-Young, 
 F. Ding, F. Lipparini, F. Egidi, J. Goings, B. Peng, A. Petrone, 
 T. Henderson, D. Ranasinghe, V. G. Zakrzewski, J. Gao, N. Rega, 
 G. Zheng, W. Liang, M. Hada, M. Ehara, K. Toyota, R. Fukuda, 
 J. Hasegawa, M. Ishida, T. Nakajima, Y. Honda, O. Kitao, H. Nakai, 
 T. Vreven, K. Throssell, J. A. Montgomery, Jr., J. E. Peralta, 
 F. Ogliaro, M. J. Bearpark, J. J. Heyd, E. N. Brothers, K. N. Kudin, 
 V. N. Staroverov, T. A. Keith, R. Kobayashi, J. Normand, 
 K. Raghavachari, A. P. Rendell, J. C. Burant, S. S. Iyengar, 
 J. Tomasi, M. Cossi, J. M. Millam, M. Klene, C. Adamo, R. Cammi, 
 J. W. Ochterski, R. L. Martin, K. Morokuma, O. Farkas, 
 J. B. Foresman, and D. J. Fox, Gaussian, Inc., Wallingford CT, 2019.
 
 ******************************************
 Gaussian 16:  ES64L-G16RevC.01  3-Jul-2019
                12-Jun-2022 
 ******************************************
 %mem=8gb
 %nproc=4
 Will use up to    4 processors via shared memory.
 %chk=conf-978.chk
 ----------------------------------------------------------------------
 # B3LYP/6-31G* empiricaldispersion=gd3 guess=read geom=check nosymm in
 tegral(ultrafinegrid)
 ----------------------------------------------------------------------
 1/29=2,38=1,172=1/1;
 2/12=2,15=1,40=1/2;
 3/5=1,6=6,7=1,11=2,14=-4,25=1,30=1,74=-5,75=-5,116=-2,124=31/1,2,3;
 4/5=1/1;
 5/5=2,38=6/2;
 6/7=2,8=2,9=2,10=2,28=1/1;
 99/5=1,9=1/99;
 ------------------------------------------------------
 Candidate Structure: Conf:978 Charge calc in gas phase
 ------------------------------------------------------
 Structure from the checkpoint file:  "conf-978.chk"
 Charge =  1 Multiplicity = 1
 Redundant internal coordinates found in file.  (old form).
 N,0,-9.5916986043,-0.23252349,-7.6822400039
 H,0,-9.3930344822,-0.6340905177,-8.602146547
 H,0,-10.110558156,-0.9532223271,-7.1126549209
 H,0,-10.1018566422,0.6571712475,-7.7949112222
 C,0,-8.3565875942,0.0122508187,-6.8593544102
 H,0,-7.5063377434,0.161640897,-7.5284402775
 C,0,-8.233708395,-1.249210993,-5.9721481932
 C,0,-8.6350453277,1.2671638072,-5.9994079714
 H,0,-7.7059999171,1.5935210519,-5.5205287736
 H,0,-9.3504290415,1.0088189135,-5.2116269194
 O,0,-9.2466613556,-1.9571636049,-5.85891475
 O,0,-9.2474608775,2.2733537838,-6.7931211046
 H,0,-8.5691780604,2.85324393,-7.1738869892
 N,0,-7.0715744776,-1.4048147611,-5.3652939242
 H,0,-6.2808294394,-0.7521555239,-5.4622318435
 C,0,-6.77151443,-2.4023465744,-4.3396739166
 H,0,-7.5802053814,-2.399767491,-3.6000729049
 C,0,-5.4670943045,-1.8674084867,-3.6939811127
 C,0,-6.6057688521,-3.808128203,-4.9311048991
 H,0,-6.3756149041,-4.5286005707,-4.1408738034
 H,0,-5.7864710578,-3.8220315979,-5.6567623922
 H,0,-7.5316557996,-4.1178309765,-5.4238983356
 O,0,-4.8823684366,-0.9108008452,-4.228074362
 N,0,-5.0595347902,-2.5207745303,-2.6120693669
 H,0,-5.5897178155,-3.2915468562,-2.2128701054
 C,0,-3.8811717119,-2.168615207,-1.8268416244
 H,0,-3.0969986699,-1.7975725789,-2.4928019132
 C,0,-3.4561272571,-3.4692832991,-1.1291798976
 C,0,-4.2424877329,-1.068394651,-0.7882206534
 H,0,-4.9901034402,-1.4930584076,-0.1071837574
 O,0,-4.3304337715,-4.2600178088,-0.7440489723
 C,0,-3.0261462241,-0.586279456,-0.0018830926
 H,0,-2.6004491591,-1.3878356986,0.6092064345
 H,0,-2.2377116544,-0.2475237345,-0.6823454676
 H,0,-3.334643628,0.238542143,0.6486833751
 O,0,-4.9209119822,0.0057787634,-1.4419984743
 H,0,-4.3524291614,0.2982709377,-2.173834267
 N,0,-2.1360811881,-3.6178557574,-0.9942894618
 H,0,-1.5205326862,-2.9068603227,-1.4327996259
 C,0,-1.5453778092,-4.7102649867,-0.2487068195
 H,0,-2.3783041824,-5.197338746,0.2759150273
 C,0,-0.6706019177,-4.0833598637,0.8593756732
 C,0,-0.8616266714,-5.7754593755,-1.1546646183
 H,0,0.154630716,-5.4271709847,-1.3743448213
 O,0,-1.0315431179,-3.0593795406,1.4432780861
 C,0,-0.8341420003,-7.1469210678,-0.4550784974
 H,0,-1.8534015796,-7.5436716921,-0.3648743509
 H,0,-0.4142226032,-7.1052740461,0.5558544681
 H,0,-0.2472459176,-7.8673953047,-1.0361112208
 C,0,-1.5881672948,-5.8950650628,-2.50194464
 H,0,-2.6580381412,-6.0861170614,-2.3527526305
 H,0,-1.4793961409,-4.9777478247,-3.0860882913
 H,0,-1.1679877256,-6.7244215768,-3.0829739247
 N,0,0.4666739042,-4.7489831302,1.2298407971
 H,0,0.8942694328,-5.335566799,0.5272468276
 C,0,1.3715657587,-4.1748741581,2.2279283273
 H,0,0.7295711028,-3.5683957524,2.8721175653
 C,0,2.3442253845,-3.2162809357,1.5195643814
 C,0,2.0461871994,-5.2651392427,3.0889133325
 H,0,1.2225780985,-5.7235501349,3.6555025841
 O,0,3.5445272338,-3.4838732293,1.3412920866
 C,0,3.0442328721,-4.6734413493,4.1099054703
 H,0,3.956487997,-4.3840569181,3.5774100415
 H,0,3.3240232297,-5.47897228,4.8013989595
 C,0,2.7244856819,-6.3696443046,2.2622173759
 H,0,3.4935218579,-5.9469390477,1.6102506677
 H,0,2.0019805352,-6.9182675671,1.6477214487
 H,0,3.1978955102,-7.1019085935,2.9264939926
 C,0,2.5200515375,-3.4791309662,4.9181025418
 H,0,3.2271658052,-3.2078878506,5.7140170085
 H,0,2.3729620322,-2.5910620143,4.29122757
 H,0,1.5609550417,-3.7052656645,5.3996463818
 N,0,1.7796074259,-2.0638528262,1.0930670482
 H,0,0.765742797,-2.0073110552,1.1788008974
 C,0,2.3861087014,-1.2948843082,-0.0119915627
 H,0,2.9896458814,-2.0022614065,-0.5906696529
 C,0,3.3089765286,-0.2566882999,0.6351959231
 C,0,1.3005600083,-0.7249605001,-0.911717716
 H,0,0.6692321969,-0.0173958673,-0.3637653133
 H,0,1.7624907564,-0.1535415857,-1.7249254893
 O,0,3.0792443716,0.9536015489,0.6929114374
 C,0,0.412118942,-1.8549898477,-1.5038772669
 O,0,-0.6817310746,-1.4792675281,-2.0138816611
 O,0,0.8197362136,-3.0378762914,-1.3798165332
 N,0,4.400843344,-0.8231132145,1.2338327046
 H,0,4.4251164693,-1.8489413235,1.2372760462
 C,0,5.0590588307,-0.1015254338,2.303645414
 H,0,4.303283132,0.5275799638,2.7934111018
 C,0,6.1653013175,0.8355002685,1.7759565807
 C,0,5.6700232603,-1.0623733544,3.3352839789
 H,0,6.591067,-1.4853817444,2.9200327643
 H,0,4.972417725,-1.8810211837,3.5371877031
 O,0,7.3622333081,0.5470490074,1.872141036
 C,0,5.9633721805,-0.3682222461,4.6288198911
 C,0,5.6762162419,-0.7614693769,5.9086771102
 H,0,5.1946956839,-1.6549853799,6.2732127171
 N,0,6.5678419328,0.8799137498,4.7427700648
 H,0,6.8931427522,1.5364891893,3.9913303858
 C,0,6.6429414331,1.2332071205,6.0216282623
 H,0,7.052817606,2.1600497219,6.3905330587
 N,0,6.1131789527,0.2446222475,6.754078547
 N,0,5.714171608,2.0260492633,1.3368872756
 H,0,4.712714896,2.1063854981,1.155130622
 C,0,6.622229359,3.1178543456,1.0377708151
 H,0,7.136091562,2.9259865068,0.0884413982
 C,0,7.6805080146,3.2106501159,2.1542751324
 C,0,5.8144108647,4.4288947786,0.955024048
 H,0,5.0085557601,4.2786168652,0.2226610677
 H,0,5.3357752067,4.5804514368,1.9311741697
 O,0,7.4062531109,3.0256017939,3.3589521998
 C,0,6.6105744066,5.6892585772,0.5657995299
 H,0,7.4270822878,5.8218500173,1.2892877047
 C,0,7.2262917404,5.588523071,-0.8382583636
 H,0,6.4480903424,5.409601281,-1.591229593
 H,0,7.7400479133,6.519238983,-1.1006930224
 H,0,7.9647810425,4.7838615794,-0.9255678186
 C,0,5.6945872153,6.918543305,0.6616592223
 H,0,4.8601664449,6.8398674889,-0.0468472091
 H,0,6.2459831337,7.8354465023,0.4266279683
 H,0,5.271624456,7.0265485033,1.6673695502
 N,0,8.8989890653,3.56480967,1.7487105624
 H,0,9.1084573837,3.7651529126,0.7740422501
 C,0,10.0392455197,3.6969300421,2.6383051072
 H,0,9.7635467044,4.3793092743,3.4507732598
 C,0,11.1516670726,4.3756389647,1.8034357787
 C,0,10.4857065755,2.321380592,3.2284889179
 H,0,11.5113519155,2.1056521525,2.9130552314
 H,0,9.8502898274,1.5486113971,2.7858573224
 O,0,12.2674699,4.667379385,2.4477376465
 C,0,10.4039292029,2.2148652812,4.7605228838
 H,0,9.3508876184,2.2396828089,5.0661769707
 H,0,10.8082446303,1.2357274583,5.0492258058
 C,0,11.162177206,3.3298869623,5.5168394789
 H,0,10.5529799331,4.2416914788,5.5261776684
 H,0,11.2787085163,3.0481817339,6.5771840907
 N,0,12.4165663782,3.6716032313,4.8738344334
 H,0,12.2702517731,4.346354024,3.4285655641
 N,0,13.7282663055,2.0932397302,6.098717024
 H,0,14.6087246635,2.1053254127,6.5990415692
 H,0,12.9404694803,1.8687846961,6.6899369805
 N,0,14.7030590856,3.5397567186,4.5745099754
 H,0,15.3909380382,2.8226493146,4.3787657337
 H,0,14.5541247293,4.1721536649,3.7965063899
 C,0,13.5411789258,3.1132539513,5.1851253898
 O,0,10.9849024312,4.6170941206,0.6223473245
 H,0,6.0335975886,0.2467692349,7.7624301029
 Recover connectivity data from disk.
                           ----------------------------
                           !    Current Parameters    !
                           ! (Angstroms and Degrees)  !
 --------------------------                            --------------------------
 ! Name  Definition              Value                                          !
 --------------------------------------------------------------------------------
 ! R1    R(1,2)                  1.0232                                         !
 ! R2    R(1,3)                  1.055                                          !
 ! R3    R(1,4)                  1.0318                                         !
 ! R4    R(1,5)                  1.5042                                         !
 ! R5    R(5,6)                  1.0922                                         !
 ! R6    R(5,7)                  1.5471                                         !
 ! R7    R(5,8)                  1.5466                                         !
 ! R8    R(7,11)                 1.241                                          !
 ! R9    R(7,14)                 1.3202                                         !
 ! R10   R(8,9)                  1.095                                          !
 ! R11   R(8,10)                 1.095                                          !
 ! R12   R(8,12)                 1.4204                                         !
 ! R13   R(12,13)                0.9702                                         !
 ! R14   R(14,15)                1.0299                                         !
 ! R15   R(14,16)                1.4618                                         !
 ! R16   R(16,17)                1.0959                                         !
 ! R17   R(16,18)                1.5507                                         !
 ! R18   R(16,19)                1.5341                                         !
 ! R19   R(18,23)                1.2419                                         !
 ! R20   R(18,24)                1.328                                          !
 ! R21   R(19,20)                1.0939                                         !
 ! R22   R(19,21)                1.0945                                         !
 ! R23   R(19,22)                1.0936                                         !
 ! R24   R(24,25)                1.0171                                         !
 ! R25   R(24,26)                1.4592                                         !
 ! R26   R(26,27)                1.0937                                         !
 ! R27   R(26,28)                1.5359                                         !
 ! R28   R(26,29)                1.5556                                         !
 ! R29   R(28,31)                1.2402                                         !
 ! R30   R(28,38)                1.3352                                         !
 ! R31   R(29,30)                1.0968                                         !
 ! R32   R(29,32)                1.5265                                         !
 ! R33   R(29,36)                1.4288                                         !
 ! R34   R(32,33)                1.0941                                         !
 ! R35   R(32,34)                1.0952                                         !
 ! R36   R(32,35)                1.0949                                         !
 ! R37   R(36,37)                0.9718                                         !
 ! R38   R(38,39)                1.0376                                         !
 ! R39   R(38,40)                1.4485                                         !
 ! R40   R(40,41)                1.0983                                         !
 ! R41   R(40,42)                1.5447                                         !
 ! R42   R(40,43)                1.5566                                         !
 ! R43   R(42,45)                1.2328                                         !
 ! R44   R(42,54)                1.3688                                         !
 ! R45   R(43,44)                1.0965                                         !
 ! R46   R(43,46)                1.5398                                         !
 ! R47   R(43,50)                1.5354                                         !
 ! R48   R(46,47)                1.0975                                         !
 ! R49   R(46,48)                1.0955                                         !
 ! R50   R(46,49)                1.096                                          !
 ! R51   R(50,51)                1.097                                          !
 ! R52   R(50,52)                1.0929                                         !
 ! R53   R(50,53)                1.0963                                         !
 ! R54   R(54,55)                1.0102                                         !
 ! R55   R(54,56)                1.4644                                         !
 ! R56   R(56,57)                1.0931                                         !
 ! R57   R(56,58)                1.5384                                         !
 ! R58   R(56,59)                1.5444                                         !
 ! R59   R(58,61)                1.2426                                         !
 ! R60   R(58,73)                1.3523                                         !
 ! R61   R(59,60)                1.0998                                         !
 ! R62   R(59,62)                1.5455                                         !
 ! R63   R(59,65)                1.5374                                         !
 ! R64   R(62,63)                1.0952                                         !
 ! R65   R(62,64)                1.0979                                         !
 ! R66   R(62,69)                1.5344                                         !
 ! R67   R(65,66)                1.0932                                         !
 ! R68   R(65,67)                1.0957                                         !
 ! R69   R(65,68)                1.0962                                         !
 ! R70   R(69,70)                1.0987                                         !
 ! R71   R(69,71)                1.0969                                         !
 ! R72   R(69,72)                1.0968                                         !
 ! R73   R(73,74)                1.0191                                         !
 ! R74   R(73,75)                1.4766                                         !
 ! R75   R(75,76)                1.0952                                         !
 ! R76   R(75,77)                1.5324                                         !
 ! R77   R(75,78)                1.5208                                         !
 ! R78   R(77,81)                1.2333                                         !
 ! R79   R(77,85)                1.368                                          !
 ! R80   R(78,79)                1.0952                                         !
 ! R81   R(78,80)                1.096                                          !
 ! R82   R(78,82)                1.5547                                         !
 ! R83   R(82,83)                1.264                                          !
 ! R84   R(82,84)                1.2573                                         !
 ! R85   R(85,86)                1.0261                                         !
 ! R86   R(85,87)                1.4486                                         !
 ! R87   R(87,88)                1.0986                                         !
 ! R88   R(87,89)                1.5428                                         !
 ! R89   R(87,90)                1.5365                                         !
 ! R90   R(89,93)                1.235                                          !
 ! R91   R(89,102)               1.3467                                         !
 ! R92   R(90,91)                1.0953                                         !
 ! R93   R(90,92)                1.0944                                         !
 ! R94   R(90,94)                1.497                                          !
 ! R95   R(94,95)                1.3694                                         !
 ! R96   R(94,97)                1.3915                                         !
 ! R97   R(95,96)                1.0785                                         !
 ! R98   R(95,101)               1.3849                                         !
 ! R99   R(97,98)                1.0496                                         !
 ! R100  R(97,99)                1.3289                                         !
 ! R101  R(99,100)               1.0785                                         !
 ! R102  R(99,101)               1.3396                                         !
 ! R103  R(101,146)              1.0115                                         !
 ! R104  R(102,103)              1.021                                          !
 ! R105  R(102,104)              1.4512                                         !
 ! R106  R(104,105)              1.0964                                         !
 ! R107  R(104,106)              1.5412                                         !
 ! R108  R(104,107)              1.5422                                         !
 ! R109  R(106,110)              1.2493                                         !
 ! R110  R(106,121)              1.3321                                         !
 ! R111  R(107,108)              1.0992                                         !
 ! R112  R(107,109)              1.0977                                         !
 ! R113  R(107,111)              1.5407                                         !
 ! R114  R(111,112)              1.099                                          !
 ! R115  R(111,113)              1.5364                                         !
 ! R116  R(111,117)              1.536                                          !
 ! R117  R(113,114)              1.0975                                         !
 ! R118  R(113,115)              1.095                                          !
 ! R119  R(113,116)              1.0957                                         !
 ! R120  R(117,118)              1.0975                                         !
 ! R121  R(117,119)              1.0954                                         !
 ! R122  R(117,120)              1.0964                                         !
 ! R123  R(121,122)              1.0169                                         !
 ! R124  R(121,123)              1.4522                                         !
 ! R125  R(123,124)              1.0962                                         !
 ! R126  R(123,125)              1.5476                                         !
 ! R127  R(123,126)              1.562                                          !
 ! R128  R(125,129)              1.3211                                         !
 ! R129  R(125,145)              1.217                                          !
 ! R130  R(126,127)              1.0945                                         !
 ! R131  R(126,128)              1.094                                          !
 ! R132  R(126,130)              1.5379                                         !
 ! R133  R(130,131)              1.0968                                         !
 ! R134  R(130,132)              1.098                                          !
 ! R135  R(130,133)              1.546                                          !
 ! R136  R(133,134)              1.0966                                         !
 ! R137  R(133,135)              1.1033                                         !
 ! R138  R(133,136)              1.4504                                         !
 ! R139  R(136,137)              1.6017                                         !
 ! R140  R(136,144)              1.2936                                         !
 ! R141  R(138,139)              1.0128                                         !
 ! R142  R(138,140)              1.0102                                         !
 ! R143  R(138,144)              1.3821                                         !
 ! R144  R(141,142)              1.0128                                         !
 ! R145  R(141,143)              1.0136                                         !
 ! R146  R(141,144)              1.3801                                         !
 ! A1    A(2,1,3)              108.2263                                         !
 ! A2    A(2,1,4)              109.6484                                         !
 ! A3    A(2,1,5)              113.3454                                         !
 ! A4    A(3,1,4)              113.8814                                         !
 ! A5    A(3,1,5)              102.688                                          !
 ! A6    A(4,1,5)              108.9914                                         !
 ! A7    A(1,5,6)              109.0469                                         !
 ! A8    A(1,5,7)              104.256                                          !
 ! A9    A(1,5,8)              106.7616                                         !
 ! A10   A(6,5,7)              113.6406                                         !
 ! A11   A(6,5,8)              111.7037                                         !
 ! A12   A(7,5,8)              110.9187                                         !
 ! A13   A(5,7,11)             116.913                                          !
 ! A14   A(5,7,14)             115.4427                                         !
 ! A15   A(11,7,14)            127.5397                                         !
 ! A16   A(5,8,9)              109.406                                          !
 ! A17   A(5,8,10)             109.0389                                         !
 ! A18   A(5,8,12)             109.9819                                         !
 ! A19   A(9,8,10)             108.0584                                         !
 ! A20   A(9,8,12)             113.5208                                         !
 ! A21   A(10,8,12)            106.7059                                         !
 ! A22   A(8,12,13)            109.9549                                         !
 ! A23   A(7,14,15)            123.9108                                         !
 ! A24   A(7,14,16)            125.7037                                         !
 ! A25   A(15,14,16)           109.9304                                         !
 ! A26   A(14,16,17)           108.6881                                         !
 ! A27   A(14,16,18)           103.2619                                         !
 ! A28   A(14,16,19)           112.1477                                         !
 ! A29   A(17,16,18)           109.8105                                         !
 ! A30   A(17,16,19)           110.0026                                         !
 ! A31   A(18,16,19)           112.691                                          !
 ! A32   A(16,18,23)           118.8631                                         !
 ! A33   A(16,18,24)           115.3203                                         !
 ! A34   A(23,18,24)           125.7933                                         !
 ! A35   A(16,19,20)           110.3516                                         !
 ! A36   A(16,19,21)           110.3714                                         !
 ! A37   A(16,19,22)           109.9834                                         !
 ! A38   A(20,19,21)           108.2457                                         !
 ! A39   A(20,19,22)           108.49                                           !
 ! A40   A(21,19,22)           109.3527                                         !
 ! A41   A(18,24,25)           122.1823                                         !
 ! A42   A(18,24,26)           124.5779                                         !
 ! A43   A(25,24,26)           113.1183                                         !
 ! A44   A(24,26,27)           109.4649                                         !
 ! A45   A(24,26,28)           105.2801                                         !
 ! A46   A(24,26,29)           110.0249                                         !
 ! A47   A(27,26,28)           111.4361                                         !
 ! A48   A(27,26,29)           109.4605                                         !
 ! A49   A(28,26,29)           111.0966                                         !
 ! A50   A(26,28,31)           119.0715                                         !
 ! A51   A(26,28,38)           114.4377                                         !
 ! A52   A(31,28,38)           126.4888                                         !
 ! A53   A(26,29,30)           107.4004                                         !
 ! A54   A(26,29,32)           112.4723                                         !
 ! A55   A(26,29,36)           109.6642                                         !
 ! A56   A(30,29,32)           110.2151                                         !
 ! A57   A(30,29,36)           104.5684                                         !
 ! A58   A(32,29,36)           112.1233                                         !
 ! A59   A(29,32,33)           111.4902                                         !
 ! A60   A(29,32,34)           110.5649                                         !
 ! A61   A(29,32,35)           108.6325                                         !
 ! A62   A(33,32,34)           107.0689                                         !
 ! A63   A(33,32,35)           109.2482                                         !
 ! A64   A(34,32,35)           109.8168                                         !
 ! A65   A(29,36,37)           107.0442                                         !
 ! A66   A(28,38,39)           117.8748                                         !
 ! A67   A(28,38,40)           122.6215                                         !
 ! A68   A(39,38,40)           119.4959                                         !
 ! A69   A(38,40,41)           105.7272                                         !
 ! A70   A(38,40,42)           107.1039                                         !
 ! A71   A(38,40,43)           113.306                                          !
 ! A72   A(41,40,42)           105.4745                                         !
 ! A73   A(41,40,43)           107.9185                                         !
 ! A74   A(42,40,43)           116.5179                                         !
 ! A75   A(40,42,45)           120.7347                                         !
 ! A76   A(40,42,54)           117.8596                                         !
 ! A77   A(45,42,54)           121.2637                                         !
 ! A78   A(40,43,44)           107.8399                                         !
 ! A79   A(40,43,46)           110.6653                                         !
 ! A80   A(40,43,50)           110.8652                                         !
 ! A81   A(44,43,46)           110.9394                                         !
 ! A82   A(44,43,50)           106.7091                                         !
 ! A83   A(46,43,50)           109.739                                          !
 ! A84   A(43,46,47)           110.0445                                         !
 ! A85   A(43,46,48)           113.0944                                         !
 ! A86   A(43,46,49)           110.7446                                         !
 ! A87   A(47,46,48)           107.0916                                         !
 ! A88   A(47,46,49)           107.6538                                         !
 ! A89   A(48,46,49)           107.9969                                         !
 ! A90   A(43,50,51)           110.8384                                         !
 ! A91   A(43,50,52)           110.8866                                         !
 ! A92   A(43,50,53)           110.0365                                         !
 ! A93   A(51,50,52)           108.4166                                         !
 ! A94   A(51,50,53)           108.307                                          !
 ! A95   A(52,50,53)           108.2715                                         !
 ! A96   A(42,54,55)           116.4739                                         !
 ! A97   A(42,54,56)           120.4777                                         !
 ! A98   A(55,54,56)           116.1099                                         !
 ! A99   A(54,56,57)           104.8473                                         !
 ! A100  A(54,56,58)           108.7311                                         !
 ! A101  A(54,56,59)           111.9081                                         !
 ! A102  A(57,56,58)           107.275                                          !
 ! A103  A(57,56,59)           108.6436                                         !
 ! A104  A(58,56,59)           114.86                                           !
 ! A105  A(56,58,61)           122.86                                           !
 ! A106  A(56,58,73)           114.3456                                         !
 ! A107  A(61,58,73)           122.7902                                         !
 ! A108  A(56,59,60)           104.7346                                         !
 ! A109  A(56,59,62)           112.3401                                         !
 ! A110  A(56,59,65)           113.5868                                         !
 ! A111  A(60,59,62)           107.6288                                         !
 ! A112  A(60,59,65)           107.9383                                         !
 ! A113  A(62,59,65)           110.2046                                         !
 ! A114  A(59,62,63)           108.5332                                         !
 ! A115  A(59,62,64)           107.443                                          !
 ! A116  A(59,62,69)           115.1727                                         !
 ! A117  A(63,62,64)           106.7278                                         !
 ! A118  A(63,62,69)           109.5715                                         !
 ! A119  A(64,62,69)           109.0509                                         !
 ! A120  A(59,65,66)           110.6875                                         !
 ! A121  A(59,65,67)           111.7382                                         !
 ! A122  A(59,65,68)           110.1584                                         !
 ! A123  A(66,65,67)           108.8441                                         !
 ! A124  A(66,65,68)           108.4143                                         !
 ! A125  A(67,65,68)           106.867                                          !
 ! A126  A(62,69,70)           110.7244                                         !
 ! A127  A(62,69,71)           112.0215                                         !
 ! A128  A(62,69,72)           111.686                                          !
 ! A129  A(70,69,71)           107.4833                                         !
 ! A130  A(70,69,72)           107.197                                          !
 ! A131  A(71,69,72)           107.4922                                         !
 ! A132  A(58,73,74)           115.8579                                         !
 ! A133  A(58,73,75)           120.5526                                         !
 ! A134  A(74,73,75)           116.2777                                         !
 ! A135  A(73,75,76)           106.5836                                         !
 ! A136  A(73,75,77)           106.5056                                         !
 ! A137  A(73,75,78)           110.1656                                         !
 ! A138  A(76,75,77)           109.1988                                         !
 ! A139  A(76,75,78)           108.8331                                         !
 ! A140  A(77,75,78)           115.2038                                         !
 ! A141  A(75,77,81)           124.9209                                         !
 ! A142  A(75,77,85)           112.6414                                         !
 ! A143  A(81,77,85)           122.3135                                         !
 ! A144  A(75,78,79)           110.9524                                         !
 ! A145  A(75,78,80)           109.482                                          !
 ! A146  A(75,78,82)           111.1537                                         !
 ! A147  A(79,78,80)           106.102                                          !
 ! A148  A(79,78,82)           109.314                                          !
 ! A149  A(80,78,82)           109.707                                          !
 ! A150  A(78,82,83)           115.6046                                         !
 ! A151  A(78,82,84)           117.4516                                         !
 ! A152  A(83,82,84)           126.8713                                         !
 ! A153  A(77,85,86)           115.7401                                         !
 ! A154  A(77,85,87)           118.6588                                         !
 ! A155  A(86,85,87)           118.9967                                         !
 ! A156  A(85,87,88)           107.5722                                         !
 ! A157  A(85,87,89)           112.0707                                         !
 ! A158  A(85,87,90)           111.4096                                         !
 ! A159  A(88,87,89)           107.336                                          !
 ! A160  A(88,87,90)           109.4109                                         !
 ! A161  A(89,87,90)           108.9257                                         !
 ! A162  A(87,89,93)           121.7665                                         !
 ! A163  A(87,89,102)          114.0939                                         !
 ! A164  A(93,89,102)          123.8171                                         !
 ! A165  A(87,90,91)           108.7438                                         !
 ! A166  A(87,90,92)           109.7675                                         !
 ! A167  A(87,90,94)           111.5989                                         !
 ! A168  A(91,90,92)           108.4866                                         !
 ! A169  A(91,90,94)           109.9915                                         !
 ! A170  A(92,90,94)           108.2016                                         !
 ! A171  A(90,94,95)           129.2968                                         !
 ! A172  A(90,94,97)           124.8757                                         !
 ! A173  A(95,94,97)           105.7923                                         !
 ! A174  A(94,95,96)           130.3511                                         !
 ! A175  A(94,95,101)          107.2032                                         !
 ! A176  A(96,95,101)          122.4409                                         !
 ! A177  A(94,97,98)           129.5789                                         !
 ! A178  A(94,97,99)           109.9883                                         !
 ! A179  A(98,97,99)           120.3431                                         !
 ! A180  A(97,99,100)          125.3898                                         !
 ! A181  A(97,99,101)          107.9176                                         !
 ! A182  A(100,99,101)         126.6905                                         !
 ! A183  A(95,101,99)          109.0951                                         !
 ! A184  A(95,101,146)         125.8228                                         !
 ! A185  A(99,101,146)         125.0741                                         !
 ! A186  A(89,102,103)         117.1404                                         !
 ! A187  A(89,102,104)         121.5117                                         !
 ! A188  A(103,102,104)        121.1887                                         !
 ! A189  A(102,104,105)        109.8811                                         !
 ! A190  A(102,104,106)        109.0047                                         !
 ! A191  A(102,104,107)        108.8369                                         !
 ! A192  A(105,104,106)        108.4203                                         !
 ! A193  A(105,104,107)        110.354                                          !
 ! A194  A(106,104,107)        110.3274                                         !
 ! A195  A(104,106,110)        122.6108                                         !
 ! A196  A(104,106,121)        115.0583                                         !
 ! A197  A(110,106,121)        122.2594                                         !
 ! A198  A(104,107,108)        107.6704                                         !
 ! A199  A(104,107,109)        107.3416                                         !
 ! A200  A(104,107,111)        115.9957                                         !
 ! A201  A(108,107,109)        106.959                                          !
 ! A202  A(108,107,111)        108.8049                                         !
 ! A203  A(109,107,111)        109.6957                                         !
 ! A204  A(107,111,112)        108.4403                                         !
 ! A205  A(107,111,113)        112.6005                                         !
 ! A206  A(107,111,117)        109.3143                                         !
 ! A207  A(112,111,113)        108.1667                                         !
 ! A208  A(112,111,117)        107.7838                                         !
 ! A209  A(113,111,117)        110.3944                                         !
 ! A210  A(111,113,114)        110.701                                          !
 ! A211  A(111,113,115)        110.5674                                         !
 ! A212  A(111,113,116)        113.0217                                         !
 ! A213  A(114,113,115)        107.867                                          !
 ! A214  A(114,113,116)        107.6687                                         !
 ! A215  A(115,113,116)        106.7913                                         !
 ! A216  A(111,117,118)        110.839                                          !
 ! A217  A(111,117,119)        110.8737                                         !
 ! A218  A(111,117,120)        111.4781                                         !
 ! A219  A(118,117,119)        107.7101                                         !
 ! A220  A(118,117,120)        107.8151                                         !
 ! A221  A(119,117,120)        107.9716                                         !
 ! A222  A(106,121,122)        122.1823                                         !
 ! A223  A(106,121,123)        123.7706                                         !
 ! A224  A(122,121,123)        114.047                                          !
 ! A225  A(121,123,124)        108.2497                                         !
 ! A226  A(121,123,125)        105.8918                                         !
 ! A227  A(121,123,126)        112.0713                                         !
 ! A228  A(124,123,125)        107.9145                                         !
 ! A229  A(124,123,126)        109.8784                                         !
 ! A230  A(125,123,126)        112.6178                                         !
 ! A231  A(123,125,129)        116.1584                                         !
 ! A232  A(123,125,145)        120.8004                                         !
 ! A233  A(129,125,145)        123.0411                                         !
 ! A234  A(123,126,127)        109.4221                                         !
 ! A235  A(123,126,128)        107.648                                          !
 ! A236  A(123,126,130)        114.9732                                         !
 ! A237  A(127,126,128)        106.7646                                         !
 ! A238  A(127,126,130)        108.8607                                         !
 ! A239  A(128,126,130)        108.8592                                         !
 ! A240  A(126,130,131)        109.0931                                         !
 ! A241  A(126,130,132)        107.7054                                         !
 ! A242  A(126,130,133)        114.2864                                         !
 ! A243  A(131,130,132)        107.4849                                         !
 ! A244  A(131,130,133)        108.5563                                         !
 ! A245  A(132,130,133)        109.5072                                         !
 ! A246  A(130,133,134)        109.3522                                         !
 ! A247  A(130,133,135)        109.7432                                         !
 ! A248  A(130,133,136)        112.1606                                         !
 ! A249  A(134,133,135)        105.2355                                         !
 ! A250  A(134,133,136)        106.7575                                         !
 ! A251  A(135,133,136)        113.2581                                         !
 ! A252  A(133,136,137)        114.8516                                         !
 ! A253  A(133,136,144)        122.9219                                         !
 ! A254  A(137,136,144)        118.5795                                         !
 ! A255  A(139,138,140)        113.047                                          !
 ! A256  A(139,138,144)        115.8136                                         !
 ! A257  A(140,138,144)        116.4414                                         !
 ! A258  A(142,141,143)        113.1544                                         !
 ! A259  A(142,141,144)        116.0078                                         !
 ! A260  A(143,141,144)        114.1236                                         !
 ! A261  A(136,144,138)        126.5349                                         !
 ! A262  A(136,144,141)        119.4747                                         !
 ! A263  A(138,144,141)        113.9905                                         !
 ! D1    D(2,1,5,6)             26.373                                          !
 ! D2    D(2,1,5,7)            -95.3237                                         !
 ! D3    D(2,1,5,8)            147.208                                          !
 ! D4    D(3,1,5,6)            142.8833                                         !
 ! D5    D(3,1,5,7)             21.1867                                         !
 ! D6    D(3,1,5,8)            -96.2817                                         !
 ! D7    D(4,1,5,6)            -96.0289                                         !
 ! D8    D(4,1,5,7)            142.2744                                         !
 ! D9    D(4,1,5,8)             24.8061                                         !
 ! D10   D(1,5,7,11)           -17.4177                                         !
 ! D11   D(1,5,7,14)           166.0172                                         !
 ! D12   D(6,5,7,11)          -136.0231                                         !
 ! D13   D(6,5,7,14)            47.4117                                         !
 ! D14   D(8,5,7,11)            97.1437                                         !
 ! D15   D(8,5,7,14)           -79.4214                                         !
 ! D16   D(1,5,8,9)           -169.7246                                         !
 ! D17   D(1,5,8,10)            72.2904                                         !
 ! D18   D(1,5,8,12)           -44.3925                                         !
 ! D19   D(6,5,8,9)            -50.6003                                         !
 ! D20   D(6,5,8,10)          -168.5854                                         !
 ! D21   D(6,5,8,12)            74.7318                                         !
 ! D22   D(7,5,8,9)             77.2926                                         !
 ! D23   D(7,5,8,10)           -40.6924                                         !
 ! D24   D(7,5,8,12)          -157.3753                                         !
 ! D25   D(5,7,14,15)           -0.4423                                         !
 ! D26   D(5,7,14,16)          171.026                                          !
 ! D27   D(11,7,14,15)        -176.579                                          !
 ! D28   D(11,7,14,16)          -5.1107                                         !
 ! D29   D(5,8,12,13)          -91.5739                                         !
 ! D30   D(9,8,12,13)           31.3714                                         !
 ! D31   D(10,8,12,13)         150.2923                                         !
 ! D32   D(7,14,16,17)         -46.7963                                         !
 ! D33   D(7,14,16,18)        -163.3667                                         !
 ! D34   D(7,14,16,19)          75.0434                                         !
 ! D35   D(15,14,16,17)        125.6782                                         !
 ! D36   D(15,14,16,18)          9.1078                                         !
 ! D37   D(15,14,16,19)       -112.482                                          !
 ! D38   D(14,16,18,23)         -9.2001                                         !
 ! D39   D(14,16,18,24)        172.4539                                         !
 ! D40   D(17,16,18,23)       -124.9731                                         !
 ! D41   D(17,16,18,24)         56.6809                                         !
 ! D42   D(19,16,18,23)        112.0226                                         !
 ! D43   D(19,16,18,24)        -66.3234                                         !
 ! D44   D(14,16,19,20)        179.6071                                         !
 ! D45   D(14,16,19,21)         60.0062                                         !
 ! D46   D(14,16,19,22)        -60.7354                                         !
 ! D47   D(17,16,19,20)        -59.3073                                         !
 ! D48   D(17,16,19,21)       -178.9083                                         !
 ! D49   D(17,16,19,22)         60.3501                                         !
 ! D50   D(18,16,19,20)         63.5897                                         !
 ! D51   D(18,16,19,21)        -56.0113                                         !
 ! D52   D(18,16,19,22)       -176.7529                                         !
 ! D53   D(16,18,24,25)         -2.6054                                         !
 ! D54   D(16,18,24,26)       -178.3183                                         !
 ! D55   D(23,18,24,25)        179.1804                                         !
 ! D56   D(23,18,24,26)          3.4675                                         !
 ! D57   D(18,24,26,27)        -35.4897                                         !
 ! D58   D(18,24,26,28)       -155.3824                                         !
 ! D59   D(18,24,26,29)         84.835                                          !
 ! D60   D(25,24,26,27)        148.455                                          !
 ! D61   D(25,24,26,28)         28.5623                                         !
 ! D62   D(25,24,26,29)        -91.2203                                         !
 ! D63   D(24,26,28,31)        -35.7622                                         !
 ! D64   D(24,26,28,38)        144.7137                                         !
 ! D65   D(27,26,28,31)       -154.3415                                         !
 ! D66   D(27,26,28,38)         26.1344                                         !
 ! D67   D(29,26,28,31)         83.3077                                         !
 ! D68   D(29,26,28,38)        -96.2164                                         !
 ! D69   D(24,26,29,30)         62.6318                                         !
 ! D70   D(24,26,29,32)       -175.9348                                         !
 ! D71   D(24,26,29,36)        -50.4418                                         !
 ! D72   D(27,26,29,30)       -177.0408                                         !
 ! D73   D(27,26,29,32)        -55.6074                                         !
 ! D74   D(27,26,29,36)         69.8856                                         !
 ! D75   D(28,26,29,30)        -53.5522                                         !
 ! D76   D(28,26,29,32)         67.8812                                         !
 ! D77   D(28,26,29,36)       -166.6258                                         !
 ! D78   D(26,28,38,39)         -5.2053                                         !
 ! D79   D(26,28,38,40)        173.7695                                         !
 ! D80   D(31,28,38,39)        175.312                                          !
 ! D81   D(31,28,38,40)         -5.7131                                         !
 ! D82   D(26,29,32,33)        -64.0949                                         !
 ! D83   D(26,29,32,34)         54.8936                                         !
 ! D84   D(26,29,32,35)        175.4651                                         !
 ! D85   D(30,29,32,33)         55.7189                                         !
 ! D86   D(30,29,32,34)        174.7074                                         !
 ! D87   D(30,29,32,35)        -64.7211                                         !
 ! D88   D(36,29,32,33)        171.762                                          !
 ! D89   D(36,29,32,34)        -69.2495                                         !
 ! D90   D(36,29,32,35)         51.322                                          !
 ! D91   D(26,29,36,37)        -54.3713                                         !
 ! D92   D(30,29,36,37)       -169.2684                                         !
 ! D93   D(32,29,36,37)         71.3217                                         !
 ! D94   D(28,38,40,41)        -10.0453                                         !
 ! D95   D(28,38,40,42)       -122.1726                                         !
 ! D96   D(28,38,40,43)        107.9461                                         !
 ! D97   D(39,38,40,41)        168.9135                                         !
 ! D98   D(39,38,40,42)         56.7863                                         !
 ! D99   D(39,38,40,43)        -73.0951                                         !
 ! D100  D(38,40,42,45)         37.4346                                         !
 ! D101  D(38,40,42,54)       -146.8435                                         !
 ! D102  D(41,40,42,45)        -74.8655                                         !
 ! D103  D(41,40,42,54)        100.8564                                         !
 ! D104  D(43,40,42,45)        165.4708                                         !
 ! D105  D(43,40,42,54)        -18.8073                                         !
 ! D106  D(38,40,43,44)         84.3597                                         !
 ! D107  D(38,40,43,46)       -154.1309                                         !
 ! D108  D(38,40,43,50)        -32.1215                                         !
 ! D109  D(41,40,43,44)       -158.9299                                         !
 ! D110  D(41,40,43,46)        -37.4206                                         !
 ! D111  D(41,40,43,50)         84.5889                                         !
 ! D112  D(42,40,43,44)        -40.5887                                         !
 ! D113  D(42,40,43,46)         80.9207                                         !
 ! D114  D(42,40,43,50)       -157.0699                                         !
 ! D115  D(40,42,54,55)         27.3106                                         !
 ! D116  D(40,42,54,56)        177.0298                                         !
 ! D117  D(45,42,54,55)       -156.9914                                         !
 ! D118  D(45,42,54,56)         -7.2722                                         !
 ! D119  D(40,43,46,47)         67.9932                                         !
 ! D120  D(40,43,46,48)        -51.7219                                         !
 ! D121  D(40,43,46,49)       -173.0998                                         !
 ! D122  D(44,43,46,47)       -172.3433                                         !
 ! D123  D(44,43,46,48)         67.9416                                         !
 ! D124  D(44,43,46,49)        -53.4363                                         !
 ! D125  D(50,43,46,47)        -54.6744                                         !
 ! D126  D(50,43,46,48)       -174.3895                                         !
 ! D127  D(50,43,46,49)         64.2326                                         !
 ! D128  D(40,43,50,51)        -53.8561                                         !
 ! D129  D(40,43,50,52)         66.612                                          !
 ! D130  D(40,43,50,53)       -173.6288                                         !
 ! D131  D(44,43,50,51)       -171.0326                                         !
 ! D132  D(44,43,50,52)        -50.5645                                         !
 ! D133  D(44,43,50,53)         69.1947                                         !
 ! D134  D(46,43,50,51)         68.693                                          !
 ! D135  D(46,43,50,52)       -170.8389                                         !
 ! D136  D(46,43,50,53)        -51.0797                                         !
 ! D137  D(42,54,56,57)         29.056                                          !
 ! D138  D(42,54,56,58)        -85.4183                                         !
 ! D139  D(42,54,56,59)        146.6418                                         !
 ! D140  D(55,54,56,57)        178.88                                           !
 ! D141  D(55,54,56,58)         64.4057                                         !
 ! D142  D(55,54,56,59)        -63.5342                                         !
 ! D143  D(54,56,58,61)       -107.5913                                         !
 ! D144  D(54,56,58,73)         71.6782                                         !
 ! D145  D(57,56,58,61)        139.5284                                         !
 ! D146  D(57,56,58,73)        -41.2021                                         !
 ! D147  D(59,56,58,61)         18.6604                                         !
 ! D148  D(59,56,58,73)       -162.0702                                         !
 ! D149  D(54,56,59,60)        -65.6518                                         !
 ! D150  D(54,56,59,62)        177.8203                                         !
 ! D151  D(54,56,59,65)         51.8853                                         !
 ! D152  D(57,56,59,60)         49.6362                                         !
 ! D153  D(57,56,59,62)        -66.8918                                         !
 ! D154  D(57,56,59,65)        167.1733                                         !
 ! D155  D(58,56,59,60)        169.7508                                         !
 ! D156  D(58,56,59,62)         53.2229                                         !
 ! D157  D(58,56,59,65)        -72.7121                                         !
 ! D158  D(56,58,73,74)         -7.4236                                         !
 ! D159  D(56,58,73,75)       -156.4478                                         !
 ! D160  D(61,58,73,74)        171.8465                                         !
 ! D161  D(61,58,73,75)         22.8222                                         !
 ! D162  D(56,59,62,63)        -75.8386                                         !
 ! D163  D(56,59,62,64)        169.1034                                         !
 ! D164  D(56,59,62,69)         47.387                                          !
 ! D165  D(60,59,62,63)        169.3823                                         !
 ! D166  D(60,59,62,64)         54.3243                                         !
 ! D167  D(60,59,62,69)        -67.392                                          !
 ! D168  D(65,59,62,63)         51.911                                          !
 ! D169  D(65,59,62,64)        -63.147                                          !
 ! D170  D(65,59,62,69)        175.1366                                         !
 ! D171  D(56,59,65,66)         59.161                                          !
 ! D172  D(56,59,65,67)        -62.3224                                         !
 ! D173  D(56,59,65,68)        179.0497                                         !
 ! D174  D(60,59,65,66)        174.8225                                         !
 ! D175  D(60,59,65,67)         53.3391                                         !
 ! D176  D(60,59,65,68)        -65.2887                                         !
 ! D177  D(62,59,65,66)        -67.8978                                         !
 ! D178  D(62,59,65,67)        170.6188                                         !
 ! D179  D(62,59,65,68)         51.9909                                         !
 ! D180  D(59,62,69,70)        171.9845                                         !
 ! D181  D(59,62,69,71)        -68.0472                                         !
 ! D182  D(59,62,69,72)         52.6012                                         !
 ! D183  D(63,62,69,70)        -65.3431                                         !
 ! D184  D(63,62,69,71)         54.6252                                         !
 ! D185  D(63,62,69,72)        175.2736                                         !
 ! D186  D(64,62,69,70)         51.1407                                         !
 ! D187  D(64,62,69,71)        171.109                                          !
 ! D188  D(64,62,69,72)        -68.2426                                         !
 ! D189  D(58,73,75,76)         23.1419                                         !
 ! D190  D(58,73,75,77)        -93.3525                                         !
 ! D191  D(58,73,75,78)        141.0584                                         !
 ! D192  D(74,73,75,76)       -125.7587                                         !
 ! D193  D(74,73,75,77)        117.7469                                         !
 ! D194  D(74,73,75,78)         -7.8422                                         !
 ! D195  D(73,75,77,81)       -107.5383                                         !
 ! D196  D(73,75,77,85)         68.4761                                         !
 ! D197  D(76,75,77,81)        137.7284                                         !
 ! D198  D(76,75,77,85)        -46.2572                                         !
 ! D199  D(78,75,77,81)         14.9308                                         !
 ! D200  D(78,75,77,85)       -169.0549                                         !
 ! D201  D(73,75,78,79)         62.9965                                         !
 ! D202  D(73,75,78,80)        179.7712                                         !
 ! D203  D(73,75,78,82)        -58.8683                                         !
 ! D204  D(76,75,78,79)        179.5164                                         !
 ! D205  D(76,75,78,80)        -63.7089                                         !
 ! D206  D(76,75,78,82)         57.6516                                         !
 ! D207  D(77,75,78,79)        -57.491                                          !
 ! D208  D(77,75,78,80)         59.2836                                         !
 ! D209  D(77,75,78,82)       -179.3559                                         !
 ! D210  D(75,77,85,86)         -4.4862                                         !
 ! D211  D(75,77,85,87)       -155.745                                          !
 ! D212  D(81,77,85,86)        171.6471                                         !
 ! D213  D(81,77,85,87)         20.3883                                         !
 ! D214  D(75,78,82,83)        164.8649                                         !
 ! D215  D(75,78,82,84)        -12.2543                                         !
 ! D216  D(79,78,82,83)         42.0513                                         !
 ! D217  D(79,78,82,84)       -135.0678                                         !
 ! D218  D(80,78,82,83)        -73.9064                                         !
 ! D219  D(80,78,82,84)        108.9745                                         !
 ! D220  D(77,85,87,88)         28.3921                                         !
 ! D221  D(77,85,87,89)        -89.362                                          !
 ! D222  D(77,85,87,90)        148.3005                                         !
 ! D223  D(86,85,87,88)       -121.9238                                         !
 ! D224  D(86,85,87,89)        120.3221                                         !
 ! D225  D(86,85,87,90)         -2.0154                                         !
 ! D226  D(85,87,89,93)       -103.4862                                         !
 ! D227  D(85,87,89,102)        82.8008                                         !
 ! D228  D(88,87,89,93)        138.619                                          !
 ! D229  D(88,87,89,102)       -35.0941                                         !
 ! D230  D(90,87,89,93)         20.2542                                         !
 ! D231  D(90,87,89,102)      -153.4588                                         !
 ! D232  D(85,87,90,91)         76.3822                                         !
 ! D233  D(85,87,90,92)        -42.1569                                         !
 ! D234  D(85,87,90,94)       -162.1085                                         !
 ! D235  D(88,87,90,91)       -164.8024                                         !
 ! D236  D(88,87,90,92)         76.6584                                         !
 ! D237  D(88,87,90,94)        -43.2932                                         !
 ! D238  D(89,87,90,91)        -47.7499                                         !
 ! D239  D(89,87,90,92)       -166.2891                                         !
 ! D240  D(89,87,90,94)         73.7593                                         !
 ! D241  D(87,89,102,103)      -16.0068                                         !
 ! D242  D(87,89,102,104)      168.5284                                         !
 ! D243  D(93,89,102,103)      170.4275                                         !
 ! D244  D(93,89,102,104)       -5.0374                                         !
 ! D245  D(87,90,94,95)        132.9878                                         !
 ! D246  D(87,90,94,97)        -44.5389                                         !
 ! D247  D(91,90,94,95)       -106.2288                                         !
 ! D248  D(91,90,94,97)         76.2445                                         !
 ! D249  D(92,90,94,95)         12.1182                                         !
 ! D250  D(92,90,94,97)       -165.4085                                         !
 ! D251  D(90,94,95,96)          1.1092                                         !
 ! D252  D(90,94,95,101)      -178.0893                                         !
 ! D253  D(97,94,95,96)        179.0007                                         !
 ! D254  D(97,94,95,101)        -0.1978                                         !
 ! D255  D(90,94,97,98)          1.3317                                         !
 ! D256  D(90,94,97,99)        177.8313                                         !
 ! D257  D(95,94,97,98)       -176.6794                                         !
 ! D258  D(95,94,97,99)         -0.1798                                         !
 ! D259  D(94,95,101,99)         0.5081                                         !
 ! D260  D(94,95,101,146)      179.514                                          !
 ! D261  D(96,95,101,99)      -178.7682                                         !
 ! D262  D(96,95,101,146)        0.2377                                         !
 ! D263  D(94,97,99,100)      -179.0022                                         !
 ! D264  D(94,97,99,101)         0.4976                                         !
 ! D265  D(98,97,99,100)        -2.128                                          !
 ! D266  D(98,97,99,101)       177.3719                                         !
 ! D267  D(97,99,101,95)        -0.6206                                         !
 ! D268  D(97,99,101,146)     -179.6357                                         !
 ! D269  D(100,99,101,95)      178.8709                                         !
 ! D270  D(100,99,101,146)      -0.1442                                         !
 ! D271  D(89,102,104,105)      75.0257                                         !
 ! D272  D(89,102,104,106)     -43.6552                                         !
 ! D273  D(89,102,104,107)    -164.033                                          !
 ! D274  D(103,102,104,105)   -100.2563                                         !
 ! D275  D(103,102,104,106)    141.0628                                         !
 ! D276  D(103,102,104,107)     20.685                                          !
 ! D277  D(102,104,106,110)    -38.5282                                         !
 ! D278  D(102,104,106,121)    144.4855                                         !
 ! D279  D(105,104,106,110)   -158.1192                                         !
 ! D280  D(105,104,106,121)     24.8945                                         !
 ! D281  D(107,104,106,110)     80.9282                                         !
 ! D282  D(107,104,106,121)    -96.0581                                         !
 ! D283  D(102,104,107,108)    -54.611                                          !
 ! D284  D(102,104,107,109)     60.2354                                         !
 ! D285  D(102,104,107,111)   -176.7339                                         !
 ! D286  D(105,104,107,108)     66.0396                                         !
 ! D287  D(105,104,107,109)   -179.1139                                         !
 ! D288  D(105,104,107,111)    -56.0833                                         !
 ! D289  D(106,104,107,108)   -174.169                                          !
 ! D290  D(106,104,107,109)    -59.3225                                         !
 ! D291  D(106,104,107,111)     63.7081                                         !
 ! D292  D(104,106,121,122)      0.4557                                         !
 ! D293  D(104,106,121,123)   -179.3744                                         !
 ! D294  D(110,106,121,122)   -176.5422                                         !
 ! D295  D(110,106,121,123)      3.6276                                         !
 ! D296  D(104,107,111,112)    -57.3048                                         !
 ! D297  D(104,107,111,113)     62.3516                                         !
 ! D298  D(104,107,111,117)   -174.5642                                         !
 ! D299  D(108,107,111,112)   -178.8252                                         !
 ! D300  D(108,107,111,113)    -59.1689                                         !
 ! D301  D(108,107,111,117)     63.9154                                         !
 ! D302  D(109,107,111,112)     64.4838                                         !
 ! D303  D(109,107,111,113)   -175.8599                                         !
 ! D304  D(109,107,111,117)    -52.7757                                         !
 ! D305  D(107,111,113,114)     57.636                                          !
 ! D306  D(107,111,113,115)    177.1151                                         !
 ! D307  D(107,111,113,116)    -63.2352                                         !
 ! D308  D(112,111,113,114)    177.4507                                         !
 ! D309  D(112,111,113,115)    -63.0702                                         !
 ! D310  D(112,111,113,116)     56.5795                                         !
 ! D311  D(117,111,113,114)    -64.8426                                         !
 ! D312  D(117,111,113,115)     54.6365                                         !
 ! D313  D(117,111,113,116)    174.2862                                         !
 ! D314  D(107,111,117,118)    -62.5843                                         !
 ! D315  D(107,111,117,119)    177.8441                                         !
 ! D316  D(107,111,117,120)     57.519                                          !
 ! D317  D(112,111,117,118)    179.7432                                         !
 ! D318  D(112,111,117,119)     60.1716                                         !
 ! D319  D(112,111,117,120)    -60.1535                                         !
 ! D320  D(113,111,117,118)     61.8011                                         !
 ! D321  D(113,111,117,119)    -57.7705                                         !
 ! D322  D(113,111,117,120)   -178.0955                                         !
 ! D323  D(106,121,123,124)    -53.9796                                         !
 ! D324  D(106,121,123,125)   -169.4877                                         !
 ! D325  D(106,121,123,126)     67.356                                          !
 ! D326  D(122,121,123,124)    126.1778                                         !
 ! D327  D(122,121,123,125)     10.6697                                         !
 ! D328  D(122,121,123,126)   -112.4866                                         !
 ! D329  D(121,123,125,129)    176.1166                                         !
 ! D330  D(121,123,125,145)     -3.8716                                         !
 ! D331  D(124,123,125,129)     60.3803                                         !
 ! D332  D(124,123,125,145)   -119.6079                                         !
 ! D333  D(126,123,125,129)    -61.0732                                         !
 ! D334  D(126,123,125,145)    118.9386                                         !
 ! D335  D(121,123,126,127)    118.4486                                         !
 ! D336  D(121,123,126,128)      2.7828                                         !
 ! D337  D(121,123,126,130)   -118.7082                                         !
 ! D338  D(124,123,126,127)   -121.1576                                         !
 ! D339  D(124,123,126,128)    123.1766                                         !
 ! D340  D(124,123,126,130)      1.6856                                         !
 ! D341  D(125,123,126,127)     -0.8278                                         !
 ! D342  D(125,123,126,128)   -116.4937                                         !
 ! D343  D(125,123,126,130)    122.0153                                         !
 ! D344  D(123,126,130,131)     67.5478                                         !
 ! D345  D(123,126,130,132)   -176.0763                                         !
 ! D346  D(123,126,130,133)    -54.1643                                         !
 ! D347  D(127,126,130,131)   -169.309                                          !
 ! D348  D(127,126,130,132)    -52.933                                          !
 ! D349  D(127,126,130,133)     68.979                                          !
 ! D350  D(128,126,130,131)    -53.2826                                         !
 ! D351  D(128,126,130,132)     63.0934                                         !
 ! D352  D(128,126,130,133)   -174.9946                                         !
 ! D353  D(126,130,133,134)     79.5585                                         !
 ! D354  D(126,130,133,135)   -165.4822                                         !
 ! D355  D(126,130,133,136)    -38.6713                                         !
 ! D356  D(131,130,133,134)    -42.448                                          !
 ! D357  D(131,130,133,135)     72.5112                                         !
 ! D358  D(131,130,133,136)   -160.6779                                         !
 ! D359  D(132,130,133,134)   -159.5227                                         !
 ! D360  D(132,130,133,135)    -44.5635                                         !
 ! D361  D(132,130,133,136)     82.2474                                         !
 ! D362  D(130,133,136,137)     66.0663                                         !
 ! D363  D(130,133,136,144)    -92.049                                          !
 ! D364  D(134,133,136,137)    -53.69                                           !
 ! D365  D(134,133,136,144)    148.1947                                         !
 ! D366  D(135,133,136,137)   -169.0392                                         !
 ! D367  D(135,133,136,144)     32.8455                                         !
 ! D368  D(133,136,144,138)      3.2014                                         !
 ! D369  D(133,136,144,141)   -176.7834                                         !
 ! D370  D(137,136,144,138)   -154.1453                                         !
 ! D371  D(137,136,144,141)     25.8699                                         !
 ! D372  D(139,138,144,136)   -147.5385                                         !
 ! D373  D(139,138,144,141)     32.447                                          !
 ! D374  D(140,138,144,136)    -10.9663                                         !
 ! D375  D(140,138,144,141)    169.0192                                         !
 ! D376  D(142,141,144,136)   -144.1034                                         !
 ! D377  D(142,141,144,138)     35.91                                           !
 ! D378  D(143,141,144,136)     -9.8471                                         !
 ! D379  D(143,141,144,138)    170.1663                                         !
 --------------------------------------------------------------------------------
 Symmetry turned off by external request.
 Stoichiometry    C43H75N14O14(1+)
 Framework group  C1[X(C43H75N14O14)]
 Deg. of freedom   432
 Full point group                 C1      NOp   1
                          Input orientation:                          
 ---------------------------------------------------------------------
 Center     Atomic      Atomic             Coordinates (Angstroms)
 Number     Number       Type             X           Y           Z
 ---------------------------------------------------------------------
      1          7           0       -9.591699   -0.232523   -7.682240
      2          1           0       -9.393034   -0.634091   -8.602147
      3          1           0      -10.110558   -0.953222   -7.112655
      4          1           0      -10.101857    0.657171   -7.794911
      5          6           0       -8.356588    0.012251   -6.859354
      6          1           0       -7.506338    0.161641   -7.528440
      7          6           0       -8.233708   -1.249211   -5.972148
      8          6           0       -8.635045    1.267164   -5.999408
      9          1           0       -7.706000    1.593521   -5.520529
     10          1           0       -9.350429    1.008819   -5.211627
     11          8           0       -9.246661   -1.957164   -5.858915
     12          8           0       -9.247461    2.273354   -6.793121
     13          1           0       -8.569178    2.853244   -7.173887
     14          7           0       -7.071574   -1.404815   -5.365294
     15          1           0       -6.280829   -0.752156   -5.462232
     16          6           0       -6.771514   -2.402347   -4.339674
     17          1           0       -7.580205   -2.399767   -3.600073
     18          6           0       -5.467094   -1.867408   -3.693981
     19          6           0       -6.605769   -3.808128   -4.931105
     20          1           0       -6.375615   -4.528601   -4.140874
     21          1           0       -5.786471   -3.822032   -5.656762
     22          1           0       -7.531656   -4.117831   -5.423898
     23          8           0       -4.882368   -0.910801   -4.228074
     24          7           0       -5.059535   -2.520775   -2.612069
     25          1           0       -5.589718   -3.291547   -2.212870
     26          6           0       -3.881172   -2.168615   -1.826842
     27          1           0       -3.096999   -1.797573   -2.492802
     28          6           0       -3.456127   -3.469283   -1.129180
     29          6           0       -4.242488   -1.068395   -0.788221
     30          1           0       -4.990103   -1.493058   -0.107184
     31          8           0       -4.330434   -4.260018   -0.744049
     32          6           0       -3.026146   -0.586279   -0.001883
     33          1           0       -2.600449   -1.387836    0.609206
     34          1           0       -2.237712   -0.247524   -0.682345
     35          1           0       -3.334644    0.238542    0.648683
     36          8           0       -4.920912    0.005779   -1.441998
     37          1           0       -4.352429    0.298271   -2.173834
     38          7           0       -2.136081   -3.617856   -0.994289
     39          1           0       -1.520533   -2.906860   -1.432800
     40          6           0       -1.545378   -4.710265   -0.248707
     41          1           0       -2.378304   -5.197339    0.275915
     42          6           0       -0.670602   -4.083360    0.859376
     43          6           0       -0.861627   -5.775459   -1.154665
[...]
 Alpha virt. eigenvalues --    1.73046   1.73295   1.73457   1.74200   1.74515
 Alpha virt. eigenvalues --    1.74990   1.75191   1.75427   1.75684   1.76135
 Alpha virt. eigenvalues --    1.76182   1.76731   1.77063   1.77613   1.77678
 Alpha virt. eigenvalues --    1.78071   1.78497   1.78778   1.78911   1.79320
 Alpha virt. eigenvalues --    1.79551   1.79664   1.79831   1.80584   1.80653
 Alpha virt. eigenvalues --    1.80881   1.81335   1.81482   1.81699   1.81858
 Alpha virt. eigenvalues --    1.81884   1.82742   1.83079   1.83405   1.83589
 Alpha virt. eigenvalues --    1.83818   1.84043   1.84227   1.84743   1.85109
 Alpha virt. eigenvalues --    1.85562   1.85628   1.86152   1.86461   1.86675
 Alpha virt. eigenvalues --    1.86913   1.87035   1.87865   1.88182   1.88477
 Alpha virt. eigenvalues --    1.88554   1.88882   1.89122   1.89612   1.89850
 Alpha virt. eigenvalues --    1.89944   1.90328   1.90539   1.91025   1.91232
 Alpha virt. eigenvalues --    1.91498   1.91661   1.92366   1.92586   1.92636
 Alpha virt. eigenvalues --    1.92879   1.93228   1.93432   1.93659   1.94021
 Alpha virt. eigenvalues --    1.94335   1.94737   1.95079   1.95199   1.95364
 Alpha virt. eigenvalues --    1.95928   1.96368   1.96628   1.96824   1.96913
 Alpha virt. eigenvalues --    1.97324   1.98214   1.98490   1.98805   1.99286
 Alpha virt. eigenvalues --    2.00008   2.00717   2.00885   2.01366   2.01691
 Alpha virt. eigenvalues --    2.01781   2.02012   2.02136   2.02494   2.02673
 Alpha virt. eigenvalues --    2.02862   2.03492   2.03771   2.04311   2.04480
 Alpha virt. eigenvalues --    2.04860   2.04980   2.05398   2.05924   2.05979
 Alpha virt. eigenvalues --    2.06539   2.06724   2.07207   2.07352   2.07466
 Alpha virt. eigenvalues --    2.08026   2.08565   2.09014   2.09147   2.09373
 Alpha virt. eigenvalues --    2.09751   2.10112   2.10577   2.10872   2.12022
 Alpha virt. eigenvalues --    2.12369   2.12700   2.13312   2.13552   2.13652
 Alpha virt. eigenvalues --    2.14039   2.14172   2.14261   2.15045   2.15519
 Alpha virt. eigenvalues --    2.15608   2.15799   2.16311   2.16611   2.16778
 Alpha virt. eigenvalues --    2.17532   2.18184   2.18431   2.18929   2.19253
 Alpha virt. eigenvalues --    2.19410   2.19568   2.20030   2.20347   2.20616
 Alpha virt. eigenvalues --    2.20701   2.21046   2.21686   2.21936   2.22254
 Alpha virt. eigenvalues --    2.23270   2.23488   2.23756   2.23868   2.24585
 Alpha virt. eigenvalues --    2.25104   2.25346   2.26168   2.26433   2.26770
 Alpha virt. eigenvalues --    2.27394   2.27853   2.28611   2.28925   2.28997
 Alpha virt. eigenvalues --    2.29781   2.30032   2.30608   2.31174   2.32123
 Alpha virt. eigenvalues --    2.32523   2.32643   2.33109   2.33576   2.34483
 Alpha virt. eigenvalues --    2.35168   2.35272   2.35725   2.36610   2.36720
 Alpha virt. eigenvalues --    2.38005   2.38412   2.38707   2.39063   2.39200
 Alpha virt. eigenvalues --    2.39362   2.39648   2.40079   2.40252   2.41480
 Alpha virt. eigenvalues --    2.41916   2.42039   2.42466   2.43326   2.43331
 Alpha virt. eigenvalues --    2.43626   2.44175   2.45049   2.45344   2.45416
 Alpha virt. eigenvalues --    2.45893   2.46609   2.46805   2.47373   2.47961
 Alpha virt. eigenvalues --    2.48463   2.48744   2.49081   2.50135   2.50307
 Alpha virt. eigenvalues --    2.50456   2.51078   2.51607   2.52706   2.52831
 Alpha virt. eigenvalues --    2.52966   2.53732   2.53759   2.54450   2.55015
 Alpha virt. eigenvalues --    2.55283   2.56395   2.56837   2.57046   2.57452
 Alpha virt. eigenvalues --    2.57819   2.58542   2.58785   2.59527   2.59854
 Alpha virt. eigenvalues --    2.60240   2.60948   2.61694   2.62034   2.62191
 Alpha virt. eigenvalues --    2.62720   2.62878   2.63071   2.64892   2.65273
 Alpha virt. eigenvalues --    2.65377   2.65520   2.66201   2.66301   2.67299
 Alpha virt. eigenvalues --    2.67825   2.68109   2.69431   2.69582   2.70351
 Alpha virt. eigenvalues --    2.70776   2.71601   2.72408   2.72620   2.72850
 Alpha virt. eigenvalues --    2.74157   2.75075   2.75395   2.76522   2.77771
 Alpha virt. eigenvalues --    2.78600   2.78928   2.80432   2.81461   2.82998
 Alpha virt. eigenvalues --    2.83468   2.83842   2.86036   2.86496   2.87663
 Alpha virt. eigenvalues --    2.88555   2.88956   2.89181   2.90122   2.90677
 Alpha virt. eigenvalues --    2.91161   2.92814   2.93221   2.94661   2.95010
 Alpha virt. eigenvalues --    2.95707   2.96374   2.96955   2.97756   2.99360
 Alpha virt. eigenvalues --    2.99686   3.00750   3.01021   3.01866   3.02326
 Alpha virt. eigenvalues --    3.04691   3.05403   3.05478   3.06407   3.09234
 Alpha virt. eigenvalues --    3.09919   3.12498   3.13159   3.13434   3.15663
 Alpha virt. eigenvalues --    3.18373   3.18534   3.20246   3.63981   3.67350
 Alpha virt. eigenvalues --    3.72456   3.78295   3.79231   3.82724   3.93508
 Alpha virt. eigenvalues --    3.94226   3.94770   3.95678   3.97222   3.98694
 Alpha virt. eigenvalues --    4.00054   4.00816   4.01301   4.04549   4.04923
 Alpha virt. eigenvalues --    4.05261   4.07710   4.08089   4.09114   4.11638
 Alpha virt. eigenvalues --    4.12274   4.12986   4.14441   4.15637   4.16238
 Alpha virt. eigenvalues --    4.17161   4.17769   4.18278   4.18938   4.20142
 Alpha virt. eigenvalues --    4.20501   4.22336   4.22639   4.23775   4.23802
 Alpha virt. eigenvalues --    4.25437   4.27055   4.27600   4.29530   4.29733
 Alpha virt. eigenvalues --    4.30796   4.32381   4.32868   4.34384   4.35470
 Alpha virt. eigenvalues --    4.37087   4.38505   4.40019   4.41426   4.44454
 Alpha virt. eigenvalues --    4.45854   4.46862   4.47295   4.49775   4.51488
 Alpha virt. eigenvalues --    4.52824   4.53160   4.54991   4.55170   4.55529
 Alpha virt. eigenvalues --    4.57236   4.61020   4.61679   4.62760   4.65651
 Alpha virt. eigenvalues --    4.67054   4.68408   4.70392   4.76067
          Condensed to atoms (all electrons):
 Mulliken charges:
               1
     1  N   -0.742435
     2  H    0.414717
     3  H    0.426263
     4  H    0.422437
     5  C   -0.143993
     6  H    0.210504
     7  C    0.652707
     8  C   -0.069762
     9  H    0.209828
    10  H    0.207971
    11  O   -0.543178
    12  O   -0.609872
    13  H    0.427572
    14  N   -0.607569
    15  H    0.372350
    16  C   -0.058495
    17  H    0.194484
    18  C    0.658090
    19  C   -0.453861
    20  H    0.183928
    21  H    0.170255
    22  H    0.178944
    23  O   -0.576179
    24  N   -0.599277
    25  H    0.353684
    26  C   -0.114072
    27  H    0.210599
    28  C    0.610121
    29  C    0.155053
    30  H    0.136792
    31  O   -0.583529
    32  C   -0.504920
    33  H    0.191789
    34  H    0.178335
    35  H    0.135595
    36  O   -0.640483
    37  H    0.395910
    38  N   -0.626772
    39  H    0.429492
    40  C   -0.034565
    41  H    0.186871
    42  C    0.635701
    43  C   -0.114316
    44  H    0.170309
    45  O   -0.542261
    46  C   -0.472269
    47  H    0.151378
    48  H    0.144995
    49  H    0.146160
    50  C   -0.454881
    51  H    0.147792
    52  H    0.165377
    53  H    0.133824
    54  N   -0.610198
    55  H    0.359567
    56  C   -0.082934
    57  H    0.185659
    58  C    0.642299
    59  C   -0.061652
    60  H    0.134285
    61  O   -0.572014
    62  C   -0.269735
    63  H    0.157985
    64  H    0.132565
    65  C   -0.485872
    66  H    0.182703
    67  H    0.146940
    68  H    0.143148
    69  C   -0.467325
    70  H    0.115567
    71  H    0.149211
    72  H    0.160595
    73  N   -0.602047
    74  H    0.381253
    75  C   -0.057215
    76  H    0.193943
    77  C    0.623210
    78  C   -0.396802
    79  H    0.164223
    80  H    0.161377
    81  O   -0.545480
    82  C    0.607495
    83  O   -0.618930
    84  O   -0.606482
    85  N   -0.629878
    86  H    0.390962
    87  C   -0.044904
    88  H    0.166594
    89  C    0.612235
    90  C   -0.388669
    91  H    0.220532
    92  H    0.199389
    93  O   -0.548886
    94  C    0.340853
    95  C   -0.017313
    96  H    0.221725
    97  N   -0.627316
    98  H    0.482432
    99  C    0.302893
   100  H    0.244066
   101  N   -0.551638
   102  N   -0.630310
   103  H    0.381376
   104  C   -0.003703
   105  H    0.171823
   106  C    0.673264
   107  C   -0.297289
   108  H    0.160004
   109  H    0.154504
   110  O   -0.630523
   111  C   -0.088908
   112  H    0.136182
   113  C   -0.452861
   114  H    0.148953
   115  H    0.162761
   116  H    0.143892
   117  C   -0.444088
   118  H    0.148341
   119  H    0.153948
   120  H    0.143400
   121  N   -0.614553
   122  H    0.377435
   123  C   -0.048177
   124  H    0.178600
   125  C    0.598203
   126  C   -0.296189
   127  H    0.164577
   128  H    0.194133
   129  O   -0.622527
   130  C   -0.269627
   131  H    0.126207
   132  H    0.138041
   133  C   -0.164156
   134  H    0.160260
   135  H    0.116524
   136  N   -0.560831
   137  H    0.463282
   138  N   -0.756407
   139  H    0.348585
   140  H    0.344402
   141  N   -0.751802
   142  H    0.341943
   143  H    0.361868
   144  C    0.676367
   145  O   -0.478124
   146  H    0.385648
 Sum of Mulliken charges =   1.00000
 Mulliken charges with hydrogens summed into heavy atoms:
               1
     1  N    0.520981
     5  C    0.066510
     7  C    0.652707
     8  C    0.348037
    11  O   -0.543178
    12  O   -0.182300
    14  N   -0.235218
    16  C    0.135990
    18  C    0.658090
    19  C    0.079267
    23  O   -0.576179
    24  N   -0.245593
    26  C    0.096527
    28  C    0.610121
    29  C    0.291845
    31  O   -0.583529
    32  C    0.000798
    36  O   -0.244573
    38  N   -0.197280
    40  C    0.152305
    42  C    0.635701
    43  C    0.055993
    45  O   -0.542261
    46  C   -0.029736
    50  C   -0.007889
    54  N   -0.250631
    56  C    0.102725
    58  C    0.642299
    59  C    0.072633
    61  O   -0.572014
    62  C    0.020815
    65  C   -0.013081
    69  C   -0.041952
    73  N   -0.220794
    75  C    0.136727
    77  C    0.623210
    78  C   -0.071202
    81  O   -0.545480
    82  C    0.607495
    83  O   -0.618930
    84  O   -0.606482
    85  N   -0.238916
    87  C    0.121690
    89  C    0.612235
    90  C    0.031252
    93  O   -0.548886
    94  C    0.340853
    95  C    0.204413
    97  N   -0.144884
    99  C    0.546960
   101  N   -0.165990
   102  N   -0.248934
   104  C    0.168120
   106  C    0.673264
   107  C    0.017219
   110  O   -0.630523
   111  C    0.047274
   113  C    0.002745
   117  C    0.001601
   121  N   -0.237118
   123  C    0.130423
   125  C    0.598203
   126  C    0.062521
   129  O   -0.159245
   130  C   -0.005379
   133  C    0.112628
   136  N   -0.560831
   138  N   -0.063419
   141  N   -0.047990
   144  C    0.676367
   145  O   -0.478124
 Electronic spatial extent (au):  <R**2>=         137213.5601
 Charge=              1.0000 electrons
 Dipole moment (field-independent basis, Debye):
    X=              0.7982    Y=              6.2924    Z=              0.3072  Tot=              6.3502
 Quadrupole moment (field-independent basis, Debye-Ang):
   XX=             94.7407   YY=           -411.3092   ZZ=            -46.0727
   XY=              8.7948   XZ=            444.4905   YZ=              3.4433
 Traceless Quadrupole moment (field-independent basis, Debye-Ang):
   XX=            215.6211   YY=           -290.4288   ZZ=             74.8077
   XY=              8.7948   XZ=            444.4905   YZ=              3.4433
 Octapole moment (field-independent basis, Debye-Ang**2):
  XXX=          -1776.3859  YYY=            501.3337  ZZZ=          -1103.0978  XYY=          -1007.5180
  XXY=            507.5051  XXZ=           -218.5841  XZZ=          -1428.8978  YZZ=            348.2554
  YYZ=           -206.3191  XYZ=            270.1043
 Hexadecapole moment (field-independent basis, Debye-Ang**3):
 XXXX=         -47266.1836 YYYY=         -29209.0304 ZZZZ=          -9353.1909 XXXY=         -11339.7787
 XXXZ=          18945.5337 YYYX=         -14925.1219 YYYZ=          -3225.9816 ZZZX=           -137.8806
 ZZZY=          -2558.8828 XXYY=         -25566.6039 XXZZ=           6075.9677 YYZZ=          -9516.5114
 XXYZ=           1695.1575 YYXZ=          -7673.6024 ZZXY=          -3556.0749
 N-N= 1.171668332232D+04 E-N=-3.157178732175D+04  KE= 3.471300117342D+03
 Unable to Open any file for archive entry.
 1\1\GINC-VIM-000\SP\RB3LYP\6-31G(d)\C43H75N14O14(1+)\KENGMITH\12-Jun-2
 022\0\\# B3LYP/6-31G* empiricaldispersion=gd3 guess=read geom=check no
 symm integral(ultrafinegrid)\\Candidate Structure: Conf:978 Charge cal
 c in gas phase\\1,1\N,0,-9.5916986043,-0.23252349,-7.6822400039\H,0,-9
 .3930344822,-0.6340905177,-8.602146547\H,0,-10.110558156,-0.9532223271
 ,-7.1126549209\H,0,-10.1018566422,0.6571712475,-7.7949112222\C,0,-8.35
 65875942,0.0122508187,-6.8593544102\H,0,-7.5063377434,0.161640897,-7.5
 284402775\C,0,-8.233708395,-1.249210993,-5.9721481932\C,0,-8.635045327
 7,1.2671638072,-5.9994079714\H,0,-7.7059999171,1.5935210519,-5.5205287
 736\H,0,-9.3504290415,1.0088189135,-5.2116269194\O,0,-9.2466613556,-1.
 9571636049,-5.85891475\O,0,-9.2474608775,2.2733537838,-6.7931211046\H,
 0,-8.5691780604,2.85324393,-7.1738869892\N,0,-7.0715744776,-1.40481476
 11,-5.3652939242\H,0,-6.2808294394,-0.7521555239,-5.4622318435\C,0,-6.
 77151443,-2.4023465744,-4.3396739166\H,0,-7.5802053814,-2.399767491,-3
 .6000729049\C,0,-5.4670943045,-1.8674084867,-3.6939811127\C,0,-6.60576
 88521,-3.808128203,-4.9311048991\H,0,-6.3756149041,-4.5286005707,-4.14
 08738034\H,0,-5.7864710578,-3.8220315979,-5.6567623922\H,0,-7.53165579
 96,-4.1178309765,-5.4238983356\O,0,-4.8823684366,-0.9108008452,-4.2280
 74362\N,0,-5.0595347902,-2.5207745303,-2.6120693669\H,0,-5.5897178155,
 -3.2915468562,-2.2128701054\C,0,-3.8811717119,-2.168615207,-1.82684162
 44\H,0,-3.0969986699,-1.7975725789,-2.4928019132\C,0,-3.4561272571,-3.
 4692832991,-1.1291798976\C,0,-4.2424877329,-1.068394651,-0.7882206534\
 H,0,-4.9901034402,-1.4930584076,-0.1071837574\O,0,-4.3304337715,-4.260
 0178088,-0.7440489723\C,0,-3.0261462241,-0.586279456,-0.0018830926\H,0
 ,-2.6004491591,-1.3878356986,0.6092064345\H,0,-2.2377116544,-0.2475237
 345,-0.6823454676\H,0,-3.334643628,0.238542143,0.6486833751\O,0,-4.920
 9119822,0.0057787634,-1.4419984743\H,0,-4.3524291614,0.2982709377,-2.1
 73834267\N,0,-2.1360811881,-3.6178557574,-0.9942894618\H,0,-1.52053268
 62,-2.9068603227,-1.4327996259\C,0,-1.5453778092,-4.7102649867,-0.2487
 068195\H,0,-2.3783041824,-5.197338746,0.2759150273\C,0,-0.6706019177,-
 4.0833598637,0.8593756732\C,0,-0.8616266714,-5.7754593755,-1.154664618
 3\H,0,0.154630716,-5.4271709847,-1.3743448213\O,0,-1.0315431179,-3.059
 3795406,1.4432780861\C,0,-0.8341420003,-7.1469210678,-0.4550784974\H,0
 ,-1.8534015796,-7.5436716921,-0.3648743509\H,0,-0.4142226032,-7.105274
 0461,0.5558544681\H,0,-0.2472459176,-7.8673953047,-1.0361112208\C,0,-1
 .5881672948,-5.8950650628,-2.50194464\H,0,-2.6580381412,-6.0861170614,
 -2.3527526305\H,0,-1.4793961409,-4.9777478247,-3.0860882913\H,0,-1.167
 9877256,-6.7244215768,-3.0829739247\N,0,0.4666739042,-4.7489831302,1.2
 298407971\H,0,0.8942694328,-5.335566799,0.5272468276\C,0,1.3715657587,
 -4.1748741581,2.2279283273\H,0,0.7295711028,-3.5683957524,2.8721175653
 \C,0,2.3442253845,-3.2162809357,1.5195643814\C,0,2.0461871994,-5.26513
 92427,3.0889133325\H,0,1.2225780985,-5.7235501349,3.6555025841\O,0,3.5
 445272338,-3.4838732293,1.3412920866\C,0,3.0442328721,-4.6734413493,4.
 1099054703\H,0,3.956487997,-4.3840569181,3.5774100415\H,0,3.3240232297
 ,-5.47897228,4.8013989595\C,0,2.7244856819,-6.3696443046,2.2622173759\
 H,0,3.4935218579,-5.9469390477,1.6102506677\H,0,2.0019805352,-6.918267
 5671,1.6477214487\H,0,3.1978955102,-7.1019085935,2.9264939926\C,0,2.52
 00515375,-3.4791309662,4.9181025418\H,0,3.2271658052,-3.2078878506,5.7
 140170085\H,0,2.3729620322,-2.5910620143,4.29122757\H,0,1.5609550417,-
 3.7052656645,5.3996463818\N,0,1.7796074259,-2.0638528262,1.0930670482\
 H,0,0.765742797,-2.0073110552,1.1788008974\C,0,2.3861087014,-1.2948843
 082,-0.0119915627\H,0,2.9896458814,-2.0022614065,-0.5906696529\C,0,3.3
 089765286,-0.2566882999,0.6351959231\C,0,1.3005600083,-0.7249605001,-0
 .911717716\H,0,0.6692321969,-0.0173958673,-0.3637653133\H,0,1.76249075
 64,-0.1535415857,-1.7249254893\O,0,3.0792443716,0.9536015489,0.6929114
 374\C,0,0.412118942,-1.8549898477,-1.5038772669\O,0,-0.6817310746,-1.4
 792675281,-2.0138816611\O,0,0.8197362136,-3.0378762914,-1.3798165332\N
 ,0,4.400843344,-0.8231132145,1.2338327046\H,0,4.4251164693,-1.84894132
 35,1.2372760462\C,0,5.0590588307,-0.1015254338,2.303645414\H,0,4.30328
 3132,0.5275799638,2.7934111018\C,0,6.1653013175,0.8355002685,1.7759565
 807\C,0,5.6700232603,-1.0623733544,3.3352839789\H,0,6.591067,-1.485381
 7444,2.9200327643\H,0,4.972417725,-1.8810211837,3.5371877031\O,0,7.362
 2333081,0.5470490074,1.872141036\C,0,5.9633721805,-0.3682222461,4.6288
 198911\C,0,5.6762162419,-0.7614693769,5.9086771102\H,0,5.1946956839,-1
 .6549853799,6.2732127171\N,0,6.5678419328,0.8799137498,4.7427700648\H,
 0,6.8931427522,1.5364891893,3.9913303858\C,0,6.6429414331,1.2332071205
 ,6.0216282623\H,0,7.052817606,2.1600497219,6.3905330587\N,0,6.11317895
 27,0.2446222475,6.754078547\N,0,5.714171608,2.0260492633,1.3368872756\
 H,0,4.712714896,2.1063854981,1.155130622\C,0,6.622229359,3.1178543456,
 1.0377708151\H,0,7.136091562,2.9259865068,0.0884413982\C,0,7.680508014
 6,3.2106501159,2.1542751324\C,0,5.8144108647,4.4288947786,0.955024048\
 H,0,5.0085557601,4.2786168652,0.2226610677\H,0,5.3357752067,4.58045143
 68,1.9311741697\O,0,7.4062531109,3.0256017939,3.3589521998\C,0,6.61057
 44066,5.6892585772,0.5657995299\H,0,7.4270822878,5.8218500173,1.289287
 7047\C,0,7.2262917404,5.588523071,-0.8382583636\H,0,6.4480903424,5.409
 601281,-1.591229593\H,0,7.7400479133,6.519238983,-1.1006930224\H,0,7.9
 647810425,4.7838615794,-0.9255678186\C,0,5.6945872153,6.918543305,0.66
 16592223\H,0,4.8601664449,6.8398674889,-0.0468472091\H,0,6.2459831337,
 7.8354465023,0.4266279683\H,0,5.271624456,7.0265485033,1.6673695502\N,
 0,8.8989890653,3.56480967,1.7487105624\H,0,9.1084573837,3.7651529126,0
 .7740422501\C,0,10.0392455197,3.6969300421,2.6383051072\H,0,9.76354670
 44,4.3793092743,3.4507732598\C,0,11.1516670726,4.3756389647,1.80343577
 87\C,0,10.4857065755,2.321380592,3.2284889179\H,0,11.5113519155,2.1056
 521525,2.9130552314\H,0,9.8502898274,1.5486113971,2.7858573224\O,0,12.
 2674699,4.667379385,2.4477376465\C,0,10.4039292029,2.2148652812,4.7605
 228838\H,0,9.3508876184,2.2396828089,5.0661769707\H,0,10.8082446303,1.
 2357274583,5.0492258058\C,0,11.162177206,3.3298869623,5.5168394789\H,0
 ,10.5529799331,4.2416914788,5.5261776684\H,0,11.2787085163,3.048181733
 9,6.5771840907\N,0,12.4165663782,3.6716032313,4.8738344334\H,0,12.2702
 517731,4.346354024,3.4285655641\N,0,13.7282663055,2.0932397302,6.09871
 7024\H,0,14.6087246635,2.1053254127,6.5990415692\H,0,12.9404694803,1.8
 687846961,6.6899369805\N,0,14.7030590856,3.5397567186,4.5745099754\H,0
 ,15.3909380382,2.8226493146,4.3787657337\H,0,14.5541247293,4.172153664
 9,3.7965063899\C,0,13.5411789258,3.1132539513,5.1851253898\O,0,10.9849
 024312,4.6170941206,0.6223473245\H,0,6.0335975886,0.2467692349,7.76243
 01029\\Version=ES64L-G16RevC.01\HF=-3503.5612562\RMSD=6.379e-10\Dipole
 =-3.8710889,3.2008653,-0.7367393\Quadrupole=160.3089871,-215.9266816,5
 5.6176945,6.538698,330.4677574,2.5599829\PG=C01 [X(C43H75N14O14)]\\@
 The archive entry for this job was punched.


 SCIENCE AT ITS BEST PROVIDES US WITH BETTER QUESTIONS, 
 NOT ABSOLUTE ANSWERS

                                    -- NORMAN COUSINS, 1976
 Job cpu time:       0 days  0 hours 13 minutes  9.5 seconds.
 Elapsed time:       0 days  0 hours  3 minutes 18.8 seconds.
 File lengths (MBytes):  RWF=    880 Int=      0 D2E=      0 Chk=    144 Scr=     16
 Normal termination of Gaussian 16 at Sun Jun 12 09:18:03 2022.
