 Entering Gaussian System, Link 0=/opt/software/Gaussian/g16-AVX2-C.01/g16/g16
 Input=charge-conf-950.com
 Output=charge-conf-950.log
 Initial command:
 /opt/software/Gaussian/g16-AVX2-C.01/g16/l1.exe "/mnt/gs18/scratch/users/kengmith/Gau-59412.inp" -scrdir="/mnt/gs18/scratch/users/kengmith/"
 Entering Link 1 = /opt/software/Gaussian/g16-AVX2-C.01/g16/l1.exe PID=     59430.
  
 Copyright (c) 1988-2019, Gaussian, Inc.  All Rights Reserved.
  
 This is part of the Gaussian(R) 16 program.  It is based on
 the Gaussian(R) 09 system (copyright 2009, Gaussian, Inc.),
 the Gaussian(R) 03 system (copyright 2003, Gaussian, Inc.),
 the Gaussian(R) 98 system (copyright 1998, Gaussian, Inc.),
 the Gaussian(R) 94 system (copyright 1995, Gaussian, Inc.),
 the Gaussian 92(TM) system (copyright 1992, Gaussian, Inc.),
 the Gaussian 90(TM) system (copyright 1990, Gaussian, Inc.),
 the Gaussian 88(TM) system (copyright 1988, Gaussian, Inc.),
 the Gaussian 86(TM) system (copyright 1986, Carnegie Mellon
 University), and the Gaussian 82(TM) system (copyright 1983,
 Carnegie Mellon University). Gaussian is a federally registered
 trademark of Gaussian, Inc.
  
 This software contains proprietary and confidential information,
 including trade secrets, belonging to Gaussian, Inc.
  
 This software is provided under written license and may be
 used, copied, transmitted, or stored only in accord with that
 written license.
  
 The following legend is applicable only to US Government
 contracts under FAR:
  
                    RESTRICTED RIGHTS LEGEND
  
 Use, reproduction and disclosure by the US Government is
 subject to restrictions as set forth in subparagraphs (a)
 and (c) of the Commercial Computer Software - Restricted
 Rights clause in FAR 52.227-19.
  
 Gaussian, Inc.
 340 Quinnipiac St., Bldg. 40, Wallingford CT 06492
  
  
 ---------------------------------------------------------------
 Warning -- This program may not be used in any manner that
 competes with the business of Gaussian, Inc. or will provide
 assistance to any competitor of Gaussian, Inc.  The licensee
 of this program is prohibited from giving any competitor of
 Gaussian, Inc. access to this program.  By using this program,
 the user acknowledges that Gaussian, Inc. is engaged in the
 business of creating and licensing software in the field of
 computational chemistry and represents and warrants to the
 licensee that it is not a competitor of Gaussian, Inc. and that
 it will not use this program in any manner prohibited above.
 ---------------------------------------------------------------
  

 Cite this work as:
 Gaussian 16, Revision C.01,
 M. J. Frisch, G. W. Trucks, H. B. Schlegel, G. E. Scuseria, 
 M. A. Robb, J. R. Cheeseman, G. Scalmani, V. Barone, 
 G. A. Petersson, H. Nakatsuji, X. Li, M. Caricato, A. V. Marenich, 
 J. Bloino, B. G. Janesko, R. Gomperts, B. Mennucci, H. P. Hratchian, 
 J. V. Ortiz, A. F. Izmaylov, J. L. Sonnenberg, D. Williams-Young, 
 F. Ding, F. Lipparini, F. Egidi, J. Goings, B. Peng, A. Petrone, 
 T. Henderson, D. Ranasinghe, V. G. Zakrzewski, J. Gao, N. Rega, 
 G. Zheng, W. Liang, M. Hada, M. Ehara, K. Toyota, R. Fukuda, 
 J. Hasegawa, M. Ishida, T. Nakajima, Y. Honda, O. Kitao, H. Nakai, 
 T. Vreven, K. Throssell, J. A. Montgomery, Jr., J. E. Peralta, 
 F. Ogliaro, M. J. Bearpark, J. J. Heyd, E. N. Brothers, K. N. Kudin, 
 V. N. Staroverov, T. A. Keith, R. Kobayashi, J. Normand, 
 K. Raghavachari, A. P. Rendell, J. C. Burant, S. S. Iyengar, 
 J. Tomasi, M. Cossi, J. M. Millam, M. Klene, C. Adamo, R. Cammi, 
 J. W. Ochterski, R. L. Martin, K. Morokuma, O. Farkas, 
 J. B. Foresman, and D. J. Fox, Gaussian, Inc., Wallingford CT, 2019.
 
 ******************************************
 Gaussian 16:  ES64L-G16RevC.01  3-Jul-2019
                12-Jun-2022 
 ******************************************
 %mem=8gb
 %nproc=4
 Will use up to    4 processors via shared memory.
 %chk=conf-950.chk
 ----------------------------------------------------------------------
 # B3LYP/6-31G* empiricaldispersion=gd3 guess=read geom=check nosymm in
 tegral(ultrafinegrid)
 ----------------------------------------------------------------------
 1/29=2,38=1,172=1/1;
 2/12=2,15=1,40=1/2;
 3/5=1,6=6,7=1,11=2,14=-4,25=1,30=1,74=-5,75=-5,116=-2,124=31/1,2,3;
 4/5=1/1;
 5/5=2,38=6/2;
 6/7=2,8=2,9=2,10=2,28=1/1;
 99/5=1,9=1/99;
 ------------------------------------------------------
 Candidate Structure: Conf:950 Charge calc in gas phase
 ------------------------------------------------------
 Structure from the checkpoint file:  "conf-950.chk"
 Charge =  1 Multiplicity = 1
 Redundant internal coordinates found in file.  (old form).
 N,0,-6.3917379463,-2.6698900562,-8.3229127537
 H,0,-6.9993186057,-2.6569969656,-9.1435468278
 H,0,-5.6924015352,-3.4467941136,-8.3614193314
 H,0,-6.9335774784,-2.7800365748,-7.4298512797
 C,0,-5.5781206387,-1.4287537015,-8.1034504775
 H,0,-5.6922101747,-0.7474797805,-8.9494971186
 C,0,-4.129301833,-1.9299247365,-7.9518525413
 C,0,-6.1020724468,-0.7838054819,-6.7602097126
 H,0,-6.8764144485,-0.0499746891,-7.0017160861
 H,0,-5.2793259206,-0.2657815917,-6.2535228248
 O,0,-3.9358089263,-3.1394628627,-7.8231647528
 O,0,-6.6957657176,-1.780027246,-5.9586410896
 H,0,-6.0339299847,-2.2043048058,-5.3441396546
 N,0,-3.1797262377,-0.9742961602,-7.9028654385
 H,0,-3.4973716611,-0.0084999046,-7.903526855
 C,0,-1.9887204516,-1.1670249518,-7.0378455302
 H,0,-1.7060297513,-2.2183975638,-7.1181854327
 C,0,-2.5553522213,-0.8106956399,-5.6508364508
 C,0,-0.8481394798,-0.2477078742,-7.4493333253
 H,0,0.0151083415,-0.4185799007,-6.7989984375
 H,0,-1.1467299744,0.7989741364,-7.337406499
 H,0,-0.5537316157,-0.4387972778,-8.4849200001
 O,0,-2.8885997903,0.3576867956,-5.4208765642
 N,0,-2.8364896684,-1.8393521406,-4.8314116591
 H,0,-2.5355353135,-2.7748762152,-5.0706225021
 C,0,-3.5689343616,-1.6425678206,-3.5780640468
 H,0,-4.2392047998,-0.791153632,-3.7412995795
 C,0,-2.5746768412,-1.3125176696,-2.4327638992
 C,0,-4.3885180092,-2.8826309386,-3.2352437518
 H,0,-3.6989832916,-3.6950831234,-2.9784801069
 O,0,-2.2957452695,-2.155566008,-1.5855106386
 C,0,-5.3525100773,-2.6363182212,-2.0833996305
 H,0,-4.7919230937,-2.3849820566,-1.1800207566
 H,0,-6.0427022126,-1.8191511938,-2.3218445184
 H,0,-5.9392868618,-3.5389860789,-1.8755638289
 O,0,-5.1006432549,-3.2538941603,-4.4541547916
 H,0,-5.6368464865,-4.0350830103,-4.2411919573
 N,0,-2.0488037312,-0.0780190435,-2.5130876176
 H,0,-2.4181787729,0.561837749,-3.2060511663
 C,0,-1.1249414,0.4409167375,-1.5002108699
 H,0,-0.2754848781,-0.2459617277,-1.4166913291
 C,0,-1.8744310529,0.5326259295,-0.1565959235
 C,0,-0.6198674932,1.831568534,-1.9437767557
 H,0,-1.5127011897,2.4354021498,-2.1664781195
 O,0,-2.896234763,1.2106691996,-0.0345985549
 C,0,0.157462894,2.5360860815,-0.8213634088
 H,0,1.0508074535,1.9577991261,-0.5643401831
 H,0,-0.4642576636,2.674475949,0.0698206509
 H,0,0.4745010743,3.5303845872,-1.1578289177
 C,0,0.2568546272,1.7033264387,-3.1993694385
 H,0,1.1367290072,1.0928250512,-2.9666582287
 H,0,-0.2833359374,1.2388509885,-4.0342159735
 H,0,0.5972747279,2.6907695725,-3.5333186016
 N,0,-1.2664095252,-0.1463814535,0.8329802714
 H,0,-0.4711103798,-0.763566716,0.6037036506
 C,0,-1.7230381897,-0.1287254359,2.2184661006
 H,0,-2.0923868893,0.8860856428,2.413116528
 C,0,-0.465075237,-0.3706703109,3.0793067927
 C,0,-2.8894964286,-1.1191449747,2.4540605546
 H,0,-3.6742686585,-0.7549753806,1.7746803971
 O,0,-0.3823017367,-1.2161691067,3.960735823
 C,0,-3.4580568085,-1.0719992755,3.8860905186
 H,0,-2.7276182009,-1.5071652478,4.5744243108
 H,0,-4.3435193837,-1.723259034,3.9076240934
 C,0,-2.5249006497,-2.5515784521,2.0376456377
 H,0,-1.7081163721,-2.9371745303,2.6545249774
 H,0,-2.2197816178,-2.5920281641,0.9872960398
 H,0,-3.3923318114,-3.2119609166,2.1653758863
 C,0,-3.8577784034,0.3272010768,4.3709907399
 H,0,-4.3924927232,0.2729157265,5.3265194877
 H,0,-2.9818209448,0.9674243761,4.5279307952
 H,0,-4.5120481739,0.8305532561,3.6475427234
 N,0,0.5912212074,0.4412982778,2.7386313679
 H,0,0.4427240223,1.0225956444,1.9230230858
 C,0,1.9469785197,-0.0608590398,2.883925465
 H,0,1.8731479538,-1.1135198076,3.1714346658
 C,0,2.7348234924,0.7339390032,3.9136488677
 C,0,2.7258061511,0.0817682349,1.5593196365
 H,0,2.8974894239,1.14285519,1.3670606075
 H,0,3.7154818244,-0.38309137,1.6605509726
 O,0,2.6536015869,1.9569613476,4.0279344017
 C,0,2.012735103,-0.5236583679,0.3040032313
 O,0,2.3356806731,0.00936383,-0.7835728191
 O,0,1.182735488,-1.4480323321,0.5175635062
 N,0,3.6593488949,0.0113688317,4.6412882066
 H,0,3.8433182283,-0.9431741554,4.3558249627
 C,0,4.725976998,0.7416557385,5.3078043779
 H,0,4.2558388215,1.6365894305,5.7244084352
 C,0,5.8081178589,1.1570790951,4.2885952284
 C,0,5.3893314924,-0.0666627277,6.4282048905
 H,0,6.0108605663,-0.8493779855,5.9777318879
 H,0,4.6220793237,-0.5418624298,7.0461021575
 O,0,6.8471766517,0.5079783785,4.1541973811
 C,0,6.2454887437,0.7999131627,7.3043766306
 C,0,6.4148573269,0.772173326,8.6630029455
 H,0,5.9807847801,0.1286935186,9.4114547283
 N,0,7.0434739421,1.8426367887,6.8448949245
 H,0,7.169098245,2.2278996078,5.8716601669
 C,0,7.665027061,2.4231005926,7.8646795785
 H,0,8.3340109152,3.2658257394,7.7868899467
 N,0,7.3040428654,1.7839329279,8.985489703
 N,0,5.5426408813,2.2959464552,3.6176572212
 H,0,4.6274027914,2.7210127536,3.7372053845
 C,0,6.5326031602,2.8881017842,2.7439030316
 H,0,7.0095161766,2.0743009034,2.1865141479
 C,0,7.6596278772,3.5142564011,3.6052515435
 C,0,5.8716357963,3.8732877055,1.7607153468
 H,0,5.4830167155,4.7312879101,2.3270589603
 H,0,6.6397065001,4.2735960102,1.0871085005
 O,0,7.7073855403,3.3795671913,4.8466845619
 C,0,4.7410495325,3.2595815397,0.9067624887
 H,0,3.9499150528,2.9213928519,1.5885238307
 C,0,4.1314947216,4.3366323407,-0.0012266443
 H,0,4.8742999122,4.7119774606,-0.7175824419
 H,0,3.2929855978,3.9241615233,-0.5722008803
 H,0,3.7607022963,5.1908793992,0.5781410328
 C,0,5.209350349,2.053530426,0.0802048998
 H,0,5.9874476059,2.3552525746,-0.6347907906
 H,0,4.3754143144,1.608197068,-0.4746747145
 H,0,5.620377034,1.2579008833,0.7123687169
 N,0,8.6073270829,4.1669867794,2.9325497043
 H,0,8.534275476,4.3792875655,1.9374589321
 C,0,9.7486342148,4.8419037701,3.5373200322
 H,0,9.4091117754,5.4445126478,4.385714396
 C,0,10.3700465761,5.7538839659,2.4501098754
 C,0,10.8162192276,3.8488733447,4.0403865891
 H,0,10.3290657553,3.1589781483,4.738140121
 H,0,11.5615651699,4.4172657187,4.6061525693
 O,0,11.3623493125,6.4372438784,2.8505419027
 C,0,11.5025016567,3.0329211394,2.928377234
 H,0,11.8954647977,2.1097382391,3.3679053093
 H,0,10.7446203931,2.7108474005,2.2013442844
 C,0,12.6696046438,3.7515291393,2.1985205249
 H,0,12.9108038,4.6932965542,2.6880521752
 H,0,13.5676063304,3.1231873881,2.216032567
 N,0,12.3630511191,4.0312816966,0.7864464984
 H,0,11.8956386922,3.2859346827,0.2877633813
 N,0,12.7899306067,6.3232627138,0.7649556486
 H,0,12.9410666765,7.1301191523,0.1731581056
 H,0,12.2696076711,6.5111733277,1.6837139788
 N,0,12.3607597457,5.183828396,-1.2225699416
 H,0,11.9240721678,5.9889891779,-1.6512407782
 H,0,12.1964382791,4.3077834743,-1.6991513955
 C,0,12.4781542426,5.1919135212,0.1349513628
 O,0,9.9283135151,5.644650056,1.2831647075
 H,0,7.6254305269,2.0159161228,9.9160306702
 Recover connectivity data from disk.
                           ----------------------------
                           !    Current Parameters    !
                           ! (Angstroms and Degrees)  !
 --------------------------                            --------------------------
 ! Name  Definition              Value                                          !
 --------------------------------------------------------------------------------
 ! R1    R(1,2)                  1.0212                                         !
 ! R2    R(1,3)                  1.046                                          !
 ! R3    R(1,4)                  1.0504                                         !
 ! R4    R(1,5)                  1.5002                                         !
 ! R5    R(5,6)                  1.0922                                         !
 ! R6    R(5,7)                  1.5405                                         !
 ! R7    R(5,8)                  1.5795                                         !
 ! R8    R(7,11)                 1.2317                                         !
 ! R9    R(7,14)                 1.3481                                         !
 ! R10   R(8,9)                  1.0938                                         !
 ! R11   R(8,10)                 1.0964                                         !
 ! R12   R(8,12)                 1.4098                                         !
 ! R13   R(12,13)                0.9978                                         !
 ! R14   R(14,15)                1.0167                                         !
 ! R15   R(14,16)                1.4846                                         !
 ! R16   R(16,17)                1.0917                                         !
 ! R17   R(16,18)                1.5401                                         !
 ! R18   R(16,19)                1.5216                                         !
 ! R19   R(18,23)                1.2365                                         !
 ! R20   R(18,24)                1.3449                                         !
 ! R21   R(19,20)                1.0942                                         !
 ! R22   R(19,21)                1.0942                                         !
 ! R23   R(19,22)                1.0934                                         !
 ! R24   R(24,25)                1.0114                                         !
 ! R25   R(24,26)                1.465                                          !
 ! R26   R(26,27)                1.0958                                         !
 ! R27   R(26,28)                1.5522                                         !
 ! R28   R(26,29)                1.5255                                         !
 ! R29   R(28,31)                1.2273                                         !
 ! R30   R(28,38)                1.3442                                         !
 ! R31   R(29,30)                1.0961                                         !
 ! R32   R(29,32)                1.5221                                         !
 ! R33   R(29,36)                1.4597                                         !
 ! R34   R(32,33)                1.0925                                         !
 ! R35   R(32,34)                1.0959                                         !
 ! R36   R(32,35)                1.0965                                         !
 ! R37   R(36,37)                0.9711                                         !
 ! R38   R(38,39)                1.0129                                         !
 ! R39   R(38,40)                1.4659                                         !
 ! R40   R(40,41)                1.0956                                         !
 ! R41   R(40,42)                1.5412                                         !
 ! R42   R(40,43)                1.5446                                         !
 ! R43   R(42,45)                1.2324                                         !
 ! R44   R(42,54)                1.3454                                         !
 ! R45   R(43,44)                1.1006                                         !
 ! R46   R(43,46)                1.5364                                         !
 ! R47   R(43,50)                1.5368                                         !
 ! R48   R(46,47)                1.0948                                         !
 ! R49   R(46,48)                1.0954                                         !
 ! R50   R(46,49)                1.0965                                         !
 ! R51   R(50,51)                1.0959                                         !
 ! R52   R(50,52)                1.0975                                         !
 ! R53   R(50,53)                1.0966                                         !
 ! R54   R(54,55)                1.0325                                         !
 ! R55   R(54,56)                1.4589                                         !
 ! R56   R(56,57)                1.0973                                         !
 ! R57   R(56,58)                1.5434                                         !
 ! R58   R(56,59)                1.5482                                         !
 ! R59   R(58,61)                1.2242                                         !
 ! R60   R(58,73)                1.3752                                         !
 ! R61   R(59,60)                1.1                                            !
 ! R62   R(59,62)                1.5415                                         !
 ! R63   R(59,65)                1.5356                                         !
 ! R64   R(62,63)                1.0939                                         !
 ! R65   R(62,64)                1.0994                                         !
 ! R66   R(62,69)                1.5338                                         !
 ! R67   R(65,66)                1.0938                                         !
 ! R68   R(65,67)                1.0945                                         !
 ! R69   R(65,68)                1.0977                                         !
 ! R70   R(69,70)                1.0963                                         !
 ! R71   R(69,71)                1.0963                                         !
 ! R72   R(69,72)                1.0976                                         !
 ! R73   R(73,74)                1.0125                                         !
 ! R74   R(73,75)                1.453                                          !
 ! R75   R(75,76)                1.0937                                         !
 ! R76   R(75,77)                1.5208                                         !
 ! R77   R(75,78)                1.5432                                         !
 ! R78   R(77,81)                1.231                                          !
 ! R79   R(77,85)                1.3807                                         !
 ! R80   R(78,79)                1.0919                                         !
 ! R81   R(78,80)                1.0981                                         !
 ! R82   R(78,82)                1.5655                                         !
 ! R83   R(82,83)                1.2535                                         !
 ! R84   R(82,84)                1.2605                                         !
 ! R85   R(85,86)                1.0132                                         !
 ! R86   R(85,87)                1.4544                                         !
 ! R87   R(87,88)                1.0934                                         !
 ! R88   R(87,89)                1.5435                                         !
 ! R89   R(87,90)                1.5326                                         !
 ! R90   R(89,93)                1.2325                                         !
 ! R91   R(89,102)               1.3482                                         !
 ! R92   R(90,91)                1.0963                                         !
 ! R93   R(90,92)                1.0937                                         !
 ! R94   R(90,94)                1.5005                                         !
 ! R95   R(94,95)                1.3694                                         !
 ! R96   R(94,97)                1.3911                                         !
 ! R97   R(95,96)                1.0783                                         !
 ! R98   R(95,101)               1.385                                          !
 ! R99   R(97,98)                1.0542                                         !
 ! R100  R(97,99)                1.3279                                         !
 ! R101  R(99,100)               1.0788                                         !
 ! R102  R(99,101)               1.3398                                         !
 ! R103  R(101,146)              1.0114                                         !
 ! R104  R(102,103)              1.0162                                         !
 ! R105  R(102,104)              1.4471                                         !
 ! R106  R(104,105)              1.0956                                         !
 ! R107  R(104,106)              1.5505                                         !
 ! R108  R(104,107)              1.5408                                         !
 ! R109  R(106,110)              1.2496                                         !
 ! R110  R(106,121)              1.3329                                         !
 ! R111  R(107,108)              1.0991                                         !
 ! R112  R(107,109)              1.0972                                         !
 ! R113  R(107,111)              1.5441                                         !
 ! R114  R(111,112)              1.0978                                         !
 ! R115  R(111,113)              1.5349                                         !
 ! R116  R(111,117)              1.5353                                         !
 ! R117  R(113,114)              1.0981                                         !
 ! R118  R(113,115)              1.0951                                         !
 ! R119  R(113,116)              1.0968                                         !
 ! R120  R(117,118)              1.0989                                         !
 ! R121  R(117,119)              1.0962                                         !
 ! R122  R(117,120)              1.0962                                         !
 ! R123  R(121,122)              1.0201                                         !
 ! R124  R(121,123)              1.4573                                         !
 ! R125  R(123,124)              1.0946                                         !
 ! R126  R(123,125)              1.5492                                         !
 ! R127  R(123,126)              1.5424                                         !
 ! R128  R(125,129)              1.2696                                         !
 ! R129  R(125,145)              1.2525                                         !
 ! R130  R(126,127)              1.0955                                         !
 ! R131  R(126,128)              1.0949                                         !
 ! R132  R(126,130)              1.5406                                         !
 ! R133  R(130,131)              1.0954                                         !
 ! R134  R(130,132)              1.0985                                         !
 ! R135  R(130,133)              1.5528                                         !
 ! R136  R(133,134)              1.0885                                         !
 ! R137  R(133,135)              1.0961                                         !
 ! R138  R(133,136)              1.4718                                         !
 ! R139  R(136,137)              1.0113                                         !
 ! R140  R(136,144)              1.3359                                         !
 ! R141  R(138,139)              1.012                                          !
 ! R142  R(138,140)              1.0725                                         !
 ! R143  R(138,144)              1.3319                                         !
 ! R144  R(141,142)              1.0113                                         !
 ! R145  R(141,143)              1.0107                                         !
 ! R146  R(141,144)              1.3626                                         !
 ! A1    A(2,1,3)              112.1846                                         !
 ! A2    A(2,1,4)              112.1894                                         !
 ! A3    A(2,1,5)              115.4554                                         !
 ! A4    A(3,1,4)              107.3556                                         !
 ! A5    A(3,1,5)              104.9079                                         !
 ! A6    A(4,1,5)              104.0133                                         !
 ! A7    A(1,5,6)              110.2474                                         !
 ! A8    A(1,5,7)              104.7917                                         !
 ! A9    A(1,5,8)              106.3987                                         !
 ! A10   A(6,5,7)              112.1719                                         !
 ! A11   A(6,5,8)              111.679                                          !
 ! A12   A(7,5,8)              111.1694                                         !
 ! A13   A(5,7,11)             118.5229                                         !
 ! A14   A(5,7,14)             115.8119                                         !
 ! A15   A(11,7,14)            125.5698                                         !
 ! A16   A(5,8,9)              108.724                                          !
 ! A17   A(5,8,10)             109.6958                                         !
 ! A18   A(5,8,12)             109.5536                                         !
 ! A19   A(9,8,10)             108.4394                                         !
 ! A20   A(9,8,12)             107.5477                                         !
 ! A21   A(10,8,12)            112.7773                                         !
 ! A22   A(8,12,13)            111.7961                                         !
 ! A23   A(7,14,15)            116.9555                                         !
 ! A24   A(7,14,16)            119.6205                                         !
 ! A25   A(15,14,16)           111.9845                                         !
 ! A26   A(14,16,17)           106.8518                                         !
 ! A27   A(14,16,18)           101.5111                                         !
 ! A28   A(14,16,19)           111.4292                                         !
 ! A29   A(17,16,18)           112.6054                                         !
 ! A30   A(17,16,19)           111.5833                                         !
 ! A31   A(18,16,19)           112.3056                                         !
 ! A32   A(16,18,23)           119.0293                                         !
 ! A33   A(16,18,24)           116.6595                                         !
 ! A34   A(23,18,24)           123.5778                                         !
 ! A35   A(16,19,20)           109.6504                                         !
 ! A36   A(16,19,21)           110.2259                                         !
 ! A37   A(16,19,22)           110.6312                                         !
 ! A38   A(20,19,21)           107.6902                                         !
 ! A39   A(20,19,22)           108.8554                                         !
 ! A40   A(21,19,22)           109.7263                                         !
 ! A41   A(18,24,25)           120.0775                                         !
 ! A42   A(18,24,26)           121.5383                                         !
 ! A43   A(25,24,26)           118.3829                                         !
 ! A44   A(24,26,27)           106.4239                                         !
 ! A45   A(24,26,28)           109.8518                                         !
 ! A46   A(24,26,29)           110.5913                                         !
 ! A47   A(27,26,28)           109.6645                                         !
 ! A48   A(27,26,29)           109.6611                                         !
 ! A49   A(28,26,29)           110.5602                                         !
 ! A50   A(26,28,31)           120.5896                                         !
 ! A51   A(26,28,38)           113.6896                                         !
 ! A52   A(31,28,38)           125.6727                                         !
 ! A53   A(26,29,30)           108.4939                                         !
 ! A54   A(26,29,32)           112.2591                                         !
 ! A55   A(26,29,36)           106.3325                                         !
 ! A56   A(30,29,32)           109.9437                                         !
 ! A57   A(30,29,36)           108.2996                                         !
 ! A58   A(32,29,36)           111.3527                                         !
 ! A59   A(29,32,33)           109.7558                                         !
 ! A60   A(29,32,34)           110.7867                                         !
 ! A61   A(29,32,35)           110.435                                          !
 ! A62   A(33,32,34)           109.3623                                         !
 ! A63   A(33,32,35)           107.8936                                         !
 ! A64   A(34,32,35)           108.5458                                         !
 ! A65   A(29,36,37)           106.9083                                         !
 ! A66   A(28,38,39)           118.5767                                         !
 ! A67   A(28,38,40)           122.0314                                         !
 ! A68   A(39,38,40)           118.614                                          !
 ! A69   A(38,40,41)           108.6256                                         !
 ! A70   A(38,40,42)           108.4789                                         !
 ! A71   A(38,40,43)           109.0499                                         !
 ! A72   A(41,40,42)           110.3578                                         !
 ! A73   A(41,40,43)           109.4399                                         !
 ! A74   A(42,40,43)           110.8419                                         !
 ! A75   A(40,42,45)           121.4828                                         !
 ! A76   A(40,42,54)           113.0431                                         !
 ! A77   A(45,42,54)           125.422                                          !
 ! A78   A(40,43,44)           106.6663                                         !
 ! A79   A(40,43,46)           111.6235                                         !
 ! A80   A(40,43,50)           110.246                                          !
 ! A81   A(44,43,46)           107.8592                                         !
 ! A82   A(44,43,50)           110.0756                                         !
 ! A83   A(46,43,50)           110.2748                                         !
 ! A84   A(43,46,47)           110.0083                                         !
 ! A85   A(43,46,48)           111.4158                                         !
 ! A86   A(43,46,49)           109.7508                                         !
 ! A87   A(47,46,48)           109.8083                                         !
 ! A88   A(47,46,49)           108.3661                                         !
 ! A89   A(48,46,49)           107.4088                                         !
 ! A90   A(43,50,51)           109.3313                                         !
 ! A91   A(43,50,52)           112.0876                                         !
 ! A92   A(43,50,53)           110.5354                                         !
 ! A93   A(51,50,52)           108.7196                                         !
 ! A94   A(51,50,53)           108.485                                          !
 ! A95   A(52,50,53)           107.5921                                         !
 ! A96   A(42,54,55)           119.1097                                         !
 ! A97   A(42,54,56)           123.4335                                         !
 ! A98   A(55,54,56)           117.337                                          !
 ! A99   A(54,56,57)           106.5588                                         !
 ! A100  A(54,56,58)           105.824                                          !
 ! A101  A(54,56,59)           111.8749                                         !
 ! A102  A(57,56,58)           108.6856                                         !
 ! A103  A(57,56,59)           108.1205                                         !
 ! A104  A(58,56,59)           115.3991                                         !
 ! A105  A(56,58,61)           124.4004                                         !
 ! A106  A(56,58,73)           113.2866                                         !
 ! A107  A(61,58,73)           122.2918                                         !
 ! A108  A(56,59,60)           103.3991                                         !
 ! A109  A(56,59,62)           113.5584                                         !
 ! A110  A(56,59,65)           112.1215                                         !
 ! A111  A(60,59,62)           107.4871                                         !
 ! A112  A(60,59,65)           108.1023                                         !
 ! A113  A(62,59,65)           111.593                                          !
 ! A114  A(59,62,63)           109.0321                                         !
 ! A115  A(59,62,64)           107.2863                                         !
 ! A116  A(59,62,69)           114.6898                                         !
 ! A117  A(63,62,64)           106.8467                                         !
 ! A118  A(63,62,69)           109.7529                                         !
 ! A119  A(64,62,69)           108.9232                                         !
 ! A120  A(59,65,66)           110.6833                                         !
 ! A121  A(59,65,67)           111.1544                                         !
 ! A122  A(59,65,68)           109.9996                                         !
 ! A123  A(66,65,67)           108.6646                                         !
 ! A124  A(66,65,68)           108.204                                          !
 ! A125  A(67,65,68)           108.0433                                         !
 ! A126  A(62,69,70)           110.9451                                         !
 ! A127  A(62,69,71)           111.7011                                         !
 ! A128  A(62,69,72)           111.4259                                         !
 ! A129  A(70,69,71)           107.0893                                         !
 ! A130  A(70,69,72)           107.8447                                         !
 ! A131  A(71,69,72)           107.6273                                         !
 ! A132  A(58,73,74)           115.2068                                         !
 ! A133  A(58,73,75)           119.2002                                         !
 ! A134  A(74,73,75)           114.5696                                         !
 ! A135  A(73,75,76)           107.2126                                         !
 ! A136  A(73,75,77)           111.744                                          !
 ! A137  A(73,75,78)           110.6783                                         !
 ! A138  A(76,75,77)           111.0996                                         !
 ! A139  A(76,75,78)           110.4053                                         !
 ! A140  A(77,75,78)           105.7497                                         !
 ! A141  A(75,77,81)           123.2237                                         !
 ! A142  A(75,77,85)           115.4819                                         !
 ! A143  A(81,77,85)           121.01                                           !
 ! A144  A(75,78,79)           108.6804                                         !
 ! A145  A(75,78,80)           109.6698                                         !
 ! A146  A(75,78,82)           115.0021                                         !
 ! A147  A(79,78,80)           106.6126                                         !
 ! A148  A(79,78,82)           107.8322                                         !
 ! A149  A(80,78,82)           108.7067                                         !
 ! A150  A(78,82,83)           114.4516                                         !
 ! A151  A(78,82,84)           116.5934                                         !
 ! A152  A(83,82,84)           128.9368                                         !
 ! A153  A(77,85,86)           117.7854                                         !
 ! A154  A(77,85,87)           118.0224                                         !
 ! A155  A(86,85,87)           117.9714                                         !
 ! A156  A(85,87,88)           105.6797                                         !
 ! A157  A(85,87,89)           110.2859                                         !
 ! A158  A(85,87,90)           112.8075                                         !
 ! A159  A(88,87,89)           109.4366                                         !
 ! A160  A(88,87,90)           109.8321                                         !
 ! A161  A(89,87,90)           108.7375                                         !
 ! A162  A(87,89,93)           121.4209                                         !
 ! A163  A(87,89,102)          114.7028                                         !
 ! A164  A(93,89,102)          123.8226                                         !
 ! A165  A(87,90,91)           108.7574                                         !
 ! A166  A(87,90,92)           109.787                                          !
 ! A167  A(87,90,94)           111.6688                                         !
 ! A168  A(91,90,92)           108.641                                          !
 ! A169  A(91,90,94)           109.1944                                         !
 ! A170  A(92,90,94)           108.7407                                         !
 ! A171  A(90,94,95)           129.6553                                         !
 ! A172  A(90,94,97)           124.5629                                         !
 ! A173  A(95,94,97)           105.7793                                         !
 ! A174  A(94,95,96)           130.6133                                         !
 ! A175  A(94,95,101)          107.1939                                         !
 ! A176  A(96,95,101)          122.1926                                         !
 ! A177  A(94,97,98)           130.3312                                         !
 ! A178  A(94,97,99)           110.0297                                         !
 ! A179  A(98,97,99)           119.5681                                         !
 ! A180  A(97,99,100)          125.1962                                         !
 ! A181  A(97,99,101)          107.9268                                         !
 ! A182  A(100,99,101)         126.8754                                         !
 ! A183  A(95,101,99)          109.0678                                         !
 ! A184  A(95,101,146)         125.8564                                         !
 ! A185  A(99,101,146)         125.0722                                         !
 ! A186  A(89,102,103)         118.174                                          !
 ! A187  A(89,102,104)         120.7595                                         !
 ! A188  A(103,102,104)        121.0647                                         !
 ! A189  A(102,104,105)        107.5183                                         !
 ! A190  A(102,104,106)        109.0912                                         !
 ! A191  A(102,104,107)        110.6989                                         !
 ! A192  A(105,104,106)        105.4367                                         !
 ! A193  A(105,104,107)        109.6956                                         !
 ! A194  A(106,104,107)        114.0835                                         !
 ! A195  A(104,106,110)        122.4201                                         !
 ! A196  A(104,106,121)        115.7334                                         !
 ! A197  A(110,106,121)        121.8013                                         !
 ! A198  A(104,107,108)        108.7853                                         !
 ! A199  A(104,107,109)        108.9488                                         !
 ! A200  A(104,107,111)        114.3853                                         !
 ! A201  A(108,107,109)        106.2036                                         !
 ! A202  A(108,107,111)        109.6559                                         !
 ! A203  A(109,107,111)        108.5442                                         !
 ! A204  A(107,111,112)        107.8587                                         !
 ! A205  A(107,111,113)        109.8186                                         !
 ! A206  A(107,111,117)        112.7456                                         !
 ! A207  A(112,111,113)        107.2988                                         !
 ! A208  A(112,111,117)        108.1906                                         !
 ! A209  A(113,111,117)        110.7246                                         !
 ! A210  A(111,113,114)        110.9234                                         !
 ! A211  A(111,113,115)        110.3776                                         !
 ! A212  A(111,113,116)        111.611                                          !
 ! A213  A(114,113,115)        107.8522                                         !
 ! A214  A(114,113,116)        107.8829                                         !
 ! A215  A(115,113,116)        108.0549                                         !
 ! A216  A(111,117,118)        110.5221                                         !
 ! A217  A(111,117,119)        111.0758                                         !
 ! A218  A(111,117,120)        111.9669                                         !
 ! A219  A(118,117,119)        108.7141                                         !
 ! A220  A(118,117,120)        107.999                                          !
 ! A221  A(119,117,120)        106.3977                                         !
 ! A222  A(106,121,122)        122.9086                                         !
 ! A223  A(106,121,123)        125.0406                                         !
 ! A224  A(122,121,123)        111.3772                                         !
 ! A225  A(121,123,124)        109.4923                                         !
 ! A226  A(121,123,125)        107.1898                                         !
 ! A227  A(121,123,126)        112.2873                                         !
 ! A228  A(124,123,125)        110.1376                                         !
 ! A229  A(124,123,126)        108.4417                                         !
 ! A230  A(125,123,126)        109.2855                                         !
 ! A231  A(123,125,129)        114.1431                                         !
 ! A232  A(123,125,145)        117.4547                                         !
 ! A233  A(129,125,145)        128.0549                                         !
 ! A234  A(123,126,127)        107.7821                                         !
 ! A235  A(123,126,128)        107.7889                                         !
 ! A236  A(123,126,130)        114.4511                                         !
 ! A237  A(127,126,128)        107.4896                                         !
 ! A238  A(127,126,130)        108.9229                                         !
 ! A239  A(128,126,130)        110.1635                                         !
 ! A240  A(126,130,131)        108.455                                          !
 ! A241  A(126,130,132)        109.0066                                         !
 ! A242  A(126,130,133)        115.4033                                         !
 ! A243  A(131,130,132)        105.4247                                         !
 ! A244  A(131,130,133)        107.9984                                         !
 ! A245  A(132,130,133)        110.0693                                         !
 ! A246  A(130,133,134)        110.8285                                         !
 ! A247  A(130,133,135)        110.0572                                         !
 ! A248  A(130,133,136)        112.4802                                         !
 ! A249  A(134,133,135)        107.8936                                         !
 ! A250  A(134,133,136)        108.2518                                         !
 ! A251  A(135,133,136)        107.1527                                         !
 ! A252  A(133,136,137)        115.4222                                         !
 ! A253  A(133,136,144)        127.9564                                         !
 ! A254  A(137,136,144)        116.0818                                         !
 ! A255  A(139,138,140)        115.7055                                         !
 ! A256  A(139,138,144)        115.8227                                         !
 ! A257  A(140,138,144)        116.134                                          !
 ! A258  A(142,141,143)        114.8343                                         !
 ! A259  A(142,141,144)        117.0503                                         !
 ! A260  A(143,141,144)        119.2688                                         !
 ! A261  A(136,144,138)        121.8324                                         !
 ! A262  A(136,144,141)        118.2464                                         !
 ! A263  A(138,144,141)        119.7646                                         !
 ! D1    D(2,1,5,6)             -6.7384                                         !
 ! D2    D(2,1,5,7)           -127.631                                          !
 ! D3    D(2,1,5,8)            114.526                                          !
 ! D4    D(3,1,5,6)            117.2818                                         !
 ! D5    D(3,1,5,7)             -3.6108                                         !
 ! D6    D(3,1,5,8)           -121.4539                                         !
 ! D7    D(4,1,5,6)           -130.099                                          !
 ! D8    D(4,1,5,7)            109.0084                                         !
 ! D9    D(4,1,5,8)             -8.8347                                         !
 ! D10   D(1,5,7,11)           -11.0047                                         !
 ! D11   D(1,5,7,14)           172.3492                                         !
 ! D12   D(6,5,7,11)          -130.6167                                         !
 ! D13   D(6,5,7,14)            52.7371                                         !
 ! D14   D(8,5,7,11)           103.5389                                         !
 ! D15   D(8,5,7,14)           -73.1072                                         !
 ! D16   D(1,5,8,9)            -93.0395                                         !
 ! D17   D(1,5,8,10)           148.5319                                         !
 ! D18   D(1,5,8,12)            24.2326                                         !
 ! D19   D(6,5,8,9)             27.3049                                         !
 ! D20   D(6,5,8,10)           -91.1238                                         !
 ! D21   D(6,5,8,12)           144.5769                                         !
 ! D22   D(7,5,8,9)            153.4225                                         !
 ! D23   D(7,5,8,10)            34.9938                                         !
 ! D24   D(7,5,8,12)           -89.3055                                         !
 ! D25   D(5,7,14,15)            4.1656                                         !
 ! D26   D(5,7,14,16)          144.7223                                         !
 ! D27   D(11,7,14,15)        -172.2113                                         !
 ! D28   D(11,7,14,16)         -31.6546                                         !
 ! D29   D(5,8,12,13)           90.3805                                         !
 ! D30   D(9,8,12,13)         -151.6117                                         !
 ! D31   D(10,8,12,13)         -32.1017                                         !
 ! D32   D(7,14,16,17)          39.034                                          !
 ! D33   D(7,14,16,18)         -79.1017                                         !
 ! D34   D(7,14,16,19)         161.1603                                         !
 ! D35   D(15,14,16,17)       -178.6061                                         !
 ! D36   D(15,14,16,18)         63.2582                                         !
 ! D37   D(15,14,16,19)        -56.4798                                         !
 ! D38   D(14,16,18,23)        -67.5381                                         !
 ! D39   D(14,16,18,24)        103.0058                                         !
 ! D40   D(17,16,18,23)        178.5543                                         !
 ! D41   D(17,16,18,24)        -10.9018                                         !
 ! D42   D(19,16,18,23)         51.5764                                         !
 ! D43   D(19,16,18,24)       -137.8798                                         !
 ! D44   D(14,16,19,20)       -179.5947                                         !
 ! D45   D(14,16,19,21)         62.0182                                         !
 ! D46   D(14,16,19,22)        -59.5205                                         !
 ! D47   D(17,16,19,20)        -60.2429                                         !
 ! D48   D(17,16,19,21)       -178.63                                           !
 ! D49   D(17,16,19,22)         59.8313                                         !
 ! D50   D(18,16,19,20)         67.2808                                         !
 ! D51   D(18,16,19,21)        -51.1063                                         !
 ! D52   D(18,16,19,22)       -172.6451                                         !
 ! D53   D(16,18,24,25)         10.1068                                         !
 ! D54   D(16,18,24,26)       -170.3312                                         !
 ! D55   D(23,18,24,25)       -179.8221                                         !
 ! D56   D(23,18,24,26)         -0.26                                           !
 ! D57   D(18,24,26,27)         30.4051                                         !
 ! D58   D(18,24,26,28)        -88.2422                                         !
 ! D59   D(18,24,26,29)        149.4473                                         !
 ! D60   D(25,24,26,27)       -150.0256                                         !
 ! D61   D(25,24,26,28)         91.327                                          !
 ! D62   D(25,24,26,29)        -30.9834                                         !
 ! D63   D(24,26,28,31)       -105.1711                                         !
 ! D64   D(24,26,28,38)         72.4447                                         !
 ! D65   D(27,26,28,31)        138.1978                                         !
 ! D66   D(27,26,28,38)        -44.1863                                         !
 ! D67   D(29,26,28,31)         17.1578                                         !
 ! D68   D(29,26,28,38)       -165.2263                                         !
 ! D69   D(24,26,29,30)         68.5092                                         !
 ! D70   D(24,26,29,32)       -169.7868                                         !
 ! D71   D(24,26,29,36)        -47.7875                                         !
 ! D72   D(27,26,29,30)       -174.4277                                         !
 ! D73   D(27,26,29,32)        -52.7237                                         !
 ! D74   D(27,26,29,36)         69.2756                                         !
 ! D75   D(28,26,29,30)        -53.3857                                         !
 ! D76   D(28,26,29,32)         68.3183                                         !
 ! D77   D(28,26,29,36)       -169.6824                                         !
 ! D78   D(26,28,38,39)          8.0579                                         !
 ! D79   D(26,28,38,40)        177.811                                          !
 ! D80   D(31,28,38,39)       -174.4686                                         !
 ! D81   D(31,28,38,40)         -4.7155                                         !
 ! D82   D(26,29,32,33)        -62.2975                                         !
 ! D83   D(26,29,32,34)         58.5753                                         !
 ! D84   D(26,29,32,35)        178.8728                                         !
 ! D85   D(30,29,32,33)         58.5748                                         !
 ! D86   D(30,29,32,34)        179.4476                                         !
 ! D87   D(30,29,32,35)        -60.2548                                         !
 ! D88   D(36,29,32,33)        178.6074                                         !
 ! D89   D(36,29,32,34)        -60.5198                                         !
 ! D90   D(36,29,32,35)         59.7777                                         !
 ! D91   D(26,29,36,37)       -179.109                                          !
 ! D92   D(30,29,36,37)         64.4639                                         !
 ! D93   D(32,29,36,37)        -56.5357                                         !
 ! D94   D(28,38,40,41)         56.2437                                         !
 ! D95   D(28,38,40,42)        -63.7364                                         !
 ! D96   D(28,38,40,43)        175.449                                          !
 ! D97   D(39,38,40,41)       -134.0068                                         !
 ! D98   D(39,38,40,42)        106.0131                                         !
 ! D99   D(39,38,40,43)        -14.8015                                         !
 ! D100  D(38,40,42,45)        -58.3082                                         !
 ! D101  D(38,40,42,54)        124.1826                                         !
 ! D102  D(41,40,42,45)       -177.2018                                         !
 ! D103  D(41,40,42,54)          5.289                                          !
 ! D104  D(43,40,42,45)         61.3916                                         !
 ! D105  D(43,40,42,54)       -116.1176                                         !
 ! D106  D(38,40,43,44)         52.5623                                         !
 ! D107  D(38,40,43,46)        170.1455                                         !
 ! D108  D(38,40,43,50)        -66.9315                                         !
 ! D109  D(41,40,43,44)        171.2599                                         !
 ! D110  D(41,40,43,46)        -71.157                                          !
 ! D111  D(41,40,43,50)         51.7661                                         !
 ! D112  D(42,40,43,44)        -66.795                                          !
 ! D113  D(42,40,43,46)         50.7881                                         !
 ! D114  D(42,40,43,50)        173.7112                                         !
 ! D115  D(40,42,54,55)         -8.9614                                         !
 ! D116  D(40,42,54,56)        175.1276                                         !
 ! D117  D(45,42,54,55)        173.6453                                         !
 ! D118  D(45,42,54,56)         -2.2657                                         !
 ! D119  D(40,43,46,47)         62.5805                                         !
 ! D120  D(40,43,46,48)        -59.4389                                         !
 ! D121  D(40,43,46,49)       -178.274                                          !
 ! D122  D(44,43,46,47)        179.443                                          !
 ! D123  D(44,43,46,48)         57.4236                                         !
 ! D124  D(44,43,46,49)        -61.4115                                         !
 ! D125  D(50,43,46,47)        -60.3262                                         !
 ! D126  D(50,43,46,48)        177.6544                                         !
 ! D127  D(50,43,46,49)         58.8193                                         !
 ! D128  D(40,43,50,51)        -62.0794                                         !
 ! D129  D(40,43,50,52)         58.5451                                         !
 ! D130  D(40,43,50,53)        178.5662                                         !
 ! D131  D(44,43,50,51)       -179.4832                                         !
 ! D132  D(44,43,50,52)        -58.8587                                         !
 ! D133  D(44,43,50,53)         61.1625                                         !
 ! D134  D(46,43,50,51)         61.6293                                         !
 ! D135  D(46,43,50,52)       -177.7462                                         !
 ! D136  D(46,43,50,53)        -57.725                                          !
 ! D137  D(42,54,56,57)        -36.2105                                         !
 ! D138  D(42,54,56,58)       -151.7842                                         !
 ! D139  D(42,54,56,59)         81.7604                                         !
 ! D140  D(55,54,56,57)        147.811                                          !
 ! D141  D(55,54,56,58)         32.2373                                         !
 ! D142  D(55,54,56,59)        -94.2181                                         !
 ! D143  D(54,56,58,61)       -129.0574                                         !
 ! D144  D(54,56,58,73)         49.2951                                         !
 ! D145  D(57,56,58,61)        116.8281                                         !
 ! D146  D(57,56,58,73)        -64.8194                                         !
 ! D147  D(59,56,58,61)         -4.7753                                         !
 ! D148  D(59,56,58,73)        173.5772                                         !
 ! D149  D(54,56,59,60)        -60.4245                                         !
 ! D150  D(54,56,59,62)       -176.5829                                         !
 ! D151  D(54,56,59,65)         55.7831                                         !
 ! D152  D(57,56,59,60)         56.6099                                         !
 ! D153  D(57,56,59,62)        -59.5486                                         !
 ! D154  D(57,56,59,65)        172.8174                                         !
 ! D155  D(58,56,59,60)        178.5169                                         !
 ! D156  D(58,56,59,62)         62.3585                                         !
 ! D157  D(58,56,59,65)        -65.2755                                         !
 ! D158  D(56,58,73,74)         -5.5354                                         !
 ! D159  D(56,58,73,75)       -147.6773                                         !
 ! D160  D(61,58,73,74)        172.8566                                         !
 ! D161  D(61,58,73,75)         30.7147                                         !
 ! D162  D(56,59,62,63)        -70.9262                                         !
 ! D163  D(56,59,62,64)        173.7062                                         !
 ! D164  D(56,59,62,69)         52.5826                                         !
 ! D165  D(60,59,62,63)        175.344                                          !
 ! D166  D(60,59,62,64)         59.9764                                         !
 ! D167  D(60,59,62,69)        -61.1471                                         !
 ! D168  D(65,59,62,63)         56.9815                                         !
 ! D169  D(65,59,62,64)        -58.3861                                         !
 ! D170  D(65,59,62,69)       -179.5097                                         !
 ! D171  D(56,59,65,66)         63.6798                                         !
 ! D172  D(56,59,65,67)        -57.1764                                         !
 ! D173  D(56,59,65,68)       -176.798                                          !
 ! D174  D(60,59,65,66)        177.0115                                         !
 ! D175  D(60,59,65,67)         56.1554                                         !
 ! D176  D(60,59,65,68)        -63.4662                                         !
 ! D177  D(62,59,65,66)        -64.9945                                         !
 ! D178  D(62,59,65,67)        174.1494                                         !
 ! D179  D(62,59,65,68)         54.5278                                         !
 ! D180  D(59,62,69,70)        171.2884                                         !
 ! D181  D(59,62,69,71)        -69.3063                                         !
 ! D182  D(59,62,69,72)         51.1108                                         !
 ! D183  D(63,62,69,70)        -65.5888                                         !
 ! D184  D(63,62,69,71)         53.8165                                         !
 ! D185  D(63,62,69,72)        174.2336                                         !
 ! D186  D(64,62,69,70)         51.0672                                         !
 ! D187  D(64,62,69,71)        170.4725                                         !
 ! D188  D(64,62,69,72)        -69.1104                                         !
 ! D189  D(58,73,75,76)          5.7531                                         !
 ! D190  D(58,73,75,77)       -116.2047                                         !
 ! D191  D(58,73,75,78)        126.2217                                         !
 ! D192  D(74,73,75,76)       -136.6177                                         !
 ! D193  D(74,73,75,77)        101.4245                                         !
 ! D194  D(74,73,75,78)        -16.149                                          !
 ! D195  D(73,75,77,81)        -39.6122                                         !
 ! D196  D(73,75,77,85)        146.4684                                         !
 ! D197  D(76,75,77,81)       -159.3067                                         !
 ! D198  D(76,75,77,85)         26.7738                                         !
 ! D199  D(78,75,77,81)         80.8841                                         !
 ! D200  D(78,75,77,85)        -93.0354                                         !
 ! D201  D(73,75,78,79)         68.8468                                         !
 ! D202  D(73,75,78,80)       -174.9627                                         !
 ! D203  D(73,75,78,82)        -52.1077                                         !
 ! D204  D(76,75,78,79)       -172.6063                                         !
 ! D205  D(76,75,78,80)        -56.4159                                         !
 ! D206  D(76,75,78,82)         66.4392                                         !
 ! D207  D(77,75,78,79)        -52.3421                                         !
 ! D208  D(77,75,78,80)         63.8483                                         !
 ! D209  D(77,75,78,82)       -173.2966                                         !
 ! D210  D(75,77,85,86)          8.5988                                         !
 ! D211  D(75,77,85,87)        160.3616                                         !
 ! D212  D(81,77,85,86)       -165.4669                                         !
 ! D213  D(81,77,85,87)        -13.7042                                         !
 ! D214  D(75,78,82,83)        153.6228                                         !
 ! D215  D(75,78,82,84)        -24.9635                                         !
 ! D216  D(79,78,82,83)         32.206                                          !
 ! D217  D(79,78,82,84)       -146.3803                                         !
 ! D218  D(80,78,82,83)        -83.0083                                         !
 ! D219  D(80,78,82,84)         98.4055                                         !
 ! D220  D(77,85,87,88)         40.8968                                         !
 ! D221  D(77,85,87,89)        -77.2828                                         !
 ! D222  D(77,85,87,90)        160.9171                                         !
 ! D223  D(86,85,87,88)       -167.3933                                         !
 ! D224  D(86,85,87,89)         74.427                                          !
 ! D225  D(86,85,87,90)        -47.3731                                         !
 ! D226  D(85,87,89,93)        -98.8481                                         !
 ! D227  D(85,87,89,102)        83.7204                                         !
 ! D228  D(88,87,89,93)        145.3045                                         !
 ! D229  D(88,87,89,102)       -32.127                                          !
 ! D230  D(90,87,89,93)         25.3309                                         !
 ! D231  D(90,87,89,102)      -152.1006                                         !
 ! D232  D(85,87,90,91)         72.9672                                         !
 ! D233  D(85,87,90,92)        -45.7785                                         !
 ! D234  D(85,87,90,94)       -166.4657                                         !
 ! D235  D(88,87,90,91)       -169.4308                                         !
 ! D236  D(88,87,90,92)         71.8235                                         !
 ! D237  D(88,87,90,94)        -48.8637                                         !
 ! D238  D(89,87,90,91)        -49.703                                          !
 ! D239  D(89,87,90,92)       -168.4488                                         !
 ! D240  D(89,87,90,94)         70.864                                          !
 ! D241  D(87,89,102,103)       -7.5704                                         !
 ! D242  D(87,89,102,104)      172.9109                                         !
 ! D243  D(93,89,102,103)      175.0679                                         !
 ! D244  D(93,89,102,104)       -4.4508                                         !
 ! D245  D(87,90,94,95)        140.7263                                         !
 ! D246  D(87,90,94,97)        -38.6129                                         !
 ! D247  D(91,90,94,95)        -98.9624                                         !
 ! D248  D(91,90,94,97)         81.6984                                         !
 ! D249  D(92,90,94,95)         19.4303                                         !
 ! D250  D(92,90,94,97)       -159.9089                                         !
 ! D251  D(90,94,95,96)          0.1669                                         !
 ! D252  D(90,94,95,101)      -179.6379                                         !
 ! D253  D(97,94,95,96)        179.6014                                         !
 ! D254  D(97,94,95,101)        -0.2034                                         !
 ! D255  D(90,94,97,98)          2.5015                                         !
 ! D256  D(90,94,97,99)        179.3574                                         !
 ! D257  D(95,94,97,98)       -176.9698                                         !
 ! D258  D(95,94,97,99)         -0.114                                          !
 ! D259  D(94,95,101,99)         0.452                                          !
 ! D260  D(94,95,101,146)      179.7942                                         !
 ! D261  D(96,95,101,99)      -179.3728                                         !
 ! D262  D(96,95,101,146)       -0.0307                                         !
 ! D263  D(94,97,99,100)      -179.1654                                         !
 ! D264  D(94,97,99,101)         0.3963                                         !
 ! D265  D(98,97,99,100)        -1.9208                                         !
 ! D266  D(98,97,99,101)       177.6409                                         !
 ! D267  D(97,99,101,95)        -0.5235                                         !
 ! D268  D(97,99,101,146)     -179.872                                          !
 ! D269  D(100,99,101,95)      179.0287                                         !
 ! D270  D(100,99,101,146)      -0.3198                                         !
 ! D271  D(89,102,104,105)      41.4809                                         !
 ! D272  D(89,102,104,106)     -72.386                                          !
 ! D273  D(89,102,104,107)     161.2871                                         !
 ! D274  D(103,102,104,105)   -138.0239                                         !
 ! D275  D(103,102,104,106)    108.1093                                         !
 ! D276  D(103,102,104,107)    -18.2176                                         !
 ! D277  D(102,104,106,110)      6.1339                                         !
 ! D278  D(102,104,106,121)   -176.2722                                         !
 ! D279  D(105,104,106,110)   -109.0816                                         !
 ! D280  D(105,104,106,121)     68.5123                                         !
 ! D281  D(107,104,106,110)    130.4941                                         !
 ! D282  D(107,104,106,121)    -51.912                                          !
 ! D283  D(102,104,107,108)     66.9045                                         !
 ! D284  D(102,104,107,109)   -177.7282                                         !
 ! D285  D(102,104,107,111)    -56.0715                                         !
 ! D286  D(105,104,107,108)   -174.6037                                         !
 ! D287  D(105,104,107,109)    -59.2364                                         !
 ! D288  D(105,104,107,111)     62.4203                                         !
 ! D289  D(106,104,107,108)    -56.5908                                         !
 ! D290  D(106,104,107,109)     58.7766                                         !
 ! D291  D(106,104,107,111)   -179.5668                                         !
 ! D292  D(104,106,121,122)      9.5509                                         !
 ! D293  D(104,106,121,123)    179.3234                                         !
 ! D294  D(110,106,121,122)   -172.839                                          !
 ! D295  D(110,106,121,123)     -3.0665                                         !
 ! D296  D(104,107,111,112)     61.7195                                         !
 ! D297  D(104,107,111,113)    178.3472                                         !
 ! D298  D(104,107,111,117)    -57.6684                                         !
 ! D299  D(108,107,111,112)    -60.7845                                         !
 ! D300  D(108,107,111,113)     55.8433                                         !
 ! D301  D(108,107,111,117)    179.8277                                         !
 ! D302  D(109,107,111,112)   -176.4021                                         !
 ! D303  D(109,107,111,113)    -59.7744                                         !
 ! D304  D(109,107,111,117)     64.21                                           !
 ! D305  D(107,111,113,114)     63.5463                                         !
 ! D306  D(107,111,113,115)   -176.9728                                         !
 ! D307  D(107,111,113,116)    -56.7895                                         !
 ! D308  D(112,111,113,114)   -179.4748                                         !
 ! D309  D(112,111,113,115)    -59.9939                                         !
 ! D310  D(112,111,113,116)     60.1893                                         !
 ! D311  D(117,111,113,114)    -61.6074                                         !
 ! D312  D(117,111,113,115)     57.8734                                         !
 ! D313  D(117,111,113,116)    178.0567                                         !
 ! D314  D(107,111,117,118)    -62.1655                                         !
 ! D315  D(107,111,117,119)    177.077                                          !
 ! D316  D(107,111,117,120)     58.2824                                         !
 ! D317  D(112,111,117,118)    178.6392                                         !
 ! D318  D(112,111,117,119)     57.8817                                         !
 ! D319  D(112,111,117,120)    -60.913                                          !
 ! D320  D(113,111,117,118)     61.3178                                         !
 ! D321  D(113,111,117,119)    -59.4397                                         !
 ! D322  D(113,111,117,120)   -178.2343                                         !
 ! D323  D(106,121,123,124)    -46.2542                                         !
 ! D324  D(106,121,123,125)   -165.7121                                         !
 ! D325  D(106,121,123,126)     74.2597                                         !
 ! D326  D(122,121,123,124)    124.5343                                         !
 ! D327  D(122,121,123,125)      5.0764                                         !
 ! D328  D(122,121,123,126)   -114.9518                                         !
 ! D329  D(121,123,125,129)    178.2071                                         !
 ! D330  D(121,123,125,145)     -8.0096                                         !
 ! D331  D(124,123,125,129)     59.1643                                         !
 ! D332  D(124,123,125,145)   -127.0523                                         !
 ! D333  D(126,123,125,129)    -59.8663                                         !
 ! D334  D(126,123,125,145)    113.917                                          !
 ! D335  D(121,123,126,127)    -56.1011                                         !
 ! D336  D(121,123,126,128)   -171.8457                                         !
 ! D337  D(121,123,126,130)     65.2278                                         !
 ! D338  D(124,123,126,127)     65.0181                                         !
 ! D339  D(124,123,126,128)    -50.7266                                         !
 ! D340  D(124,123,126,130)   -173.6531                                         !
 ! D341  D(125,123,126,127)   -174.9045                                         !
 ! D342  D(125,123,126,128)     69.3509                                         !
 ! D343  D(125,123,126,130)    -53.5756                                         !
 ! D344  D(123,126,130,131)   -156.3162                                         !
 ! D345  D(123,126,130,132)    -42.0163                                         !
 ! D346  D(123,126,130,133)     82.4121                                         !
 ! D347  D(127,126,130,131)    -35.6169                                         !
 ! D348  D(127,126,130,132)     78.683                                          !
 ! D349  D(127,126,130,133)   -156.8885                                         !
 ! D350  D(128,126,130,131)     82.0501                                         !
 ! D351  D(128,126,130,132)   -163.65                                           !
 ! D352  D(128,126,130,133)    -39.2216                                         !
 ! D353  D(126,130,133,134)      7.6712                                         !
 ! D354  D(126,130,133,135)    126.9365                                         !
 ! D355  D(126,130,133,136)   -113.6662                                         !
 ! D356  D(131,130,133,134)   -113.8468                                         !
 ! D357  D(131,130,133,135)      5.4185                                         !
 ! D358  D(131,130,133,136)    124.8158                                         !
 ! D359  D(132,130,133,134)    131.5437                                         !
 ! D360  D(132,130,133,135)   -109.191                                          !
 ! D361  D(132,130,133,136)     10.2063                                         !
 ! D362  D(130,133,136,137)    -41.9328                                         !
 ! D363  D(130,133,136,144)    129.2373                                         !
 ! D364  D(134,133,136,137)   -164.7301                                         !
 ! D365  D(134,133,136,144)      6.4401                                         !
 ! D366  D(135,133,136,137)     79.1422                                         !
 ! D367  D(135,133,136,144)   -109.6877                                         !
 ! D368  D(133,136,144,138)     -6.5501                                         !
 ! D369  D(133,136,144,141)    168.8886                                         !
 ! D370  D(137,136,144,138)    164.5705                                         !
 ! D371  D(137,136,144,141)    -19.9909                                         !
 ! D372  D(139,138,144,136)    174.3076                                         !
 ! D373  D(139,138,144,141)     -1.0634                                         !
 ! D374  D(140,138,144,136)    -44.964                                          !
 ! D375  D(140,138,144,141)    139.6649                                         !
 ! D376  D(142,141,144,136)    145.421                                          !
 ! D377  D(142,141,144,138)    -39.043                                          !
 ! D378  D(143,141,144,136)     -0.349                                          !
 ! D379  D(143,141,144,138)    175.187                                          !
 --------------------------------------------------------------------------------
 Symmetry turned off by external request.
 Stoichiometry    C43H75N14O14(1+)
 Framework group  C1[X(C43H75N14O14)]
 Deg. of freedom   432
 Full point group                 C1      NOp   1
                          Input orientation:                          
 ---------------------------------------------------------------------
 Center     Atomic      Atomic             Coordinates (Angstroms)
 Number     Number       Type             X           Y           Z
 ---------------------------------------------------------------------
      1          7           0       -6.391738   -2.669890   -8.322913
      2          1           0       -6.999319   -2.656997   -9.143547
      3          1           0       -5.692402   -3.446794   -8.361419
      4          1           0       -6.933577   -2.780037   -7.429851
      5          6           0       -5.578121   -1.428754   -8.103450
      6          1           0       -5.692210   -0.747480   -8.949497
      7          6           0       -4.129302   -1.929925   -7.951853
      8          6           0       -6.102072   -0.783805   -6.760210
      9          1           0       -6.876414   -0.049975   -7.001716
     10          1           0       -5.279326   -0.265782   -6.253523
     11          8           0       -3.935809   -3.139463   -7.823165
     12          8           0       -6.695766   -1.780027   -5.958641
     13          1           0       -6.033930   -2.204305   -5.344140
     14          7           0       -3.179726   -0.974296   -7.902865
     15          1           0       -3.497372   -0.008500   -7.903527
     16          6           0       -1.988720   -1.167025   -7.037846
     17          1           0       -1.706030   -2.218398   -7.118185
     18          6           0       -2.555352   -0.810696   -5.650836
     19          6           0       -0.848139   -0.247708   -7.449333
     20          1           0        0.015108   -0.418580   -6.798998
     21          1           0       -1.146730    0.798974   -7.337406
     22          1           0       -0.553732   -0.438797   -8.484920
     23          8           0       -2.888600    0.357687   -5.420877
     24          7           0       -2.836490   -1.839352   -4.831412
     25          1           0       -2.535535   -2.774876   -5.070623
     26          6           0       -3.568934   -1.642568   -3.578064
     27          1           0       -4.239205   -0.791154   -3.741300
     28          6           0       -2.574677   -1.312518   -2.432764
     29          6           0       -4.388518   -2.882631   -3.235244
     30          1           0       -3.698983   -3.695083   -2.978480
     31          8           0       -2.295745   -2.155566   -1.585511
     32          6           0       -5.352510   -2.636318   -2.083400
     33          1           0       -4.791923   -2.384982   -1.180021
     34          1           0       -6.042702   -1.819151   -2.321845
     35          1           0       -5.939287   -3.538986   -1.875564
     36          8           0       -5.100643   -3.253894   -4.454155
     37          1           0       -5.636846   -4.035083   -4.241192
     38          7           0       -2.048804   -0.078019   -2.513088
     39          1           0       -2.418179    0.561838   -3.206051
     40          6           0       -1.124941    0.440917   -1.500211
     41          1           0       -0.275485   -0.245962   -1.416691
     42          6           0       -1.874431    0.532626   -0.156596
     43          6           0       -0.619867    1.831569   -1.943777
[...]
 Alpha virt. eigenvalues --    1.74052   1.74274   1.74832   1.74900   1.75638
 Alpha virt. eigenvalues --    1.75937   1.76024   1.76234   1.76631   1.76678
 Alpha virt. eigenvalues --    1.77049   1.77425   1.77891   1.78155   1.78531
 Alpha virt. eigenvalues --    1.78602   1.78920   1.79543   1.79661   1.80000
 Alpha virt. eigenvalues --    1.80137   1.80425   1.80855   1.81236   1.81820
 Alpha virt. eigenvalues --    1.82520   1.82799   1.83021   1.83149   1.83462
 Alpha virt. eigenvalues --    1.83480   1.83602   1.83983   1.84194   1.84500
 Alpha virt. eigenvalues --    1.84781   1.85432   1.85599   1.85640   1.86040
 Alpha virt. eigenvalues --    1.86470   1.86792   1.87103   1.87294   1.87906
 Alpha virt. eigenvalues --    1.88206   1.88419   1.88747   1.88942   1.89107
 Alpha virt. eigenvalues --    1.89267   1.89704   1.89935   1.90369   1.90465
 Alpha virt. eigenvalues --    1.91132   1.91267   1.91612   1.91844   1.92039
 Alpha virt. eigenvalues --    1.92188   1.92568   1.92740   1.92920   1.92990
 Alpha virt. eigenvalues --    1.93349   1.93438   1.93836   1.94029   1.94337
 Alpha virt. eigenvalues --    1.95089   1.95236   1.95697   1.95883   1.96474
 Alpha virt. eigenvalues --    1.97173   1.97664   1.97724   1.97849   1.97994
 Alpha virt. eigenvalues --    1.98266   1.98900   1.99027   1.99131   1.99289
 Alpha virt. eigenvalues --    1.99627   2.00282   2.00907   2.00968   2.01411
 Alpha virt. eigenvalues --    2.01821   2.01990   2.02034   2.02447   2.02601
 Alpha virt. eigenvalues --    2.03064   2.03281   2.03596   2.04233   2.04397
 Alpha virt. eigenvalues --    2.04453   2.05049   2.05243   2.05542   2.05796
 Alpha virt. eigenvalues --    2.06347   2.07060   2.07647   2.07909   2.08105
 Alpha virt. eigenvalues --    2.08212   2.08490   2.09086   2.09273   2.09831
 Alpha virt. eigenvalues --    2.09975   2.10051   2.10296   2.10628   2.11102
 Alpha virt. eigenvalues --    2.11794   2.12385   2.12408   2.13257   2.13498
 Alpha virt. eigenvalues --    2.13658   2.14144   2.14188   2.14464   2.15248
 Alpha virt. eigenvalues --    2.15612   2.16511   2.16877   2.17210   2.17544
 Alpha virt. eigenvalues --    2.18011   2.18437   2.18802   2.18932   2.19400
 Alpha virt. eigenvalues --    2.19805   2.20177   2.20594   2.20937   2.21401
 Alpha virt. eigenvalues --    2.21430   2.21668   2.22042   2.22510   2.23223
 Alpha virt. eigenvalues --    2.23443   2.23637   2.23827   2.24221   2.24730
 Alpha virt. eigenvalues --    2.25016   2.25126   2.25579   2.26127   2.26914
 Alpha virt. eigenvalues --    2.27741   2.28171   2.28215   2.28935   2.29391
 Alpha virt. eigenvalues --    2.29928   2.30725   2.31048   2.31445   2.32281
 Alpha virt. eigenvalues --    2.32950   2.33169   2.33908   2.34451   2.34616
 Alpha virt. eigenvalues --    2.35500   2.36112   2.36215   2.36501   2.36783
 Alpha virt. eigenvalues --    2.37112   2.37662   2.38489   2.38949   2.39671
 Alpha virt. eigenvalues --    2.40659   2.40954   2.41259   2.41649   2.41739
 Alpha virt. eigenvalues --    2.41928   2.42330   2.43600   2.43991   2.44341
 Alpha virt. eigenvalues --    2.44583   2.44865   2.45156   2.45913   2.46087
 Alpha virt. eigenvalues --    2.46852   2.47028   2.47190   2.47348   2.47735
 Alpha virt. eigenvalues --    2.49039   2.49304   2.49522   2.49845   2.50094
 Alpha virt. eigenvalues --    2.50555   2.50605   2.51382   2.51657   2.52615
 Alpha virt. eigenvalues --    2.53157   2.53601   2.53708   2.54298   2.54612
 Alpha virt. eigenvalues --    2.55116   2.55667   2.56526   2.56953   2.57082
 Alpha virt. eigenvalues --    2.58393   2.58768   2.59580   2.60317   2.61020
 Alpha virt. eigenvalues --    2.61437   2.62053   2.62268   2.62455   2.63442
 Alpha virt. eigenvalues --    2.63749   2.63952   2.64282   2.64754   2.65080
 Alpha virt. eigenvalues --    2.66329   2.66512   2.66596   2.67078   2.67365
 Alpha virt. eigenvalues --    2.68050   2.68352   2.69012   2.69840   2.70628
 Alpha virt. eigenvalues --    2.71832   2.72265   2.73170   2.73715   2.74145
 Alpha virt. eigenvalues --    2.75193   2.76068   2.76379   2.77547   2.78474
 Alpha virt. eigenvalues --    2.78695   2.79462   2.79843   2.81398   2.81906
 Alpha virt. eigenvalues --    2.83630   2.84183   2.85327   2.86522   2.87019
 Alpha virt. eigenvalues --    2.88895   2.90109   2.90391   2.91439   2.91678
 Alpha virt. eigenvalues --    2.92425   2.93429   2.94203   2.94637   2.94986
 Alpha virt. eigenvalues --    2.96496   2.97028   2.98063   2.98755   2.99901
 Alpha virt. eigenvalues --    3.00027   3.00276   3.00725   3.01420   3.02252
 Alpha virt. eigenvalues --    3.02823   3.03340   3.03630   3.04874   3.09104
 Alpha virt. eigenvalues --    3.10331   3.11174   3.12708   3.13711   3.15183
 Alpha virt. eigenvalues --    3.17717   3.19116   3.20199   3.67066   3.71873
 Alpha virt. eigenvalues --    3.76729   3.79165   3.87986   3.88807   3.91050
 Alpha virt. eigenvalues --    3.92874   3.94235   3.94911   3.96077   3.98800
 Alpha virt. eigenvalues --    4.00095   4.01242   4.02092   4.03461   4.03814
 Alpha virt. eigenvalues --    4.05726   4.07602   4.09158   4.10289   4.11485
 Alpha virt. eigenvalues --    4.14413   4.15725   4.16591   4.16993   4.17666
 Alpha virt. eigenvalues --    4.17992   4.18892   4.19717   4.20660   4.21491
 Alpha virt. eigenvalues --    4.21910   4.23422   4.24404   4.26634   4.27750
 Alpha virt. eigenvalues --    4.28280   4.29672   4.30216   4.30300   4.31756
 Alpha virt. eigenvalues --    4.31879   4.33151   4.33535   4.35287   4.35991
 Alpha virt. eigenvalues --    4.37513   4.37927   4.39259   4.41564   4.43201
 Alpha virt. eigenvalues --    4.45066   4.46986   4.48265   4.49599   4.49831
 Alpha virt. eigenvalues --    4.50309   4.51706   4.52946   4.54020   4.55863
 Alpha virt. eigenvalues --    4.57061   4.59478   4.64420   4.65362   4.66110
 Alpha virt. eigenvalues --    4.67529   4.67903   4.70314   4.80971
          Condensed to atoms (all electrons):
 Mulliken charges:
               1
     1  N   -0.754711
     2  H    0.409102
     3  H    0.424400
     4  H    0.424216
     5  C   -0.133048
     6  H    0.217299
     7  C    0.620409
     8  C   -0.077783
     9  H    0.193311
    10  H    0.211342
    11  O   -0.510773
    12  O   -0.660609
    13  H    0.463234
    14  N   -0.567239
    15  H    0.352251
    16  C   -0.073711
    17  H    0.191926
    18  C    0.634492
    19  C   -0.465649
    20  H    0.195703
    21  H    0.184324
    22  H    0.173997
    23  O   -0.558724
    24  N   -0.582224
    25  H    0.355436
    26  C   -0.095492
    27  H    0.178450
    28  C    0.662330
    29  C    0.109223
    30  H    0.180854
    31  O   -0.516500
    32  C   -0.483297
    33  H    0.226918
    34  H    0.158128
    35  H    0.149671
    36  O   -0.671488
    37  H    0.418707
    38  N   -0.624523
    39  H    0.357339
    40  C   -0.040457
    41  H    0.211548
    42  C    0.615148
    43  C   -0.096421
    44  H    0.129121
    45  O   -0.575203
    46  C   -0.504101
    47  H    0.197540
    48  H    0.154446
    49  H    0.132402
    50  C   -0.468963
    51  H    0.198480
    52  H    0.113856
    53  H    0.132348
    54  N   -0.664144
    55  H    0.426310
    56  C   -0.060831
    57  H    0.172281
    58  C    0.595731
    59  C   -0.059333
    60  H    0.130287
    61  O   -0.523870
    62  C   -0.256347
    63  H    0.165796
    64  H    0.114122
    65  C   -0.487912
    66  H    0.169635
    67  H    0.180658
    68  H    0.114182
    69  C   -0.454854
    70  H    0.134512
    71  H    0.143409
    72  H    0.143183
    73  N   -0.569279
    74  H    0.343195
    75  C   -0.055435
    76  H    0.177608
    77  C    0.642035
    78  C   -0.413995
    79  H    0.169587
    80  H    0.139989
    81  O   -0.547219
    82  C    0.597476
    83  O   -0.581030
    84  O   -0.604661
    85  N   -0.603985
    86  H    0.342851
    87  C   -0.051560
    88  H    0.185064
    89  C    0.584099
    90  C   -0.360304
    91  H    0.210813
    92  H    0.186895
    93  O   -0.546357
    94  C    0.346588
    95  C   -0.019098
    96  H    0.214484
    97  N   -0.624167
    98  H    0.481131
    99  C    0.302400
   100  H    0.248107
   101  N   -0.551931
   102  N   -0.601625
   103  H    0.379685
   104  C   -0.056450
   105  H    0.195932
   106  C    0.665932
   107  C   -0.303757
   108  H    0.147799
   109  H    0.148821
   110  O   -0.615503
   111  C   -0.088312
   112  H    0.150897
   113  C   -0.450976
   114  H    0.134833
   115  H    0.170024
   116  H    0.140041
   117  C   -0.476298
   118  H    0.119300
   119  H    0.209634
   120  H    0.140087
   121  N   -0.608228
   122  H    0.366438
   123  C   -0.033342
   124  H    0.165307
   125  C    0.604494
   126  C   -0.269091
   127  H    0.146894
   128  H    0.163629
   129  O   -0.622764
   130  C   -0.298972
   131  H    0.153712
   132  H    0.149027
   133  C   -0.151565
   134  H    0.218614
   135  H    0.168039
   136  N   -0.582347
   137  H    0.338583
   138  N   -0.753456
   139  H    0.336592
   140  H    0.433160
   141  N   -0.758616
   142  H    0.366084
   143  H    0.350247
   144  C    0.774533
   145  O   -0.595043
   146  H    0.384855
 Sum of Mulliken charges =   1.00000
 Mulliken charges with hydrogens summed into heavy atoms:
               1
     1  N    0.503007
     5  C    0.084251
     7  C    0.620409
     8  C    0.326870
    11  O   -0.510773
    12  O   -0.197375
    14  N   -0.214987
    16  C    0.118216
    18  C    0.634492
    19  C    0.088374
    23  O   -0.558724
    24  N   -0.226788
    26  C    0.082958
    28  C    0.662330
    29  C    0.290076
    31  O   -0.516500
    32  C    0.051420
    36  O   -0.252781
    38  N   -0.267185
    40  C    0.171091
    42  C    0.615148
    43  C    0.032700
    45  O   -0.575203
    46  C   -0.019713
    50  C   -0.024278
    54  N   -0.237834
    56  C    0.111449
    58  C    0.595731
    59  C    0.070954
    61  O   -0.523870
    62  C    0.023571
    65  C   -0.023437
    69  C   -0.033750
    73  N   -0.226084
    75  C    0.122174
    77  C    0.642035
    78  C   -0.104418
    81  O   -0.547219
    82  C    0.597476
    83  O   -0.581030
    84  O   -0.604661
    85  N   -0.261133
    87  C    0.133504
    89  C    0.584099
    90  C    0.037404
    93  O   -0.546357
    94  C    0.346588
    95  C    0.195385
    97  N   -0.143036
    99  C    0.550507
   101  N   -0.167075
   102  N   -0.221940
   104  C    0.139482
   106  C    0.665932
   107  C   -0.007137
   110  O   -0.615503
   111  C    0.062585
   113  C   -0.006078
   117  C   -0.007277
   121  N   -0.241790
   123  C    0.131965
   125  C    0.604494
   126  C    0.041432
   129  O   -0.622764
   130  C    0.003767
   133  C    0.235088
   136  N   -0.243764
   138  N    0.016296
   141  N   -0.042285
   144  C    0.774533
   145  O   -0.595043
 Electronic spatial extent (au):  <R**2>=         125297.3565
 Charge=              1.0000 electrons
 Dipole moment (field-independent basis, Debye):
    X=             10.3814    Y=              0.2165    Z=            -14.6467  Tot=             17.9540
 Quadrupole moment (field-independent basis, Debye-Ang):
   XX=             28.6115   YY=           -382.6232   ZZ=             31.0944
   XY=            143.8346   XZ=            309.9137   YZ=             75.8705
 Traceless Quadrupole moment (field-independent basis, Debye-Ang):
   XX=            136.2506   YY=           -274.9841   ZZ=            138.7335
   XY=            143.8346   XZ=            309.9137   YZ=             75.8705
 Octapole moment (field-independent basis, Debye-Ang**2):
  XXX=           -356.0633  YYY=          -1243.3277  ZZZ=           -759.6743  XYY=           -888.8450
  XXY=            140.5647  XXZ=           -542.5336  XZZ=           -882.7645  YZZ=           -529.3871
  YYZ=           -438.5913  XYZ=           -383.9797
 Hexadecapole moment (field-independent basis, Debye-Ang**3):
 XXXX=         -51156.8858 YYYY=         -17767.2244 ZZZZ=         -12074.8746 XXXY=          -4637.5930
 XXXZ=          -8648.4936 YYYX=         -16420.8608 YYYZ=          -6711.1980 ZZZX=           7064.1059
 ZZZY=            543.7204 XXYY=         -14378.6929 XXZZ=          -3014.6154 YYZZ=          -9344.5583
 XXYZ=           -168.0209 YYXZ=          -6629.0484 ZZXY=           -294.7634
 N-N= 1.197930664997D+04 E-N=-3.209885199201D+04  KE= 3.471366210398D+03
 Unable to Open any file for archive entry.
 1\1\GINC-VIM-000\SP\RB3LYP\6-31G(d)\C43H75N14O14(1+)\KENGMITH\12-Jun-2
 022\0\\# B3LYP/6-31G* empiricaldispersion=gd3 guess=read geom=check no
 symm integral(ultrafinegrid)\\Candidate Structure: Conf:950 Charge cal
 c in gas phase\\1,1\N,0,-6.3917379463,-2.6698900562,-8.3229127537\H,0,
 -6.9993186057,-2.6569969656,-9.1435468278\H,0,-5.6924015352,-3.4467941
 136,-8.3614193314\H,0,-6.9335774784,-2.7800365748,-7.4298512797\C,0,-5
 .5781206387,-1.4287537015,-8.1034504775\H,0,-5.6922101747,-0.747479780
 5,-8.9494971186\C,0,-4.129301833,-1.9299247365,-7.9518525413\C,0,-6.10
 20724468,-0.7838054819,-6.7602097126\H,0,-6.8764144485,-0.0499746891,-
 7.0017160861\H,0,-5.2793259206,-0.2657815917,-6.2535228248\O,0,-3.9358
 089263,-3.1394628627,-7.8231647528\O,0,-6.6957657176,-1.780027246,-5.9
 586410896\H,0,-6.0339299847,-2.2043048058,-5.3441396546\N,0,-3.1797262
 377,-0.9742961602,-7.9028654385\H,0,-3.4973716611,-0.0084999046,-7.903
 526855\C,0,-1.9887204516,-1.1670249518,-7.0378455302\H,0,-1.7060297513
 ,-2.2183975638,-7.1181854327\C,0,-2.5553522213,-0.8106956399,-5.650836
 4508\C,0,-0.8481394798,-0.2477078742,-7.4493333253\H,0,0.0151083415,-0
 .4185799007,-6.7989984375\H,0,-1.1467299744,0.7989741364,-7.337406499\
 H,0,-0.5537316157,-0.4387972778,-8.4849200001\O,0,-2.8885997903,0.3576
 867956,-5.4208765642\N,0,-2.8364896684,-1.8393521406,-4.8314116591\H,0
 ,-2.5355353135,-2.7748762152,-5.0706225021\C,0,-3.5689343616,-1.642567
 8206,-3.5780640468\H,0,-4.2392047998,-0.791153632,-3.7412995795\C,0,-2
 .5746768412,-1.3125176696,-2.4327638992\C,0,-4.3885180092,-2.882630938
 6,-3.2352437518\H,0,-3.6989832916,-3.6950831234,-2.9784801069\O,0,-2.2
 957452695,-2.155566008,-1.5855106386\C,0,-5.3525100773,-2.6363182212,-
 2.0833996305\H,0,-4.7919230937,-2.3849820566,-1.1800207566\H,0,-6.0427
 022126,-1.8191511938,-2.3218445184\H,0,-5.9392868618,-3.5389860789,-1.
 8755638289\O,0,-5.1006432549,-3.2538941603,-4.4541547916\H,0,-5.636846
 4865,-4.0350830103,-4.2411919573\N,0,-2.0488037312,-0.0780190435,-2.51
 30876176\H,0,-2.4181787729,0.561837749,-3.2060511663\C,0,-1.1249414,0.
 4409167375,-1.5002108699\H,0,-0.2754848781,-0.2459617277,-1.4166913291
 \C,0,-1.8744310529,0.5326259295,-0.1565959235\C,0,-0.6198674932,1.8315
 68534,-1.9437767557\H,0,-1.5127011897,2.4354021498,-2.1664781195\O,0,-
 2.896234763,1.2106691996,-0.0345985549\C,0,0.157462894,2.5360860815,-0
 .8213634088\H,0,1.0508074535,1.9577991261,-0.5643401831\H,0,-0.4642576
 636,2.674475949,0.0698206509\H,0,0.4745010743,3.5303845872,-1.15782891
 77\C,0,0.2568546272,1.7033264387,-3.1993694385\H,0,1.1367290072,1.0928
 250512,-2.9666582287\H,0,-0.2833359374,1.2388509885,-4.0342159735\H,0,
 0.5972747279,2.6907695725,-3.5333186016\N,0,-1.2664095252,-0.146381453
 5,0.8329802714\H,0,-0.4711103798,-0.763566716,0.6037036506\C,0,-1.7230
 381897,-0.1287254359,2.2184661006\H,0,-2.0923868893,0.8860856428,2.413
 116528\C,0,-0.465075237,-0.3706703109,3.0793067927\C,0,-2.8894964286,-
 1.1191449747,2.4540605546\H,0,-3.6742686585,-0.7549753806,1.7746803971
 \O,0,-0.3823017367,-1.2161691067,3.960735823\C,0,-3.4580568085,-1.0719
 992755,3.8860905186\H,0,-2.7276182009,-1.5071652478,4.5744243108\H,0,-
 4.3435193837,-1.723259034,3.9076240934\C,0,-2.5249006497,-2.5515784521
 ,2.0376456377\H,0,-1.7081163721,-2.9371745303,2.6545249774\H,0,-2.2197
 816178,-2.5920281641,0.9872960398\H,0,-3.3923318114,-3.2119609166,2.16
 53758863\C,0,-3.8577784034,0.3272010768,4.3709907399\H,0,-4.3924927232
 ,0.2729157265,5.3265194877\H,0,-2.9818209448,0.9674243761,4.5279307952
 \H,0,-4.5120481739,0.8305532561,3.6475427234\N,0,0.5912212074,0.441298
 2778,2.7386313679\H,0,0.4427240223,1.0225956444,1.9230230858\C,0,1.946
 9785197,-0.0608590398,2.883925465\H,0,1.8731479538,-1.1135198076,3.171
 4346658\C,0,2.7348234924,0.7339390032,3.9136488677\C,0,2.7258061511,0.
 0817682349,1.5593196365\H,0,2.8974894239,1.14285519,1.3670606075\H,0,3
 .7154818244,-0.38309137,1.6605509726\O,0,2.6536015869,1.9569613476,4.0
 279344017\C,0,2.012735103,-0.5236583679,0.3040032313\O,0,2.3356806731,
 0.00936383,-0.7835728191\O,0,1.182735488,-1.4480323321,0.5175635062\N,
 0,3.6593488949,0.0113688317,4.6412882066\H,0,3.8433182283,-0.943174155
 4,4.3558249627\C,0,4.725976998,0.7416557385,5.3078043779\H,0,4.2558388
 215,1.6365894305,5.7244084352\C,0,5.8081178589,1.1570790951,4.28859522
 84\C,0,5.3893314924,-0.0666627277,6.4282048905\H,0,6.0108605663,-0.849
 3779855,5.9777318879\H,0,4.6220793237,-0.5418624298,7.0461021575\O,0,6
 .8471766517,0.5079783785,4.1541973811\C,0,6.2454887437,0.7999131627,7.
 3043766306\C,0,6.4148573269,0.772173326,8.6630029455\H,0,5.9807847801,
 0.1286935186,9.4114547283\N,0,7.0434739421,1.8426367887,6.8448949245\H
 ,0,7.169098245,2.2278996078,5.8716601669\C,0,7.665027061,2.4231005926,
 7.8646795785\H,0,8.3340109152,3.2658257394,7.7868899467\N,0,7.30404286
 54,1.7839329279,8.985489703\N,0,5.5426408813,2.2959464552,3.6176572212
 \H,0,4.6274027914,2.7210127536,3.7372053845\C,0,6.5326031602,2.8881017
 842,2.7439030316\H,0,7.0095161766,2.0743009034,2.1865141479\C,0,7.6596
 278772,3.5142564011,3.6052515435\C,0,5.8716357963,3.8732877055,1.76071
 53468\H,0,5.4830167155,4.7312879101,2.3270589603\H,0,6.6397065001,4.27
 35960102,1.0871085005\O,0,7.7073855403,3.3795671913,4.8466845619\C,0,4
 .7410495325,3.2595815397,0.9067624887\H,0,3.9499150528,2.9213928519,1.
 5885238307\C,0,4.1314947216,4.3366323407,-0.0012266443\H,0,4.874299912
 2,4.7119774606,-0.7175824419\H,0,3.2929855978,3.9241615233,-0.57220088
 03\H,0,3.7607022963,5.1908793992,0.5781410328\C,0,5.209350349,2.053530
 426,0.0802048998\H,0,5.9874476059,2.3552525746,-0.6347907906\H,0,4.375
 4143144,1.608197068,-0.4746747145\H,0,5.620377034,1.2579008833,0.71236
 87169\N,0,8.6073270829,4.1669867794,2.9325497043\H,0,8.534275476,4.379
 2875655,1.9374589321\C,0,9.7486342148,4.8419037701,3.5373200322\H,0,9.
 4091117754,5.4445126478,4.385714396\C,0,10.3700465761,5.7538839659,2.4
 501098754\C,0,10.8162192276,3.8488733447,4.0403865891\H,0,10.329065755
 3,3.1589781483,4.738140121\H,0,11.5615651699,4.4172657187,4.6061525693
 \O,0,11.3623493125,6.4372438784,2.8505419027\C,0,11.5025016567,3.03292
 11394,2.928377234\H,0,11.8954647977,2.1097382391,3.3679053093\H,0,10.7
 446203931,2.7108474005,2.2013442844\C,0,12.6696046438,3.7515291393,2.1
 985205249\H,0,12.9108038,4.6932965542,2.6880521752\H,0,13.5676063304,3
 .1231873881,2.216032567\N,0,12.3630511191,4.0312816966,0.7864464984\H,
 0,11.8956386922,3.2859346827,0.2877633813\N,0,12.7899306067,6.32326271
 38,0.7649556486\H,0,12.9410666765,7.1301191523,0.1731581056\H,0,12.269
 6076711,6.5111733277,1.6837139788\N,0,12.3607597457,5.183828396,-1.222
 5699416\H,0,11.9240721678,5.9889891779,-1.6512407782\H,0,12.1964382791
 ,4.3077834743,-1.6991513955\C,0,12.4781542426,5.1919135212,0.134951362
 8\O,0,9.9283135151,5.644650056,1.2831647075\H,0,7.6254305269,2.0159161
 228,9.9160306702\\Version=ES64L-G16RevC.01\HF=-3503.54149\RMSD=7.108e-
 09\Dipole=-0.1703905,-1.6737501,-6.4286086\Quadrupole=101.2989974,-204
 .4439349,103.1449375,106.9375147,230.413225,56.4078372\PG=C01 [X(C43H7
 5N14O14)]\\@
 The archive entry for this job was punched.


  THE LARGE PRINT GIVETH,
  AND THE SMALL PRINT TAKETH AWAY.

                     -- TOM WAITS
 Job cpu time:       0 days  0 hours  6 minutes 56.3 seconds.
 Elapsed time:       0 days  0 hours  1 minutes 45.2 seconds.
 File lengths (MBytes):  RWF=    880 Int=      0 D2E=      0 Chk=    144 Scr=     16
 Normal termination of Gaussian 16 at Sun Jun 12 09:16:30 2022.
