 Entering Gaussian System, Link 0=/opt/software/Gaussian/g16-AVX2-C.01/g16/g16
 Input=charge-conf-304.com
 Output=charge-conf-304.log
 Initial command:
 /opt/software/Gaussian/g16-AVX2-C.01/g16/l1.exe "/mnt/gs18/scratch/users/kengmith/Gau-17815.inp" -scrdir="/mnt/gs18/scratch/users/kengmith/"
 Entering Link 1 = /opt/software/Gaussian/g16-AVX2-C.01/g16/l1.exe PID=     17825.
  
 Copyright (c) 1988-2019, Gaussian, Inc.  All Rights Reserved.
  
 This is part of the Gaussian(R) 16 program.  It is based on
 the Gaussian(R) 09 system (copyright 2009, Gaussian, Inc.),
 the Gaussian(R) 03 system (copyright 2003, Gaussian, Inc.),
 the Gaussian(R) 98 system (copyright 1998, Gaussian, Inc.),
 the Gaussian(R) 94 system (copyright 1995, Gaussian, Inc.),
 the Gaussian 92(TM) system (copyright 1992, Gaussian, Inc.),
 the Gaussian 90(TM) system (copyright 1990, Gaussian, Inc.),
 the Gaussian 88(TM) system (copyright 1988, Gaussian, Inc.),
 the Gaussian 86(TM) system (copyright 1986, Carnegie Mellon
 University), and the Gaussian 82(TM) system (copyright 1983,
 Carnegie Mellon University). Gaussian is a federally registered
 trademark of Gaussian, Inc.
  
 This software contains proprietary and confidential information,
 including trade secrets, belonging to Gaussian, Inc.
  
 This software is provided under written license and may be
 used, copied, transmitted, or stored only in accord with that
 written license.
  
 The following legend is applicable only to US Government
 contracts under FAR:
  
                    RESTRICTED RIGHTS LEGEND
  
 Use, reproduction and disclosure by the US Government is
 subject to restrictions as set forth in subparagraphs (a)
 and (c) of the Commercial Computer Software - Restricted
 Rights clause in FAR 52.227-19.
  
 Gaussian, Inc.
 340 Quinnipiac St., Bldg. 40, Wallingford CT 06492
  
  
 ---------------------------------------------------------------
 Warning -- This program may not be used in any manner that
 competes with the business of Gaussian, Inc. or will provide
 assistance to any competitor of Gaussian, Inc.  The licensee
 of this program is prohibited from giving any competitor of
 Gaussian, Inc. access to this program.  By using this program,
 the user acknowledges that Gaussian, Inc. is engaged in the
 business of creating and licensing software in the field of
 computational chemistry and represents and warrants to the
 licensee that it is not a competitor of Gaussian, Inc. and that
 it will not use this program in any manner prohibited above.
 ---------------------------------------------------------------
  

 Cite this work as:
 Gaussian 16, Revision C.01,
 M. J. Frisch, G. W. Trucks, H. B. Schlegel, G. E. Scuseria, 
 M. A. Robb, J. R. Cheeseman, G. Scalmani, V. Barone, 
 G. A. Petersson, H. Nakatsuji, X. Li, M. Caricato, A. V. Marenich, 
 J. Bloino, B. G. Janesko, R. Gomperts, B. Mennucci, H. P. Hratchian, 
 J. V. Ortiz, A. F. Izmaylov, J. L. Sonnenberg, D. Williams-Young, 
 F. Ding, F. Lipparini, F. Egidi, J. Goings, B. Peng, A. Petrone, 
 T. Henderson, D. Ranasinghe, V. G. Zakrzewski, J. Gao, N. Rega, 
 G. Zheng, W. Liang, M. Hada, M. Ehara, K. Toyota, R. Fukuda, 
 J. Hasegawa, M. Ishida, T. Nakajima, Y. Honda, O. Kitao, H. Nakai, 
 T. Vreven, K. Throssell, J. A. Montgomery, Jr., J. E. Peralta, 
 F. Ogliaro, M. J. Bearpark, J. J. Heyd, E. N. Brothers, K. N. Kudin, 
 V. N. Staroverov, T. A. Keith, R. Kobayashi, J. Normand, 
 K. Raghavachari, A. P. Rendell, J. C. Burant, S. S. Iyengar, 
 J. Tomasi, M. Cossi, J. M. Millam, M. Klene, C. Adamo, R. Cammi, 
 J. W. Ochterski, R. L. Martin, K. Morokuma, O. Farkas, 
 J. B. Foresman, and D. J. Fox, Gaussian, Inc., Wallingford CT, 2019.
 
 ******************************************
 Gaussian 16:  ES64L-G16RevC.01  3-Jul-2019
                12-Jun-2022 
 ******************************************
 %mem=8gb
 %nproc=4
 Will use up to    4 processors via shared memory.
 %chk=conf-304.chk
 ----------------------------------------------------------------------
 # B3LYP/6-31G* empiricaldispersion=gd3 guess=read geom=check nosymm in
 tegral(ultrafinegrid)
 ----------------------------------------------------------------------
 1/29=2,38=1,172=1/1;
 2/12=2,15=1,40=1/2;
 3/5=1,6=6,7=1,11=2,14=-4,25=1,30=1,74=-5,75=-5,116=-2,124=31/1,2,3;
 4/5=1/1;
 5/5=2,38=6/2;
 6/7=2,8=2,9=2,10=2,28=1/1;
 99/5=1,9=1/99;
 ------------------------------------------------------
 Candidate Structure: Conf:304 Charge calc in gas phase
 ------------------------------------------------------
 Structure from the checkpoint file:  "conf-304.chk"
 Charge =  1 Multiplicity = 1
 Redundant internal coordinates found in file.  (old form).
 N,0,-8.9910411771,-2.1871336505,-9.2377129298
 H,0,-8.0064763167,-2.2872260266,-9.5167205435
 H,0,-9.5224776936,-3.0477611163,-9.4792530711
 H,0,-9.4097278118,-1.4021704966,-9.7624396618
 C,0,-9.1524520364,-2.0414875473,-7.7184563778
 H,0,-8.8348778162,-1.0332861754,-7.4332631224
 C,0,-8.2609412756,-3.1102216131,-7.052844563
 C,0,-10.6457233176,-2.2940484003,-7.4563692425
 H,0,-11.2507087652,-1.5136224368,-7.9327650003
 H,0,-10.835210193,-2.2639389287,-6.3772069955
 O,0,-8.7554916739,-4.1650432813,-6.6487651669
 O,0,-11.0049988714,-3.523309061,-8.0623197869
 H,0,-10.5328832509,-4.2151530237,-7.5484581661
 N,0,-6.9305903341,-2.8178552511,-7.0749069816
 H,0,-6.6681895184,-1.8319169332,-7.0590940308
 C,0,-5.9506227264,-3.635463923,-6.3465103695
 H,0,-6.3897978896,-4.6245915998,-6.1930870798
 C,0,-5.6768099677,-2.9245612405,-5.0076261476
 C,0,-4.6368232675,-3.7429223115,-7.1351777197
 H,0,-3.9034775947,-4.3236845113,-6.567733752
 H,0,-4.2080246809,-2.7503032716,-7.3066319244
 H,0,-4.806564681,-4.2305867334,-8.1006528741
 O,0,-5.7087345995,-1.6932173779,-4.9634670708
 N,0,-5.3637641034,-3.7240211276,-3.9687918853
 H,0,-5.1398332029,-4.7021422997,-4.138843099
 C,0,-4.6984593413,-3.1909848858,-2.7843373794
 H,0,-5.273380442,-2.3332135109,-2.422057696
 C,0,-3.2612736373,-2.786415489,-3.160911822
 C,0,-4.6342340032,-4.3235580943,-1.7259657045
 H,0,-3.9372691425,-3.9967885586,-0.937119734
 O,0,-2.5030147653,-3.6404772446,-3.6427354856
 C,0,-5.9894650103,-4.6431408541,-1.1097371254
 H,0,-6.3786793929,-3.7800741272,-0.5589695224
 H,0,-6.7096963274,-4.9169841637,-1.8883040101
 H,0,-5.8882389744,-5.4866590152,-0.4208053007
 O,0,-4.1511916806,-5.5075280762,-2.3576383743
 H,0,-3.2731475807,-5.282738996,-2.7295076636
 N,0,-2.9176242806,-1.5071066827,-2.9363241203
 H,0,-3.585572513,-0.8502296337,-2.5471975794
 C,0,-1.6132331209,-0.9406543854,-3.2667676482
 H,0,-0.9076145767,-1.7733038395,-3.3537386518
 C,0,-1.2575986566,0.0027746408,-2.109227865
 C,0,-1.6381718372,-0.1512798509,-4.6040601463
 H,0,-2.3162434955,0.7007697609,-4.4516158935
 O,0,-2.0887076168,0.8216803474,-1.7152218151
 C,0,-0.2355752907,0.3839391247,-4.9352501992
 H,0,0.4736909685,-0.4415282343,-5.083733421
 H,0,0.1615456314,1.0290093222,-4.1454337805
 H,0,-0.2604743341,0.9676231011,-5.8616222832
 C,0,-2.1892481533,-1.0185666692,-5.7470561071
 H,0,-1.6400144686,-1.9640399096,-5.8281611306
 H,0,-3.2485461627,-1.2469754719,-5.588109503
 H,0,-2.0945967422,-0.4856565306,-6.701274313
 N,0,-0.0019553339,-0.0957243748,-1.6169168578
 H,0,0.5931060936,-0.8716716769,-1.8817924197
 C,0,0.4702067359,0.7304001712,-0.5048111037
 H,0,0.0681998595,1.7334356822,-0.6693482855
 C,0,2.00071478,0.7398793629,-0.5939770151
 C,0,-0.0435431433,0.218446795,0.8744595175
 H,0,-1.1254964608,0.4095283839,0.8536312862
 O,0,2.6191052705,-0.3363164601,-0.5033445734
 C,0,0.5563097687,1.0187624813,2.049361602
 H,0,1.6522644108,0.9509313355,2.0397266366
 H,0,0.2245491842,0.5339940973,2.978978246
 C,0,0.1529034195,-1.2985362326,1.0476160127
 H,0,1.1990818395,-1.5736939062,0.8666470614
 H,0,-0.4544499187,-1.8695933024,0.3366301417
 H,0,-0.1461657097,-1.6066739198,2.0572600987
 C,0,0.15572504,2.4976337741,2.0845677523
 H,0,0.4557622888,2.9550103,3.0319290505
 H,0,0.6525175176,3.0687293736,1.2961855457
 H,0,-0.9307381146,2.6146581319,1.9775141727
 N,0,2.5846824108,1.9357869271,-0.8063623473
 H,0,2.0071115032,2.7519210813,-0.6370071462
 C,0,4.0152590504,2.1274671848,-0.5516559574
 H,0,4.5248946599,1.2034379755,-0.8232261072
 C,0,4.1805830556,2.3530649027,0.9574134519
 C,0,4.654359259,3.2565687923,-1.3671640561
 H,0,4.4904528328,3.0399614547,-2.4311336751
 H,0,4.2090639285,4.23137752,-1.1377605462
 O,0,3.2926761926,2.8567662152,1.6549820066
 C,0,6.2071382498,3.3192540997,-1.0836274374
 O,0,6.7259093145,4.440401699,-1.1617777602
 O,0,6.7329756666,2.1872136067,-0.7895109038
 N,0,5.3533679451,1.8824735641,1.4426262132
 H,0,6.1080878956,1.7709370754,0.711756624
 C,0,5.6404059388,1.9437090856,2.8590331681
 H,0,4.6751395214,2.1339304881,3.3413307496
 C,0,6.6227488115,3.0883552183,3.1806770991
 C,0,6.1965821798,0.5860268548,3.3240222879
 H,0,6.5405340755,0.6688952082,4.3612012812
 H,0,7.0752297911,0.3236928459,2.7238393312
 O,0,7.7743239183,2.8440338907,3.5462593834
 C,0,5.1372610612,-0.4629671163,3.1914270641
 C,0,4.2589694727,-0.7626461361,2.174414299
 H,0,4.1164582582,-0.3451104818,1.1912033405
 N,0,4.8048306954,-1.3398374905,4.2210898256
 H,0,5.2730006057,-1.3683098438,5.1162358232
 C,0,3.7757161311,-2.1258710844,3.879292266
 H,0,3.3197933747,-2.8937447794,4.4846117949
 N,0,3.4430874038,-1.7788797254,2.6376325951
 N,0,6.1110694896,4.3085827585,2.9391312345
 H,0,5.1565892328,4.3597884435,2.5984877816
 C,0,6.9688575729,5.4812150839,2.6687102545
 H,0,7.9410590424,5.0785354749,2.3734157506
 C,0,7.1826581585,6.3290221923,3.9399793427
 C,0,6.3744005412,6.2768209745,1.5080922531
 H,0,6.1485087776,5.5574175698,0.7099186315
 H,0,5.4299216863,6.7313777542,1.8400540872
 O,0,6.726289431,7.4613783752,4.0556929586
 C,0,7.2931531195,7.3744874409,0.9146394309
 H,0,7.1931376092,8.2684814642,1.5426249448
 C,0,8.7775353835,6.9674549361,0.8759353443
 H,0,8.8978474334,6.0069587627,0.3554733068
 H,0,9.3559145246,7.7194636203,0.3235410754
 H,0,9.2226573533,6.8908720389,1.8760421403
 C,0,6.7959587447,7.6924579588,-0.506487251
 H,0,6.9118023727,6.8078384494,-1.1461994716
 H,0,7.3667496991,8.5205456951,-0.9474458384
 H,0,5.7338217345,7.9765453329,-0.5090675104
 N,0,7.9217679002,5.7037612187,4.9098429793
 H,0,8.4043311728,4.8684509737,4.5886236798
 C,0,8.6732568139,6.5276340134,5.8468023907
 H,0,7.993684935,7.2312806004,6.3326485805
 C,0,9.8360353496,7.3529274909,5.1235674053
 C,0,9.3771290348,5.6410129017,6.8843275364
 H,0,10.1135427323,5.0191521221,6.3533764826
 H,0,8.6684153657,4.9576813753,7.3831316401
 O,0,10.1432769628,8.417041549,5.7232893669
 C,0,10.0845964723,6.5327868979,7.9097571053
 H,0,10.7843959078,7.1802727307,7.3660831237
 H,0,9.3543127039,7.1991574199,8.3870564286
 C,0,10.8340277596,5.7575831519,8.9865118854
 H,0,10.1568197566,5.1394968717,9.5902808111
 H,0,11.5964594879,5.1061541244,8.5347081976
 N,0,11.4960497799,6.7444304491,9.8754134645
 H,0,11.7214188688,7.6184196093,9.4046062106
 N,0,12.195776462,5.2073744231,11.4664074918
 H,0,12.8912576598,4.9500262335,12.1545170669
 H,0,11.8680728048,4.4482834582,10.8825771942
 N,0,12.931780244,7.4114972652,11.5792429938
 H,0,13.2128891008,7.2530541414,12.5392410413
 H,0,12.7010589422,8.3788220505,11.3848311244
 C,0,12.204761085,6.4534934476,10.953949175
 O,0,10.3482504847,6.7740705118,4.1428942671
 H,0,2.6750304169,-2.168638232,2.1051104429
 Recover connectivity data from disk.
                           ----------------------------
                           !    Current Parameters    !
                           ! (Angstroms and Degrees)  !
 --------------------------                            --------------------------
 ! Name  Definition              Value                                          !
 --------------------------------------------------------------------------------
 ! R1    R(1,2)                  1.0282                                         !
 ! R2    R(1,3)                  1.0399                                         !
 ! R3    R(1,4)                  1.0329                                         !
 ! R4    R(1,5)                  1.5347                                         !
 ! R5    R(5,6)                  1.0948                                         !
 ! R6    R(5,7)                  1.5427                                         !
 ! R7    R(5,8)                  1.537                                          !
 ! R8    R(7,11)                 1.2331                                         !
 ! R9    R(7,14)                 1.3623                                         !
 ! R10   R(8,9)                  1.0964                                         !
 ! R11   R(8,10)                 1.0961                                         !
 ! R12   R(8,12)                 1.4168                                         !
 ! R13   R(12,13)                0.9826                                         !
 ! R14   R(14,15)                1.0204                                         !
 ! R15   R(14,16)                1.4695                                         !
 ! R16   R(16,17)                1.0931                                         !
 ! R17   R(16,18)                1.5404                                         !
 ! R18   R(16,19)                1.5361                                         !
 ! R19   R(18,23)                1.2325                                         !
 ! R20   R(18,24)                1.3477                                         !
 ! R21   R(19,20)                1.0941                                         !
 ! R22   R(19,21)                1.0948                                         !
 ! R23   R(19,22)                1.0949                                         !
 ! R24   R(24,25)                1.0177                                         !
 ! R25   R(24,26)                1.4593                                         !
 ! R26   R(26,27)                1.0943                                         !
 ! R27   R(26,28)                1.5398                                         !
 ! R28   R(26,29)                1.5515                                         !
 ! R29   R(28,31)                1.2396                                         !
 ! R30   R(28,38)                1.3436                                         !
 ! R31   R(29,30)                1.1022                                         !
 ! R32   R(29,32)                1.5227                                         !
 ! R33   R(29,36)                1.4262                                         !
 ! R34   R(32,33)                1.0953                                         !
 ! R35   R(32,34)                1.0954                                         !
 ! R36   R(32,35)                1.0938                                         !
 ! R37   R(36,37)                0.9797                                         !
 ! R38   R(38,39)                1.0144                                         !
 ! R39   R(38,40)                1.46                                           !
 ! R40   R(40,41)                1.0949                                         !
 ! R41   R(40,42)                1.5351                                         !
 ! R42   R(40,43)                1.5531                                         !
 ! R43   R(42,45)                1.2315                                         !
 ! R44   R(42,54)                1.3523                                         !
 ! R45   R(43,44)                1.0995                                         !
 ! R46   R(43,46)                1.5373                                         !
 ! R47   R(43,50)                1.537                                          !
 ! R48   R(46,47)                1.0984                                         !
 ! R49   R(46,48)                1.0944                                         !
 ! R50   R(46,49)                1.0952                                         !
 ! R51   R(50,51)                1.0964                                         !
 ! R52   R(50,52)                1.0952                                         !
 ! R53   R(50,53)                1.097                                          !
 ! R54   R(54,55)                1.0131                                         !
 ! R55   R(54,56)                1.4636                                         !
 ! R56   R(56,57)                1.0931                                         !
 ! R57   R(56,58)                1.5331                                         !
 ! R58   R(56,59)                1.5583                                         !
 ! R59   R(58,61)                1.2445                                         !
 ! R60   R(58,73)                1.3477                                         !
 ! R61   R(59,60)                1.0989                                         !
 ! R62   R(59,62)                1.543                                          !
 ! R63   R(59,65)                1.5394                                         !
 ! R64   R(62,63)                1.0981                                         !
 ! R65   R(62,64)                1.0997                                         !
 ! R66   R(62,69)                1.5326                                         !
 ! R67   R(65,66)                1.0968                                         !
 ! R68   R(65,67)                1.0957                                         !
 ! R69   R(65,68)                1.0972                                         !
 ! R70   R(69,70)                1.0939                                         !
 ! R71   R(69,71)                1.0929                                         !
 ! R72   R(69,72)                1.098                                          !
 ! R73   R(73,74)                1.0141                                         !
 ! R74   R(73,75)                1.4657                                         !
 ! R75   R(75,76)                1.0896                                         !
 ! R76   R(75,77)                1.5348                                         !
 ! R77   R(75,78)                1.5324                                         !
 ! R78   R(77,81)                1.2364                                         !
 ! R79   R(77,85)                1.3536                                         !
 ! R80   R(78,79)                1.0981                                         !
 ! R81   R(78,80)                1.096                                          !
 ! R82   R(78,82)                1.5797                                         !
 ! R83   R(82,83)                1.2378                                         !
 ! R84   R(82,84)                1.2824                                         !
 ! R85   R(85,86)                1.0565                                         !
 ! R86   R(85,87)                1.4465                                         !
 ! R87   R(87,88)                1.0957                                         !
 ! R88   R(87,89)                1.5423                                         !
 ! R89   R(87,90)                1.5391                                         !
 ! R90   R(89,93)                1.2327                                         !
 ! R91   R(89,102)               1.345                                          !
 ! R92   R(90,91)                1.0959                                         !
 ! R93   R(90,92)                1.0959                                         !
 ! R94   R(90,94)                1.4967                                         !
 ! R95   R(94,95)                1.3768                                         !
 ! R96   R(94,97)                1.3927                                         !
 ! R97   R(95,96)                1.0777                                         !
 ! R98   R(95,101)               1.3831                                         !
 ! R99   R(97,98)                1.0106                                         !
 ! R100  R(97,99)                1.3393                                         !
 ! R101  R(99,100)               1.0788                                         !
 ! R102  R(99,101)               1.3315                                         !
 ! R103  R(101,146)              1.0126                                         !
 ! R104  R(102,103)              1.0147                                         !
 ! R105  R(102,104)              1.4778                                         !
 ! R106  R(104,105)              1.0929                                         !
 ! R107  R(104,106)              1.5429                                         !
 ! R108  R(104,107)              1.5275                                         !
 ! R109  R(106,110)              1.2263                                         !
 ! R110  R(106,121)              1.3704                                         !
 ! R111  R(107,108)              1.098                                          !
 ! R112  R(107,109)              1.0995                                         !
 ! R113  R(107,111)              1.5496                                         !
 ! R114  R(111,112)              1.0971                                         !
 ! R115  R(111,113)              1.5397                                         !
 ! R116  R(111,117)              1.5388                                         !
 ! R117  R(113,114)              1.099                                          !
 ! R118  R(113,115)              1.0978                                         !
 ! R119  R(113,116)              1.0974                                         !
 ! R120  R(117,118)              1.0978                                         !
 ! R121  R(117,119)              1.0982                                         !
 ! R122  R(117,120)              1.0995                                         !
 ! R123  R(121,122)              1.0168                                         !
 ! R124  R(121,123)              1.4565                                         !
 ! R125  R(123,124)              1.0922                                         !
 ! R126  R(123,125)              1.5988                                         !
 ! R127  R(123,126)              1.5356                                         !
 ! R128  R(125,129)              1.2595                                         !
 ! R129  R(125,145)              1.2487                                         !
 ! R130  R(126,127)              1.1004                                         !
 ! R131  R(126,128)              1.1036                                         !
 ! R132  R(126,130)              1.5321                                         !
 ! R133  R(130,131)              1.0975                                         !
 ! R134  R(130,132)              1.0978                                         !
 ! R135  R(130,133)              1.5238                                         !
 ! R136  R(133,134)              1.0978                                         !
 ! R137  R(133,135)              1.0999                                         !
 ! R138  R(133,136)              1.484                                          !
 ! R139  R(136,137)              1.018                                          !
 ! R140  R(136,144)              1.3229                                         !
 ! R141  R(138,139)              1.0116                                         !
 ! R142  R(138,140)              1.0122                                         !
 ! R143  R(138,144)              1.3474                                         !
 ! R144  R(141,142)              1.0128                                         !
 ! R145  R(141,143)              1.0133                                         !
 ! R146  R(141,144)              1.3555                                         !
 ! A1    A(2,1,3)              110.2276                                         !
 ! A2    A(2,1,4)              108.9221                                         !
 ! A3    A(2,1,5)              112.2445                                         !
 ! A4    A(3,1,4)              107.6861                                         !
 ! A5    A(3,1,5)              104.7567                                         !
 ! A6    A(4,1,5)              112.8396                                         !
 ! A7    A(1,5,6)              108.3456                                         !
 ! A8    A(1,5,7)              107.4925                                         !
 ! A9    A(1,5,8)              104.7965                                         !
 ! A10   A(6,5,7)              110.9729                                         !
 ! A11   A(6,5,8)              112.8747                                         !
 ! A12   A(7,5,8)              111.9647                                         !
 ! A13   A(5,7,11)             120.147                                          !
 ! A14   A(5,7,14)             114.1214                                         !
 ! A15   A(11,7,14)            125.4901                                         !
 ! A16   A(5,8,9)              110.1848                                         !
 ! A17   A(5,8,10)             109.3496                                         !
 ! A18   A(5,8,12)             108.4218                                         !
 ! A19   A(9,8,10)             108.2319                                         !
 ! A20   A(9,8,12)             106.9678                                         !
 ! A21   A(10,8,12)            113.6457                                         !
 ! A22   A(8,12,13)            105.3893                                         !
 ! A23   A(7,14,15)            117.2745                                         !
 ! A24   A(7,14,16)            121.5883                                         !
 ! A25   A(15,14,16)           111.0041                                         !
 ! A26   A(14,16,17)           107.7654                                         !
 ! A27   A(14,16,18)           107.0132                                         !
 ! A28   A(14,16,19)           110.781                                          !
 ! A29   A(17,16,18)           111.5327                                         !
 ! A30   A(17,16,19)           110.6341                                         !
 ! A31   A(18,16,19)           109.0565                                         !
 ! A32   A(16,18,23)           119.1814                                         !
 ! A33   A(16,18,24)           115.9438                                         !
 ! A34   A(23,18,24)           124.8214                                         !
 ! A35   A(16,19,20)           110.1282                                         !
 ! A36   A(16,19,21)           110.6079                                         !
 ! A37   A(16,19,22)           110.5669                                         !
 ! A38   A(20,19,21)           107.4558                                         !
 ! A39   A(20,19,22)           108.955                                          !
 ! A40   A(21,19,22)           109.054                                          !
 ! A41   A(18,24,25)           119.5001                                         !
 ! A42   A(18,24,26)           120.9871                                         !
 ! A43   A(25,24,26)           112.7273                                         !
 ! A44   A(24,26,27)           108.3901                                         !
 ! A45   A(24,26,28)           108.8436                                         !
 ! A46   A(24,26,29)           107.8131                                         !
 ! A47   A(27,26,28)           111.4304                                         !
 ! A48   A(27,26,29)           111.5995                                         !
 ! A49   A(28,26,29)           108.6629                                         !
 ! A50   A(26,28,31)           119.0111                                         !
 ! A51   A(26,28,38)           116.617                                          !
 ! A52   A(31,28,38)           124.3719                                         !
 ! A53   A(26,29,30)           107.3371                                         !
 ! A54   A(26,29,32)           113.1072                                         !
 ! A55   A(26,29,36)           108.5356                                         !
 ! A56   A(30,29,32)           109.5961                                         !
 ! A57   A(30,29,36)           110.4222                                         !
 ! A58   A(32,29,36)           107.8455                                         !
 ! A59   A(29,32,33)           110.7561                                         !
 ! A60   A(29,32,34)           110.489                                          !
 ! A61   A(29,32,35)           109.5356                                         !
 ! A62   A(33,32,34)           108.7079                                         !
 ! A63   A(33,32,35)           108.8949                                         !
 ! A64   A(34,32,35)           108.4051                                         !
 ! A65   A(29,36,37)           106.3311                                         !
 ! A66   A(28,38,39)           120.8154                                         !
 ! A67   A(28,38,40)           124.0641                                         !
 ! A68   A(39,38,40)           115.0791                                         !
 ! A69   A(38,40,41)           107.3802                                         !
 ! A70   A(38,40,42)           105.9481                                         !
 ! A71   A(38,40,43)           112.1939                                         !
 ! A72   A(41,40,42)           112.2085                                         !
 ! A73   A(41,40,43)           109.1766                                         !
 ! A74   A(42,40,43)           109.9159                                         !
 ! A75   A(40,42,45)           119.5764                                         !
 ! A76   A(40,42,54)           116.415                                          !
 ! A77   A(45,42,54)           123.9589                                         !
 ! A78   A(40,43,44)           106.5217                                         !
 ! A79   A(40,43,46)           110.3525                                         !
 ! A80   A(40,43,50)           111.0566                                         !
 ! A81   A(44,43,46)           108.8273                                         !
 ! A82   A(44,43,50)           108.6182                                         !
 ! A83   A(46,43,50)           111.3068                                         !
 ! A84   A(43,46,47)           110.8922                                         !
 ! A85   A(43,46,48)           112.3837                                         !
 ! A86   A(43,46,49)           110.3052                                         !
 ! A87   A(47,46,48)           107.8316                                         !
 ! A88   A(47,46,49)           107.5089                                         !
 ! A89   A(48,46,49)           107.7319                                         !
 ! A90   A(43,50,51)           111.2227                                         !
 ! A91   A(43,50,52)           110.8875                                         !
 ! A92   A(43,50,53)           109.9868                                         !
 ! A93   A(51,50,52)           108.3845                                         !
 ! A94   A(51,50,53)           108.1394                                         !
 ! A95   A(52,50,53)           108.1187                                         !
 ! A96   A(42,54,55)           120.3974                                         !
 ! A97   A(42,54,56)           122.3471                                         !
 ! A98   A(55,54,56)           116.1989                                         !
 ! A99   A(54,56,57)           106.5547                                         !
 ! A100  A(54,56,58)           106.3404                                         !
 ! A101  A(54,56,59)           112.3791                                         !
 ! A102  A(57,56,58)           110.6541                                         !
 ! A103  A(57,56,59)           108.2674                                         !
 ! A104  A(58,56,59)           112.4961                                         !
 ! A105  A(56,58,61)           119.1082                                         !
 ! A106  A(56,58,73)           116.5651                                         !
 ! A107  A(61,58,73)           124.2995                                         !
 ! A108  A(56,59,60)           104.5186                                         !
 ! A109  A(56,59,62)           112.0484                                         !
 ! A110  A(56,59,65)           112.4094                                         !
 ! A111  A(60,59,62)           107.8794                                         !
 ! A112  A(60,59,65)           107.4051                                         !
 ! A113  A(62,59,65)           112.078                                          !
 ! A114  A(59,62,63)           110.4438                                         !
 ! A115  A(59,62,64)           107.3236                                         !
 ! A116  A(59,62,69)           114.6069                                         !
 ! A117  A(63,62,64)           106.3373                                         !
 ! A118  A(63,62,69)           108.7041                                         !
 ! A119  A(64,62,69)           109.0936                                         !
 ! A120  A(59,65,66)           110.5107                                         !
 ! A121  A(59,65,67)           111.7077                                         !
 ! A122  A(59,65,68)           110.2111                                         !
 ! A123  A(66,65,67)           106.913                                          !
 ! A124  A(66,65,68)           109.9612                                         !
 ! A125  A(67,65,68)           107.4376                                         !
 ! A126  A(62,69,70)           110.5886                                         !
 ! A127  A(62,69,71)           111.6444                                         !
 ! A128  A(62,69,72)           111.054                                          !
 ! A129  A(70,69,71)           106.3527                                         !
 ! A130  A(70,69,72)           108.1358                                         !
 ! A131  A(71,69,72)           108.8904                                         !
 ! A132  A(58,73,74)           116.1708                                         !
 ! A133  A(58,73,75)           120.7701                                         !
 ! A134  A(74,73,75)           114.9385                                         !
 ! A135  A(73,75,76)           107.5958                                         !
 ! A136  A(73,75,77)           107.1717                                         !
 ! A137  A(73,75,78)           114.2641                                         !
 ! A138  A(76,75,77)           108.6222                                         !
 ! A139  A(76,75,78)           107.2852                                         !
 ! A140  A(77,75,78)           111.7171                                         !
 ! A141  A(75,77,81)           122.498                                          !
 ! A142  A(75,77,85)           113.2458                                         !
 ! A143  A(81,77,85)           124.1657                                         !
 ! A144  A(75,78,79)           107.9409                                         !
 ! A145  A(75,78,80)           111.9938                                         !
 ! A146  A(75,78,82)           110.1001                                         !
 ! A147  A(79,78,80)           108.5186                                         !
 ! A148  A(79,78,82)           109.1752                                         !
 ! A149  A(80,78,82)           109.0572                                         !
 ! A150  A(78,82,83)           115.8851                                         !
 ! A151  A(78,82,84)           114.1542                                         !
 ! A152  A(83,82,84)           129.9547                                         !
 ! A153  A(77,85,86)           114.0571                                         !
 ! A154  A(77,85,87)           120.5444                                         !
 ! A155  A(86,85,87)           122.6907                                         !
 ! A156  A(85,87,88)           105.2811                                         !
 ! A157  A(85,87,89)           111.2244                                         !
 ! A158  A(85,87,90)           109.2807                                         !
 ! A159  A(88,87,89)           109.9058                                         !
 ! A160  A(88,87,90)           109.7861                                         !
 ! A161  A(89,87,90)           111.1933                                         !
 ! A162  A(87,89,93)           120.6494                                         !
 ! A163  A(87,89,102)          113.1755                                         !
 ! A164  A(93,89,102)          126.0485                                         !
 ! A165  A(87,90,91)           109.4298                                         !
 ! A166  A(87,90,92)           109.5981                                         !
 ! A167  A(87,90,94)           109.6167                                         !
 ! A168  A(91,90,92)           106.5461                                         !
 ! A169  A(91,90,94)           111.0382                                         !
 ! A170  A(92,90,94)           110.5583                                         !
 ! A171  A(90,94,95)           132.0289                                         !
 ! A172  A(90,94,97)           123.0057                                         !
 ! A173  A(95,94,97)           104.8812                                         !
 ! A174  A(94,95,96)           132.3747                                         !
 ! A175  A(94,95,101)          106.7889                                         !
 ! A176  A(96,95,101)          120.8124                                         !
 ! A177  A(94,97,98)           124.1966                                         !
 ! A178  A(94,97,99)           111.3615                                         !
 ! A179  A(98,97,99)           124.4361                                         !
 ! A180  A(97,99,100)          126.8169                                         !
 ! A181  A(97,99,101)          106.0815                                         !
 ! A182  A(100,99,101)         127.0964                                         !
 ! A183  A(95,101,99)          110.8818                                         !
 ! A184  A(95,101,146)         123.6491                                         !
 ! A185  A(99,101,146)         125.4222                                         !
 ! A186  A(89,102,103)         117.6388                                         !
 ! A187  A(89,102,104)         122.1342                                         !
 ! A188  A(103,102,104)        116.3914                                         !
 ! A189  A(102,104,105)        105.867                                          !
 ! A190  A(102,104,106)        111.4485                                         !
 ! A191  A(102,104,107)        109.0519                                         !
 ! A192  A(105,104,106)        107.5658                                         !
 ! A193  A(105,104,107)        109.4375                                         !
 ! A194  A(106,104,107)        113.1882                                         !
 ! A195  A(104,106,110)        122.2457                                         !
 ! A196  A(104,106,121)        114.0265                                         !
 ! A197  A(110,106,121)        123.7277                                         !
 ! A198  A(104,107,108)        106.9253                                         !
 ! A199  A(104,107,109)        108.6765                                         !
 ! A200  A(104,107,111)        115.4165                                         !
 ! A201  A(108,107,109)        108.2777                                         !
 ! A202  A(108,107,111)        107.9202                                         !
 ! A203  A(109,107,111)        109.3959                                         !
 ! A204  A(107,111,112)        107.6957                                         !
 ! A205  A(107,111,113)        113.2024                                         !
 ! A206  A(107,111,117)        107.9685                                         !
 ! A207  A(112,111,113)        108.5243                                         !
 ! A208  A(112,111,117)        109.3174                                         !
 ! A209  A(113,111,117)        110.0546                                         !
 ! A210  A(111,113,114)        110.3944                                         !
 ! A211  A(111,113,115)        109.8458                                         !
 ! A212  A(111,113,116)        112.7433                                         !
 ! A213  A(114,113,115)        107.6196                                         !
 ! A214  A(114,113,116)        109.0378                                         !
 ! A215  A(115,113,116)        107.0187                                         !
 ! A216  A(111,117,118)        109.7277                                         !
 ! A217  A(111,117,119)        111.021                                          !
 ! A218  A(111,117,120)        111.5733                                         !
 ! A219  A(118,117,119)        108.5899                                         !
 ! A220  A(118,117,120)        107.9855                                         !
 ! A221  A(119,117,120)        107.8384                                         !
 ! A222  A(106,121,122)        114.0316                                         !
 ! A223  A(106,121,123)        118.3906                                         !
 ! A224  A(122,121,123)        115.0282                                         !
 ! A225  A(121,123,124)        109.2407                                         !
 ! A226  A(121,123,125)        112.1001                                         !
 ! A227  A(121,123,126)        110.1543                                         !
 ! A228  A(124,123,125)        108.7337                                         !
 ! A229  A(124,123,126)        110.8926                                         !
 ! A230  A(125,123,126)        105.6829                                         !
 ! A231  A(123,125,129)        113.4608                                         !
 ! A232  A(123,125,145)        114.4758                                         !
 ! A233  A(129,125,145)        131.7246                                         !
 ! A234  A(123,126,127)        107.8806                                         !
 ! A235  A(123,126,128)        111.6242                                         !
 ! A236  A(123,126,130)        109.1358                                         !
 ! A237  A(127,126,128)        107.3325                                         !
 ! A238  A(127,126,130)        110.0506                                         !
 ! A239  A(128,126,130)        110.758                                          !
 ! A240  A(126,130,131)        107.8349                                         !
 ! A241  A(126,130,132)        109.7024                                         !
 ! A242  A(126,130,133)        113.8245                                         !
 ! A243  A(131,130,132)        106.3455                                         !
 ! A244  A(131,130,133)        109.6682                                         !
 ! A245  A(132,130,133)        109.1925                                         !
 ! A246  A(130,133,134)        111.8182                                         !
 ! A247  A(130,133,135)        110.6072                                         !
 ! A248  A(130,133,136)        107.7196                                         !
 ! A249  A(134,133,135)        108.6668                                         !
 ! A250  A(134,133,136)        108.6727                                         !
 ! A251  A(135,133,136)        109.3087                                         !
 ! A252  A(133,136,137)        113.12                                           !
 ! A253  A(133,136,144)        125.5258                                         !
 ! A254  A(137,136,144)        116.5678                                         !
 ! A255  A(139,138,140)        115.0966                                         !
 ! A256  A(139,138,144)        119.2996                                         !
 ! A257  A(140,138,144)        118.4488                                         !
 ! A258  A(142,141,143)        113.2293                                         !
 ! A259  A(142,141,144)        118.3965                                         !
 ! A260  A(143,141,144)        117.6503                                         !
 ! A261  A(136,144,138)        120.6559                                         !
 ! A262  A(136,144,141)        120.53                                           !
 ! A263  A(138,144,141)        118.8006                                         !
 ! D1    D(2,1,5,6)             74.3784                                         !
 ! D2    D(2,1,5,7)            -45.6138                                         !
 ! D3    D(2,1,5,8)           -164.88                                           !
 ! D4    D(3,1,5,6)           -166.0163                                         !
 ! D5    D(3,1,5,7)             73.9916                                         !
 ! D6    D(3,1,5,8)            -45.2746                                         !
 ! D7    D(4,1,5,6)            -49.1551                                         !
 ! D8    D(4,1,5,7)           -169.1472                                         !
 ! D9    D(4,1,5,8)             71.5866                                         !
 ! D10   D(1,5,7,11)           -99.3811                                         !
 ! D11   D(1,5,7,14)            75.2782                                         !
 ! D12   D(6,5,7,11)           142.3098                                         !
 ! D13   D(6,5,7,14)           -43.0309                                         !
 ! D14   D(8,5,7,11)            15.1905                                         !
 ! D15   D(8,5,7,14)          -170.1501                                         !
 ! D16   D(1,5,8,9)            -64.3599                                         !
 ! D17   D(1,5,8,10)           176.7984                                         !
 ! D18   D(1,5,8,12)            52.3949                                         !
 ! D19   D(6,5,8,9)             53.3355                                         !
 ! D20   D(6,5,8,10)           -65.5062                                         !
 ! D21   D(6,5,8,12)           170.0903                                         !
 ! D22   D(7,5,8,9)            179.4242                                         !
 ! D23   D(7,5,8,10)            60.5825                                         !
 ! D24   D(7,5,8,12)           -63.821                                          !
 ! D25   D(5,7,14,15)           30.1659                                         !
 ! D26   D(5,7,14,16)          172.3936                                         !
 ! D27   D(11,7,14,15)        -155.5072                                         !
 ! D28   D(11,7,14,16)         -13.2795                                         !
 ! D29   D(5,8,12,13)           67.7892                                         !
 ! D30   D(9,8,12,13)         -173.4035                                         !
 ! D31   D(10,8,12,13)         -54.0185                                         !
 ! D32   D(7,14,16,17)          22.6451                                         !
 ! D33   D(7,14,16,18)         -97.4267                                         !
 ! D34   D(7,14,16,19)         143.8018                                         !
 ! D35   D(15,14,16,17)        166.9709                                         !
 ! D36   D(15,14,16,18)         46.8991                                         !
 ! D37   D(15,14,16,19)        -71.8724                                         !
 ! D38   D(14,16,18,23)        -33.2712                                         !
 ! D39   D(14,16,18,24)        149.2566                                         !
 ! D40   D(17,16,18,23)       -150.9009                                         !
 ! D41   D(17,16,18,24)         31.6269                                         !
 ! D42   D(19,16,18,23)         86.6126                                         !
 ! D43   D(19,16,18,24)        -90.8595                                         !
 ! D44   D(14,16,19,20)        178.0061                                         !
 ! D45   D(14,16,19,21)         59.3767                                         !
 ! D46   D(14,16,19,22)        -61.5281                                         !
 ! D47   D(17,16,19,20)        -62.5469                                         !
 ! D48   D(17,16,19,21)        178.8238                                         !
 ! D49   D(17,16,19,22)         57.9189                                         !
 ! D50   D(18,16,19,20)         60.4781                                         !
 ! D51   D(18,16,19,21)        -58.1513                                         !
 ! D52   D(18,16,19,22)       -179.0561                                         !
 ! D53   D(16,18,24,25)         12.1625                                         !
 ! D54   D(16,18,24,26)        161.2074                                         !
 ! D55   D(23,18,24,25)       -165.149                                          !
 ! D56   D(23,18,24,26)        -16.1041                                         !
 ! D57   D(18,24,26,27)         52.587                                          !
 ! D58   D(18,24,26,28)        -68.7654                                         !
 ! D59   D(18,24,26,29)        173.5369                                         !
 ! D60   D(25,24,26,27)       -156.4495                                         !
 ! D61   D(25,24,26,28)         82.1981                                         !
 ! D62   D(25,24,26,29)        -35.4996                                         !
 ! D63   D(24,26,28,31)        -57.4825                                         !
 ! D64   D(24,26,28,38)        122.5601                                         !
 ! D65   D(27,26,28,31)       -176.9587                                         !
 ! D66   D(27,26,28,38)          3.0838                                         !
 ! D67   D(29,26,28,31)         59.6756                                         !
 ! D68   D(29,26,28,38)       -120.2818                                         !
 ! D69   D(24,26,29,30)        167.2241                                         !
 ! D70   D(24,26,29,32)        -71.7653                                         !
 ! D71   D(24,26,29,36)         47.8697                                         !
 ! D72   D(27,26,29,30)        -73.8543                                         !
 ! D73   D(27,26,29,32)         47.1563                                         !
 ! D74   D(27,26,29,36)        166.7913                                         !
 ! D75   D(28,26,29,30)         49.4098                                         !
 ! D76   D(28,26,29,32)        170.4205                                         !
 ! D77   D(28,26,29,36)        -69.9445                                         !
 ! D78   D(26,28,38,39)         -0.6457                                         !
 ! D79   D(26,28,38,40)       -178.1853                                         !
 ! D80   D(31,28,38,39)        179.3994                                         !
 ! D81   D(31,28,38,40)          1.8598                                         !
 ! D82   D(26,29,32,33)        -63.3347                                         !
 ! D83   D(26,29,32,34)         57.1817                                         !
 ! D84   D(26,29,32,35)        176.5372                                         !
 ! D85   D(30,29,32,33)         56.3883                                         !
 ! D86   D(30,29,32,34)        176.9047                                         !
 ! D87   D(30,29,32,35)        -63.7398                                         !
 ! D88   D(36,29,32,33)        176.6348                                         !
 ! D89   D(36,29,32,34)        -62.8488                                         !
 ! D90   D(36,29,32,35)         56.5068                                         !
 ! D91   D(26,29,36,37)         58.2542                                         !
 ! D92   D(30,29,36,37)        -59.1468                                         !
 ! D93   D(32,29,36,37)       -178.872                                          !
 ! D94   D(28,38,40,41)        -20.6337                                         !
 ! D95   D(28,38,40,42)       -140.7238                                         !
 ! D96   D(28,38,40,43)         99.3286                                         !
 ! D97   D(39,38,40,41)        161.6991                                         !
 ! D98   D(39,38,40,42)         41.6091                                         !
 ! D99   D(39,38,40,43)        -78.3385                                         !
 ! D100  D(38,40,42,45)        -48.6009                                         !
 ! D101  D(38,40,42,54)        133.8613                                         !
 ! D102  D(41,40,42,45)       -165.4878                                         !
 ! D103  D(41,40,42,54)         16.9745                                         !
 ! D104  D(43,40,42,45)         72.8245                                         !
 ! D105  D(43,40,42,54)       -104.7132                                         !
 ! D106  D(38,40,43,44)         64.0015                                         !
 ! D107  D(38,40,43,46)       -178.0249                                         !
 ! D108  D(38,40,43,50)        -54.1001                                         !
 ! D109  D(41,40,43,44)       -177.0876                                         !
 ! D110  D(41,40,43,46)        -59.1141                                         !
 ! D111  D(41,40,43,50)         64.8107                                         !
 ! D112  D(42,40,43,44)        -53.6078                                         !
 ! D113  D(42,40,43,46)         64.3658                                         !
 ! D114  D(42,40,43,50)       -171.7094                                         !
 ! D115  D(40,42,54,55)        -11.5282                                         !
 ! D116  D(40,42,54,56)       -179.3236                                         !
 ! D117  D(45,42,54,55)        171.0537                                         !
 ! D118  D(45,42,54,56)          3.2583                                         !
 ! D119  D(40,43,46,47)         62.831                                          !
 ! D120  D(40,43,46,48)        -57.9448                                         !
 ! D121  D(40,43,46,49)       -178.1827                                         !
 ! D122  D(44,43,46,47)        179.3786                                         !
 ! D123  D(44,43,46,48)         58.6028                                         !
 ! D124  D(44,43,46,49)        -61.6351                                         !
 ! D125  D(50,43,46,47)        -60.9492                                         !
 ! D126  D(50,43,46,48)        178.275                                          !
 ! D127  D(50,43,46,49)         58.0371                                         !
 ! D128  D(40,43,50,51)        -53.8892                                         !
 ! D129  D(40,43,50,52)         66.7965                                         !
 ! D130  D(40,43,50,53)       -173.6662                                         !
 ! D131  D(44,43,50,51)       -170.7136                                         !
 ! D132  D(44,43,50,52)        -50.0278                                         !
 ! D133  D(44,43,50,53)         69.5095                                         !
 ! D134  D(46,43,50,51)         69.4902                                         !
 ! D135  D(46,43,50,52)       -169.8241                                         !
 ! D136  D(46,43,50,53)        -50.2868                                         !
 ! D137  D(42,54,56,57)        -40.5207                                         !
 ! D138  D(42,54,56,58)       -158.5952                                         !
 ! D139  D(42,54,56,59)         77.906                                          !
 ! D140  D(55,54,56,57)        151.2046                                         !
 ! D141  D(55,54,56,58)         33.1301                                         !
 ! D142  D(55,54,56,59)        -90.3687                                         !
 ! D143  D(54,56,58,61)        -60.7764                                         !
 ! D144  D(54,56,58,73)        117.407                                          !
 ! D145  D(57,56,58,61)       -176.1068                                         !
 ! D146  D(57,56,58,73)          2.0766                                         !
 ! D147  D(59,56,58,61)         62.6494                                         !
 ! D148  D(59,56,58,73)       -119.1673                                         !
 ! D149  D(54,56,59,60)        -68.414                                          !
 ! D150  D(54,56,59,62)        175.0315                                         !
 ! D151  D(54,56,59,65)         47.7551                                         !
 ! D152  D(57,56,59,60)         48.9991                                         !
 ! D153  D(57,56,59,62)        -67.5554                                         !
 ! D154  D(57,56,59,65)        165.1681                                         !
 ! D155  D(58,56,59,60)        171.5969                                         !
 ! D156  D(58,56,59,62)         55.0424                                         !
 ! D157  D(58,56,59,65)        -72.2341                                         !
 ! D158  D(56,58,73,74)         16.2765                                         !
 ! D159  D(56,58,73,75)        163.3515                                         !
 ! D160  D(61,58,73,74)       -165.6449                                         !
 ! D161  D(61,58,73,75)        -18.5699                                         !
 ! D162  D(56,59,62,63)        -58.9751                                         !
 ! D163  D(56,59,62,64)       -174.4895                                         !
 ! D164  D(56,59,62,69)         64.196                                          !
 ! D165  D(60,59,62,63)       -173.4852                                         !
 ! D166  D(60,59,62,64)         71.0004                                         !
 ! D167  D(60,59,62,69)        -50.3141                                         !
 ! D168  D(65,59,62,63)         68.4789                                         !
 ! D169  D(65,59,62,64)        -47.0355                                         !
 ! D170  D(65,59,62,69)       -168.35                                           !
 ! D171  D(56,59,65,66)         53.7782                                         !
 ! D172  D(56,59,65,67)        -65.1195                                         !
 ! D173  D(56,59,65,68)        175.5224                                         !
 ! D174  D(60,59,65,66)        168.2                                            !
 ! D175  D(60,59,65,67)         49.3023                                         !
 ! D176  D(60,59,65,68)        -70.0558                                         !
 ! D177  D(62,59,65,66)        -73.4825                                         !
 ! D178  D(62,59,65,67)        167.6197                                         !
 ! D179  D(62,59,65,68)         48.2617                                         !
 ! D180  D(59,62,69,70)        169.3648                                         !
 ! D181  D(59,62,69,71)        -72.4295                                         !
 ! D182  D(59,62,69,72)         49.3055                                         !
 ! D183  D(63,62,69,70)        -66.5342                                         !
 ! D184  D(63,62,69,71)         51.6715                                         !
 ! D185  D(63,62,69,72)        173.4065                                         !
 ! D186  D(64,62,69,70)         49.026                                          !
 ! D187  D(64,62,69,71)        167.2318                                         !
 ! D188  D(64,62,69,72)        -71.0332                                         !
 ! D189  D(58,73,75,76)         35.6883                                         !
 ! D190  D(58,73,75,77)        -80.9674                                         !
 ! D191  D(58,73,75,78)        154.6923                                         !
 ! D192  D(74,73,75,76)       -176.8579                                         !
 ! D193  D(74,73,75,77)         66.4864                                         !
 ! D194  D(74,73,75,78)        -57.8539                                         !
 ! D195  D(73,75,77,81)        -28.4884                                         !
 ! D196  D(73,75,77,85)        148.1845                                         !
 ! D197  D(76,75,77,81)       -144.4654                                         !
 ! D198  D(76,75,77,85)         32.2075                                         !
 ! D199  D(78,75,77,81)         97.3891                                         !
 ! D200  D(78,75,77,85)        -85.938                                          !
 ! D201  D(73,75,78,79)        -57.4657                                         !
 ! D202  D(73,75,78,80)         61.9289                                         !
 ! D203  D(73,75,78,82)       -176.5518                                         !
 ! D204  D(76,75,78,79)         61.7136                                         !
 ! D205  D(76,75,78,80)       -178.8917                                         !
 ! D206  D(76,75,78,82)        -57.3725                                         !
 ! D207  D(77,75,78,79)       -179.3444                                         !
 ! D208  D(77,75,78,80)        -59.9498                                         !
 ! D209  D(77,75,78,82)         61.5694                                         !
 ! D210  D(75,77,85,86)         21.6818                                         !
 ! D211  D(75,77,85,87)       -176.4747                                         !
 ! D212  D(81,77,85,86)       -161.7097                                         !
 ! D213  D(81,77,85,87)          0.1338                                         !
 ! D214  D(75,78,82,83)       -149.1984                                         !
 ! D215  D(75,78,82,84)         29.9988                                         !
 ! D216  D(79,78,82,83)         92.4722                                         !
 ! D217  D(79,78,82,84)        -88.3307                                         !
 ! D218  D(80,78,82,83)        -25.9456                                         !
 ! D219  D(80,78,82,84)        153.2516                                         !
 ! D220  D(77,85,87,88)         15.7022                                         !
 ! D221  D(77,85,87,89)       -103.2934                                         !
 ! D222  D(77,85,87,90)        133.5641                                         !
 ! D223  D(86,85,87,88)        175.9409                                         !
 ! D224  D(86,85,87,89)         56.9452                                         !
 ! D225  D(86,85,87,90)        -66.1972                                         !
 ! D226  D(85,87,89,93)       -110.6526                                         !
 ! D227  D(85,87,89,102)        65.4974                                         !
 ! D228  D(88,87,89,93)        133.1587                                         !
 ! D229  D(88,87,89,102)       -50.6912                                         !
 ! D230  D(90,87,89,93)         11.3868                                         !
 ! D231  D(90,87,89,102)      -172.4631                                         !
 ! D232  D(85,87,90,91)        172.4346                                         !
 ! D233  D(85,87,90,92)         55.9379                                         !
 ! D234  D(85,87,90,94)        -65.5703                                         !
 ! D235  D(88,87,90,91)        -72.5679                                         !
 ! D236  D(88,87,90,92)        170.9354                                         !
 ! D237  D(88,87,90,94)         49.4272                                         !
 ! D238  D(89,87,90,91)         49.2737                                         !
 ! D239  D(89,87,90,92)        -67.223                                          !
 ! D240  D(89,87,90,94)        171.2687                                         !
 ! D241  D(87,89,102,103)        1.1498                                         !
 ! D242  D(87,89,102,104)     -155.9891                                         !
 ! D243  D(93,89,102,103)      177.0528                                         !
 ! D244  D(93,89,102,104)       19.914                                          !
 ! D245  D(87,90,94,95)         45.9535                                         !
 ! D246  D(87,90,94,97)       -130.1769                                         !
 ! D247  D(91,90,94,95)        166.9815                                         !
 ! D248  D(91,90,94,97)         -9.1489                                         !
 ! D249  D(92,90,94,95)        -74.9757                                         !
 ! D250  D(92,90,94,97)        108.8939                                         !
 ! D251  D(90,94,95,96)          2.1704                                         !
 ! D252  D(90,94,95,101)      -176.0042                                         !
 ! D253  D(97,94,95,96)        178.8133                                         !
 ! D254  D(97,94,95,101)         0.6386                                         !
 ! D255  D(90,94,97,98)         -2.867                                          !
 ! D256  D(90,94,97,99)        176.2948                                         !
 ! D257  D(95,94,97,98)       -179.8938                                         !
 ! D258  D(95,94,97,99)         -0.732                                          !
 ! D259  D(94,95,101,99)        -0.3636                                         !
 ! D260  D(94,95,101,146)      177.2643                                         !
 ! D261  D(96,95,101,99)      -178.7935                                         !
 ! D262  D(96,95,101,146)       -1.1657                                         !
 ! D263  D(94,97,99,100)       179.7249                                         !
 ! D264  D(94,97,99,101)         0.5158                                         !
 ! D265  D(98,97,99,100)        -1.1157                                         !
 ! D266  D(98,97,99,101)       179.6752                                         !
 ! D267  D(97,99,101,95)        -0.089                                          !
 ! D268  D(97,99,101,146)     -177.6657                                         !
 ! D269  D(100,99,101,95)     -179.2951                                         !
 ! D270  D(100,99,101,146)       3.1281                                         !
 ! D271  D(89,102,104,105)      19.1324                                         !
 ! D272  D(89,102,104,106)     -97.5323                                         !
 ! D273  D(89,102,104,107)     136.7888                                         !
 ! D274  D(103,102,104,105)   -138.2728                                         !
 ! D275  D(103,102,104,106)    105.0624                                         !
 ! D276  D(103,102,104,107)    -20.6165                                         !
 ! D277  D(102,104,106,110)   -112.741                                          !
 ! D278  D(102,104,106,121)     67.35                                           !
 ! D279  D(105,104,106,110)    131.6337                                         !
 ! D280  D(105,104,106,121)    -48.2753                                         !
 ! D281  D(107,104,106,110)     10.6139                                         !
 ! D282  D(107,104,106,121)   -169.2951                                         !
 ! D283  D(102,104,107,108)    -48.3217                                         !
 ! D284  D(102,104,107,109)     68.3519                                         !
 ! D285  D(102,104,107,111)   -168.3674                                         !
 ! D286  D(105,104,107,108)     67.057                                          !
 ! D287  D(105,104,107,109)   -176.2694                                         !
 ! D288  D(105,104,107,111)    -52.9886                                         !
 ! D289  D(106,104,107,108)   -172.9871                                         !
 ! D290  D(106,104,107,109)    -56.3136                                         !
 ! D291  D(106,104,107,111)     66.9672                                         !
 ! D292  D(104,106,121,122)     13.3126                                         !
 ! D293  D(104,106,121,123)    153.4463                                         !
 ! D294  D(110,106,121,122)   -166.5948                                         !
 ! D295  D(110,106,121,123)    -26.4612                                         !
 ! D296  D(104,107,111,112)    -82.9592                                         !
 ! D297  D(104,107,111,113)     37.0142                                         !
 ! D298  D(104,107,111,117)    159.1033                                         !
 ! D299  D(108,107,111,112)    157.541                                          !
 ! D300  D(108,107,111,113)    -82.4857                                         !
 ! D301  D(108,107,111,117)     39.6034                                         !
 ! D302  D(109,107,111,112)     39.9407                                         !
 ! D303  D(109,107,111,113)    159.914                                          !
 ! D304  D(109,107,111,117)    -77.9969                                         !
 ! D305  D(107,111,113,114)     53.6941                                         !
 ! D306  D(107,111,113,115)    172.2174                                         !
 ! D307  D(107,111,113,116)    -68.5277                                         !
 ! D308  D(112,111,113,114)    173.193                                          !
 ! D309  D(112,111,113,115)    -68.2837                                         !
 ! D310  D(112,111,113,116)     50.9712                                         !
 ! D311  D(117,111,113,114)    -67.2222                                         !
 ! D312  D(117,111,113,115)     51.3011                                         !
 ! D313  D(117,111,113,116)    170.5561                                         !
 ! D314  D(107,111,117,118)    -64.2356                                         !
 ! D315  D(107,111,117,119)    175.7234                                         !
 ! D316  D(107,111,117,120)     55.4028                                         !
 ! D317  D(112,111,117,118)    178.8734                                         !
 ! D318  D(112,111,117,119)     58.8324                                         !
 ! D319  D(112,111,117,120)    -61.4881                                         !
 ! D320  D(113,111,117,118)     59.7722                                         !
 ! D321  D(113,111,117,119)    -60.2688                                         !
 ! D322  D(113,111,117,120)    179.4106                                         !
 ! D323  D(106,121,123,124)     55.4209                                         !
 ! D324  D(106,121,123,125)    -65.1679                                         !
 ! D325  D(106,121,123,126)    177.4571                                         !
 ! D326  D(122,121,123,124)   -164.8278                                         !
 ! D327  D(122,121,123,125)     74.5833                                         !
 ! D328  D(122,121,123,126)    -42.7916                                         !
 ! D329  D(121,123,125,129)    153.4453                                         !
 ! D330  D(121,123,125,145)    -32.4399                                         !
 ! D331  D(124,123,125,129)     32.5631                                         !
 ! D332  D(124,123,125,145)   -153.3222                                         !
 ! D333  D(126,123,125,129)    -86.5376                                         !
 ! D334  D(126,123,125,145)     87.5772                                         !
 ! D335  D(121,123,126,127)     64.0785                                         !
 ! D336  D(121,123,126,128)    -53.6076                                         !
 ! D337  D(121,123,126,130)   -176.3662                                         !
 ! D338  D(124,123,126,127)   -174.8683                                         !
 ! D339  D(124,123,126,128)     67.4456                                         !
 ! D340  D(124,123,126,130)    -55.313                                          !
 ! D341  D(125,123,126,127)    -57.2074                                         !
 ! D342  D(125,123,126,128)   -174.8935                                         !
 ! D343  D(125,123,126,130)     62.3479                                         !
 ! D344  D(123,126,130,131)    -57.4815                                         !
 ! D345  D(123,126,130,132)     57.9375                                         !
 ! D346  D(123,126,130,133)   -179.3901                                         !
 ! D347  D(127,126,130,131)     60.7217                                         !
 ! D348  D(127,126,130,132)    176.1406                                         !
 ! D349  D(127,126,130,133)    -61.187                                          !
 ! D350  D(128,126,130,131)    179.2431                                         !
 ! D351  D(128,126,130,132)    -65.338                                          !
 ! D352  D(128,126,130,133)     57.3345                                         !
 ! D353  D(126,130,133,134)    -62.3136                                         !
 ! D354  D(126,130,133,135)     58.9423                                         !
 ! D355  D(126,130,133,136)    178.3487                                         !
 ! D356  D(131,130,133,134)    176.7975                                         !
 ! D357  D(131,130,133,135)    -61.9466                                         !
 ! D358  D(131,130,133,136)     57.4598                                         !
 ! D359  D(132,130,133,134)     60.6381                                         !
 ! D360  D(132,130,133,135)   -178.106                                          !
 ! D361  D(132,130,133,136)    -58.6996                                         !
 ! D362  D(130,133,136,137)    -27.9042                                         !
 ! D363  D(130,133,136,144)    177.6238                                         !
 ! D364  D(134,133,136,137)   -149.2252                                         !
 ! D365  D(134,133,136,144)     56.3028                                         !
 ! D366  D(135,133,136,137)     92.325                                          !
 ! D367  D(135,133,136,144)    -62.1471                                         !
 ! D368  D(133,136,144,138)    -11.3435                                         !
 ! D369  D(133,136,144,141)    170.0123                                         !
 ! D370  D(137,136,144,138)   -165.0397                                         !
 ! D371  D(137,136,144,141)     16.3162                                         !
 ! D372  D(139,138,144,136)    166.4268                                         !
 ! D373  D(139,138,144,141)    -14.9059                                         !
 ! D374  D(140,138,144,136)     17.423                                          !
 ! D375  D(140,138,144,141)   -163.9097                                         !
 ! D376  D(142,141,144,136)    160.5057                                         !
 ! D377  D(142,141,144,138)    -18.1633                                         !
 ! D378  D(143,141,144,136)     18.3764                                         !
 ! D379  D(143,141,144,138)   -160.2926                                         !
 --------------------------------------------------------------------------------
 Symmetry turned off by external request.
 Stoichiometry    C43H75N14O14(1+)
 Framework group  C1[X(C43H75N14O14)]
 Deg. of freedom   432
 Full point group                 C1      NOp   1
                          Input orientation:                          
 ---------------------------------------------------------------------
 Center     Atomic      Atomic             Coordinates (Angstroms)
 Number     Number       Type             X           Y           Z
 ---------------------------------------------------------------------
      1          7           0       -8.991041   -2.187134   -9.237713
      2          1           0       -8.006476   -2.287226   -9.516721
      3          1           0       -9.522478   -3.047761   -9.479253
      4          1           0       -9.409728   -1.402170   -9.762440
      5          6           0       -9.152452   -2.041488   -7.718456
      6          1           0       -8.834878   -1.033286   -7.433263
      7          6           0       -8.260941   -3.110222   -7.052845
      8          6           0      -10.645723   -2.294048   -7.456369
      9          1           0      -11.250709   -1.513622   -7.932765
     10          1           0      -10.835210   -2.263939   -6.377207
     11          8           0       -8.755492   -4.165043   -6.648765
     12          8           0      -11.004999   -3.523309   -8.062320
     13          1           0      -10.532883   -4.215153   -7.548458
     14          7           0       -6.930590   -2.817855   -7.074907
     15          1           0       -6.668190   -1.831917   -7.059094
     16          6           0       -5.950623   -3.635464   -6.346510
     17          1           0       -6.389798   -4.624592   -6.193087
     18          6           0       -5.676810   -2.924561   -5.007626
     19          6           0       -4.636823   -3.742922   -7.135178
     20          1           0       -3.903478   -4.323685   -6.567734
     21          1           0       -4.208025   -2.750303   -7.306632
     22          1           0       -4.806565   -4.230587   -8.100653
     23          8           0       -5.708735   -1.693217   -4.963467
     24          7           0       -5.363764   -3.724021   -3.968792
     25          1           0       -5.139833   -4.702142   -4.138843
     26          6           0       -4.698459   -3.190985   -2.784337
     27          1           0       -5.273380   -2.333214   -2.422058
     28          6           0       -3.261274   -2.786415   -3.160912
     29          6           0       -4.634234   -4.323558   -1.725966
     30          1           0       -3.937269   -3.996789   -0.937120
     31          8           0       -2.503015   -3.640477   -3.642735
     32          6           0       -5.989465   -4.643141   -1.109737
     33          1           0       -6.378679   -3.780074   -0.558970
     34          1           0       -6.709696   -4.916984   -1.888304
     35          1           0       -5.888239   -5.486659   -0.420805
     36          8           0       -4.151192   -5.507528   -2.357638
     37          1           0       -3.273148   -5.282739   -2.729508
     38          7           0       -2.917624   -1.507107   -2.936324
     39          1           0       -3.585573   -0.850230   -2.547198
     40          6           0       -1.613233   -0.940654   -3.266768
     41          1           0       -0.907615   -1.773304   -3.353739
     42          6           0       -1.257599    0.002775   -2.109228
[...]
 Alpha virt. eigenvalues --    1.74025   1.74245   1.74419   1.74869   1.75066
 Alpha virt. eigenvalues --    1.75272   1.75928   1.76348   1.76684   1.76790
 Alpha virt. eigenvalues --    1.77280   1.77460   1.77944   1.78394   1.78937
 Alpha virt. eigenvalues --    1.79199   1.79684   1.79958   1.80406   1.80621
 Alpha virt. eigenvalues --    1.80839   1.81229   1.81521   1.81819   1.82141
 Alpha virt. eigenvalues --    1.82522   1.83162   1.83385   1.83454   1.83877
 Alpha virt. eigenvalues --    1.84012   1.84291   1.84542   1.84676   1.85288
 Alpha virt. eigenvalues --    1.85431   1.85821   1.85920   1.86146   1.86485
 Alpha virt. eigenvalues --    1.87031   1.87522   1.87661   1.87700   1.87763
 Alpha virt. eigenvalues --    1.88050   1.88377   1.88624   1.88741   1.88885
 Alpha virt. eigenvalues --    1.89248   1.89866   1.90257   1.90433   1.90599
 Alpha virt. eigenvalues --    1.90864   1.91067   1.91541   1.91743   1.91950
 Alpha virt. eigenvalues --    1.92111   1.92737   1.92827   1.92971   1.93194
 Alpha virt. eigenvalues --    1.93283   1.93485   1.93924   1.94508   1.94678
 Alpha virt. eigenvalues --    1.94819   1.95424   1.95796   1.96176   1.96559
 Alpha virt. eigenvalues --    1.96753   1.97193   1.97210   1.97692   1.97857
 Alpha virt. eigenvalues --    1.98244   1.98748   1.99212   1.99356   2.00077
 Alpha virt. eigenvalues --    2.00327   2.00458   2.00793   2.00968   2.01736
 Alpha virt. eigenvalues --    2.02204   2.02500   2.02610   2.02833   2.03006
 Alpha virt. eigenvalues --    2.03556   2.03763   2.04233   2.04448   2.04743
 Alpha virt. eigenvalues --    2.04983   2.05421   2.05508   2.05620   2.05885
 Alpha virt. eigenvalues --    2.06678   2.06991   2.07275   2.07345   2.07486
 Alpha virt. eigenvalues --    2.08063   2.08419   2.08458   2.08796   2.09097
 Alpha virt. eigenvalues --    2.09206   2.09689   2.10482   2.10509   2.10558
 Alpha virt. eigenvalues --    2.11350   2.11686   2.11955   2.12250   2.12463
 Alpha virt. eigenvalues --    2.12551   2.12830   2.13089   2.13888   2.14211
 Alpha virt. eigenvalues --    2.14450   2.14547   2.15142   2.15622   2.15907
 Alpha virt. eigenvalues --    2.16424   2.16728   2.16924   2.17511   2.17658
 Alpha virt. eigenvalues --    2.18194   2.18725   2.19055   2.19235   2.19779
 Alpha virt. eigenvalues --    2.20178   2.20893   2.21484   2.21535   2.21956
 Alpha virt. eigenvalues --    2.22655   2.23215   2.23679   2.23806   2.23958
 Alpha virt. eigenvalues --    2.24169   2.25054   2.25613   2.26560   2.27222
 Alpha virt. eigenvalues --    2.27734   2.28217   2.28545   2.29550   2.29802
 Alpha virt. eigenvalues --    2.30012   2.31023   2.31093   2.31646   2.31963
 Alpha virt. eigenvalues --    2.32149   2.32461   2.33494   2.33695   2.33744
 Alpha virt. eigenvalues --    2.33984   2.34233   2.35118   2.35359   2.35644
 Alpha virt. eigenvalues --    2.36032   2.36638   2.37190   2.37733   2.38308
 Alpha virt. eigenvalues --    2.38599   2.39420   2.39518   2.40065   2.40258
 Alpha virt. eigenvalues --    2.41693   2.42213   2.42538   2.43027   2.44021
 Alpha virt. eigenvalues --    2.44205   2.44699   2.45324   2.45552   2.45897
 Alpha virt. eigenvalues --    2.46095   2.46703   2.46931   2.47048   2.47274
 Alpha virt. eigenvalues --    2.47573   2.48260   2.48868   2.49397   2.50553
 Alpha virt. eigenvalues --    2.50682   2.51055   2.51197   2.51965   2.52378
 Alpha virt. eigenvalues --    2.53085   2.53777   2.53892   2.54612   2.54959
 Alpha virt. eigenvalues --    2.55431   2.55830   2.56740   2.56925   2.57649
 Alpha virt. eigenvalues --    2.58386   2.58871   2.59045   2.59735   2.60086
 Alpha virt. eigenvalues --    2.60612   2.60906   2.61046   2.62308   2.62716
 Alpha virt. eigenvalues --    2.64366   2.64593   2.64766   2.65413   2.66294
 Alpha virt. eigenvalues --    2.66909   2.67494   2.67802   2.68107   2.69154
 Alpha virt. eigenvalues --    2.69682   2.70382   2.70534   2.71457   2.71721
 Alpha virt. eigenvalues --    2.73429   2.73980   2.74253   2.74634   2.74981
 Alpha virt. eigenvalues --    2.76143   2.77556   2.78447   2.78827   2.79298
 Alpha virt. eigenvalues --    2.79852   2.81232   2.81648   2.81719   2.82603
 Alpha virt. eigenvalues --    2.84598   2.85606   2.87127   2.87455   2.88325
 Alpha virt. eigenvalues --    2.89159   2.89673   2.89928   2.90501   2.91033
 Alpha virt. eigenvalues --    2.92286   2.92787   2.93794   2.95202   2.95361
 Alpha virt. eigenvalues --    2.95563   2.96457   2.97674   2.98075   2.99218
 Alpha virt. eigenvalues --    3.00210   3.00748   3.01429   3.03407   3.04005
 Alpha virt. eigenvalues --    3.05557   3.05720   3.06670   3.07120   3.08154
 Alpha virt. eigenvalues --    3.08931   3.10597   3.12667   3.14039   3.16283
 Alpha virt. eigenvalues --    3.18987   3.19603   3.21947   3.59073   3.66146
 Alpha virt. eigenvalues --    3.66376   3.72755   3.76152   3.78196   3.85747
 Alpha virt. eigenvalues --    3.89762   3.91351   3.94029   3.94875   3.95637
 Alpha virt. eigenvalues --    3.96965   3.98655   3.99140   4.00277   4.01815
 Alpha virt. eigenvalues --    4.04851   4.06605   4.08384   4.08931   4.11274
 Alpha virt. eigenvalues --    4.12077   4.13796   4.14716   4.15296   4.15753
 Alpha virt. eigenvalues --    4.16217   4.16728   4.18063   4.20081   4.20637
 Alpha virt. eigenvalues --    4.22311   4.22774   4.23941   4.24287   4.25586
 Alpha virt. eigenvalues --    4.25877   4.26476   4.29094   4.29445   4.31608
 Alpha virt. eigenvalues --    4.32129   4.34836   4.35340   4.36104   4.37098
 Alpha virt. eigenvalues --    4.38604   4.39334   4.41168   4.42401   4.43698
 Alpha virt. eigenvalues --    4.43890   4.44747   4.45647   4.46249   4.47683
 Alpha virt. eigenvalues --    4.51796   4.53540   4.53903   4.54031   4.58581
 Alpha virt. eigenvalues --    4.59723   4.61713   4.62098   4.65864   4.66780
 Alpha virt. eigenvalues --    4.68299   4.70294   4.71325   4.76134
          Condensed to atoms (all electrons):
 Mulliken charges:
               1
     1  N   -0.719881
     2  H    0.415747
     3  H    0.423558
     4  H    0.407857
     5  C   -0.159861
     6  H    0.219191
     7  C    0.609879
     8  C   -0.046912
     9  H    0.181229
    10  H    0.207723
    11  O   -0.499721
    12  O   -0.622374
    13  H    0.441935
    14  N   -0.591294
    15  H    0.349754
    16  C   -0.097400
    17  H    0.197971
    18  C    0.645279
    19  C   -0.459834
    20  H    0.195501
    21  H    0.178169
    22  H    0.164898
    23  O   -0.542841
    24  N   -0.580978
    25  H    0.354552
    26  C   -0.082804
    27  H    0.169121
    28  C    0.640418
    29  C    0.112788
    30  H    0.139656
    31  O   -0.569114
    32  C   -0.449428
    33  H    0.150815
    34  H    0.159269
    35  H    0.177399
    36  O   -0.641923
    37  H    0.419612
    38  N   -0.598413
    39  H    0.356836
    40  C   -0.047154
    41  H    0.167429
    42  C    0.622723
    43  C   -0.071799
    44  H    0.150431
    45  O   -0.545613
    46  C   -0.463319
    47  H    0.147231
    48  H    0.167981
    49  H    0.158305
    50  C   -0.478864
    51  H    0.159123
    52  H    0.158555
    53  H    0.142233
    54  N   -0.617361
    55  H    0.347818
    56  C   -0.027991
    57  H    0.176706
    58  C    0.608567
    59  C   -0.075454
    60  H    0.156499
    61  O   -0.578354
    62  C   -0.281271
    63  H    0.153899
    64  H    0.119196
    65  C   -0.488939
    66  H    0.151455
    67  H    0.146438
    68  H    0.135225
    69  C   -0.437902
    70  H    0.159721
    71  H    0.155803
    72  H    0.139337
    73  N   -0.571650
    74  H    0.348645
    75  C   -0.073528
    76  H    0.195154
    77  C    0.588383
    78  C   -0.375751
    79  H    0.152314
    80  H    0.146616
    81  O   -0.568299
    82  C    0.587675
    83  O   -0.526528
    84  O   -0.632121
    85  N   -0.617116
    86  H    0.404886
    87  C   -0.083545
    88  H    0.177233
    89  C    0.652007
    90  C   -0.355322
    91  H    0.170186
    92  H    0.225243
    93  O   -0.546859
    94  C    0.325941
    95  C    0.016948
    96  H    0.277082
    97  N   -0.601039
    98  H    0.381283
    99  C    0.300688
   100  H    0.239734
   101  N   -0.552765
   102  N   -0.605908
   103  H    0.347530
   104  C   -0.083251
   105  H    0.203305
   106  C    0.643461
   107  C   -0.310166
   108  H    0.173792
   109  H    0.121469
   110  O   -0.526705
   111  C   -0.054438
   112  H    0.143030
   113  C   -0.495582
   114  H    0.154197
   115  H    0.121876
   116  H    0.195145
   117  C   -0.466763
   118  H    0.193710
   119  H    0.116527
   120  H    0.106475
   121  N   -0.612785
   122  H    0.340536
   123  C   -0.013253
   124  H    0.145987
   125  C    0.571154
   126  C   -0.297555
   127  H    0.149712
   128  H    0.112269
   129  O   -0.600997
   130  C   -0.316621
   131  H    0.210173
   132  H    0.157399
   133  C   -0.158885
   134  H    0.165806
   135  H    0.180403
   136  N   -0.585622
   137  H    0.382296
   138  N   -0.744743
   139  H    0.375849
   140  H    0.391132
   141  N   -0.743001
   142  H    0.372769
   143  H    0.383575
   144  C    0.790231
   145  O   -0.580966
   146  H    0.394900
 Sum of Mulliken charges =   1.00000
 Mulliken charges with hydrogens summed into heavy atoms:
               1
     1  N    0.527281
     5  C    0.059330
     7  C    0.609879
     8  C    0.342041
    11  O   -0.499721
    12  O   -0.180439
    14  N   -0.241540
    16  C    0.100571
    18  C    0.645279
    19  C    0.078734
    23  O   -0.542841
    24  N   -0.226427
    26  C    0.086317
    28  C    0.640418
    29  C    0.252444
    31  O   -0.569114
    32  C    0.038055
    36  O   -0.222311
    38  N   -0.241577
    40  C    0.120275
    42  C    0.622723
    43  C    0.078632
    45  O   -0.545613
    46  C    0.010198
    50  C   -0.018954
    54  N   -0.269543
    56  C    0.148716
    58  C    0.608567
    59  C    0.081044
    61  O   -0.578354
    62  C   -0.008175
    65  C   -0.055821
    69  C    0.016959
    73  N   -0.223004
    75  C    0.121627
    77  C    0.588383
    78  C   -0.076821
    81  O   -0.568299
    82  C    0.587675
    83  O   -0.526528
    84  O   -0.632121
    85  N   -0.212230
    87  C    0.093689
    89  C    0.652007
    90  C    0.040106
    93  O   -0.546859
    94  C    0.325941
    95  C    0.294030
    97  N   -0.219756
    99  C    0.540423
   101  N   -0.157865
   102  N   -0.258379
   104  C    0.120053
   106  C    0.643461
   107  C   -0.014904
   110  O   -0.526705
   111  C    0.088592
   113  C   -0.024363
   117  C   -0.050051
   121  N   -0.272248
   123  C    0.132734
   125  C    0.571154
   126  C   -0.035574
   129  O   -0.600997
   130  C    0.050952
   133  C    0.187323
   136  N   -0.203325
   138  N    0.022238
   141  N    0.013344
   144  C    0.790231
   145  O   -0.580966
 Electronic spatial extent (au):  <R**2>=         169158.1644
 Charge=              1.0000 electrons
 Dipole moment (field-independent basis, Debye):
    X=            -22.7396    Y=            -23.6321    Z=              6.1907  Tot=             33.3750
 Quadrupole moment (field-independent basis, Debye-Ang):
   XX=             30.6334   YY=           -492.8717   ZZ=            331.3655
   XY=             15.7993   XZ=            715.3670   YZ=            181.7836
 Traceless Quadrupole moment (field-independent basis, Debye-Ang):
   XX=             74.2577   YY=           -449.2474   ZZ=            374.9898
   XY=             15.7993   XZ=            715.3670   YZ=            181.7836
 Octapole moment (field-independent basis, Debye-Ang**2):
  XXX=          -1840.3100  YYY=          -2563.7710  ZZZ=           2178.6272  XYY=          -1197.0457
  XXY=           -337.8475  XXZ=           2926.5711  XZZ=           2028.5344  YZZ=           1169.2454
  YYZ=            668.6171  XYZ=           1652.2127
 Hexadecapole moment (field-independent basis, Debye-Ang**3):
 XXXX=         -41101.0631 YYYY=         -51065.0042 ZZZZ=          27055.6828 XXXY=         -10548.9613
 XXXZ=          54549.9679 YYYX=         -34258.8904 YYYZ=         -12841.8070 ZZZX=          54975.9809
 ZZZY=          18805.3457 XXYY=         -21855.2155 XXZZ=          62487.3770 YYZZ=           -296.6424
 XXYZ=          28008.0593 YYXZ=           2684.1128 ZZXY=          26223.9959
 N-N= 1.125813331726D+04 E-N=-3.065810601263D+04  KE= 3.471051820195D+03
 Unable to Open any file for archive entry.
 1\1\GINC-LAC-304\SP\RB3LYP\6-31G(d)\C43H75N14O14(1+)\KENGMITH\12-Jun-2
 022\0\\# B3LYP/6-31G* empiricaldispersion=gd3 guess=read geom=check no
 symm integral(ultrafinegrid)\\Candidate Structure: Conf:304 Charge cal
 c in gas phase\\1,1\N,0,-8.9910411771,-2.1871336505,-9.2377129298\H,0,
 -8.0064763167,-2.2872260266,-9.5167205435\H,0,-9.5224776936,-3.0477611
 163,-9.4792530711\H,0,-9.4097278118,-1.4021704966,-9.7624396618\C,0,-9
 .1524520364,-2.0414875473,-7.7184563778\H,0,-8.8348778162,-1.033286175
 4,-7.4332631224\C,0,-8.2609412756,-3.1102216131,-7.052844563\C,0,-10.6
 457233176,-2.2940484003,-7.4563692425\H,0,-11.2507087652,-1.5136224368
 ,-7.9327650003\H,0,-10.835210193,-2.2639389287,-6.3772069955\O,0,-8.75
 54916739,-4.1650432813,-6.6487651669\O,0,-11.0049988714,-3.523309061,-
 8.0623197869\H,0,-10.5328832509,-4.2151530237,-7.5484581661\N,0,-6.930
 5903341,-2.8178552511,-7.0749069816\H,0,-6.6681895184,-1.8319169332,-7
 .0590940308\C,0,-5.9506227264,-3.635463923,-6.3465103695\H,0,-6.389797
 8896,-4.6245915998,-6.1930870798\C,0,-5.6768099677,-2.9245612405,-5.00
 76261476\C,0,-4.6368232675,-3.7429223115,-7.1351777197\H,0,-3.90347759
 47,-4.3236845113,-6.567733752\H,0,-4.2080246809,-2.7503032716,-7.30663
 19244\H,0,-4.806564681,-4.2305867334,-8.1006528741\O,0,-5.7087345995,-
 1.6932173779,-4.9634670708\N,0,-5.3637641034,-3.7240211276,-3.96879188
 53\H,0,-5.1398332029,-4.7021422997,-4.138843099\C,0,-4.6984593413,-3.1
 909848858,-2.7843373794\H,0,-5.273380442,-2.3332135109,-2.422057696\C,
 0,-3.2612736373,-2.786415489,-3.160911822\C,0,-4.6342340032,-4.3235580
 943,-1.7259657045\H,0,-3.9372691425,-3.9967885586,-0.937119734\O,0,-2.
 5030147653,-3.6404772446,-3.6427354856\C,0,-5.9894650103,-4.6431408541
 ,-1.1097371254\H,0,-6.3786793929,-3.7800741272,-0.5589695224\H,0,-6.70
 96963274,-4.9169841637,-1.8883040101\H,0,-5.8882389744,-5.4866590152,-
 0.4208053007\O,0,-4.1511916806,-5.5075280762,-2.3576383743\H,0,-3.2731
 475807,-5.282738996,-2.7295076636\N,0,-2.9176242806,-1.5071066827,-2.9
 363241203\H,0,-3.585572513,-0.8502296337,-2.5471975794\C,0,-1.61323312
 09,-0.9406543854,-3.2667676482\H,0,-0.9076145767,-1.7733038395,-3.3537
 386518\C,0,-1.2575986566,0.0027746408,-2.109227865\C,0,-1.6381718372,-
 0.1512798509,-4.6040601463\H,0,-2.3162434955,0.7007697609,-4.451615893
 5\O,0,-2.0887076168,0.8216803474,-1.7152218151\C,0,-0.2355752907,0.383
 9391247,-4.9352501992\H,0,0.4736909685,-0.4415282343,-5.083733421\H,0,
 0.1615456314,1.0290093222,-4.1454337805\H,0,-0.2604743341,0.9676231011
 ,-5.8616222832\C,0,-2.1892481533,-1.0185666692,-5.7470561071\H,0,-1.64
 00144686,-1.9640399096,-5.8281611306\H,0,-3.2485461627,-1.2469754719,-
 5.588109503\H,0,-2.0945967422,-0.4856565306,-6.701274313\N,0,-0.001955
 3339,-0.0957243748,-1.6169168578\H,0,0.5931060936,-0.8716716769,-1.881
 7924197\C,0,0.4702067359,0.7304001712,-0.5048111037\H,0,0.0681998595,1
 .7334356822,-0.6693482855\C,0,2.00071478,0.7398793629,-0.5939770151\C,
 0,-0.0435431433,0.218446795,0.8744595175\H,0,-1.1254964608,0.409528383
 9,0.8536312862\O,0,2.6191052705,-0.3363164601,-0.5033445734\C,0,0.5563
 097687,1.0187624813,2.049361602\H,0,1.6522644108,0.9509313355,2.039726
 6366\H,0,0.2245491842,0.5339940973,2.978978246\C,0,0.1529034195,-1.298
 5362326,1.0476160127\H,0,1.1990818395,-1.5736939062,0.8666470614\H,0,-
 0.4544499187,-1.8695933024,0.3366301417\H,0,-0.1461657097,-1.606673919
 8,2.0572600987\C,0,0.15572504,2.4976337741,2.0845677523\H,0,0.45576228
 88,2.9550103,3.0319290505\H,0,0.6525175176,3.0687293736,1.2961855457\H
 ,0,-0.9307381146,2.6146581319,1.9775141727\N,0,2.5846824108,1.93578692
 71,-0.8063623473\H,0,2.0071115032,2.7519210813,-0.6370071462\C,0,4.015
 2590504,2.1274671848,-0.5516559574\H,0,4.5248946599,1.2034379755,-0.82
 32261072\C,0,4.1805830556,2.3530649027,0.9574134519\C,0,4.654359259,3.
 2565687923,-1.3671640561\H,0,4.4904528328,3.0399614547,-2.4311336751\H
 ,0,4.2090639285,4.23137752,-1.1377605462\O,0,3.2926761926,2.8567662152
 ,1.6549820066\C,0,6.2071382498,3.3192540997,-1.0836274374\O,0,6.725909
 3145,4.440401699,-1.1617777602\O,0,6.7329756666,2.1872136067,-0.789510
 9038\N,0,5.3533679451,1.8824735641,1.4426262132\H,0,6.1080878956,1.770
 9370754,0.711756624\C,0,5.6404059388,1.9437090856,2.8590331681\H,0,4.6
 751395214,2.1339304881,3.3413307496\C,0,6.6227488115,3.0883552183,3.18
 06770991\C,0,6.1965821798,0.5860268548,3.3240222879\H,0,6.5405340755,0
 .6688952082,4.3612012812\H,0,7.0752297911,0.3236928459,2.7238393312\O,
 0,7.7743239183,2.8440338907,3.5462593834\C,0,5.1372610612,-0.462967116
 3,3.1914270641\C,0,4.2589694727,-0.7626461361,2.174414299\H,0,4.116458
 2582,-0.3451104818,1.1912033405\N,0,4.8048306954,-1.3398374905,4.22108
 98256\H,0,5.2730006057,-1.3683098438,5.1162358232\C,0,3.7757161311,-2.
 1258710844,3.879292266\H,0,3.3197933747,-2.8937447794,4.4846117949\N,0
 ,3.4430874038,-1.7788797254,2.6376325951\N,0,6.1110694896,4.3085827585
 ,2.9391312345\H,0,5.1565892328,4.3597884435,2.5984877816\C,0,6.9688575
 729,5.4812150839,2.6687102545\H,0,7.9410590424,5.0785354749,2.37341575
 06\C,0,7.1826581585,6.3290221923,3.9399793427\C,0,6.3744005412,6.27682
 09745,1.5080922531\H,0,6.1485087776,5.5574175698,0.7099186315\H,0,5.42
 99216863,6.7313777542,1.8400540872\O,0,6.726289431,7.4613783752,4.0556
 929586\C,0,7.2931531195,7.3744874409,0.9146394309\H,0,7.1931376092,8.2
 684814642,1.5426249448\C,0,8.7775353835,6.9674549361,0.8759353443\H,0,
 8.8978474334,6.0069587627,0.3554733068\H,0,9.3559145246,7.7194636203,0
 .3235410754\H,0,9.2226573533,6.8908720389,1.8760421403\C,0,6.795958744
 7,7.6924579588,-0.506487251\H,0,6.9118023727,6.8078384494,-1.146199471
 6\H,0,7.3667496991,8.5205456951,-0.9474458384\H,0,5.7338217345,7.97654
 53329,-0.5090675104\N,0,7.9217679002,5.7037612187,4.9098429793\H,0,8.4
 043311728,4.8684509737,4.5886236798\C,0,8.6732568139,6.5276340134,5.84
 68023907\H,0,7.993684935,7.2312806004,6.3326485805\C,0,9.8360353496,7.
 3529274909,5.1235674053\C,0,9.3771290348,5.6410129017,6.8843275364\H,0
 ,10.1135427323,5.0191521221,6.3533764826\H,0,8.6684153657,4.9576813753
 ,7.3831316401\O,0,10.1432769628,8.417041549,5.7232893669\C,0,10.084596
 4723,6.5327868979,7.9097571053\H,0,10.7843959078,7.1802727307,7.366083
 1237\H,0,9.3543127039,7.1991574199,8.3870564286\C,0,10.8340277596,5.75
 75831519,8.9865118854\H,0,10.1568197566,5.1394968717,9.5902808111\H,0,
 11.5964594879,5.1061541244,8.5347081976\N,0,11.4960497799,6.7444304491
 ,9.8754134645\H,0,11.7214188688,7.6184196093,9.4046062106\N,0,12.19577
 6462,5.2073744231,11.4664074918\H,0,12.8912576598,4.9500262335,12.1545
 170669\H,0,11.8680728048,4.4482834582,10.8825771942\N,0,12.931780244,7
 .4114972652,11.5792429938\H,0,13.2128891008,7.2530541414,12.5392410413
 \H,0,12.7010589422,8.3788220505,11.3848311244\C,0,12.204761085,6.45349
 34476,10.953949175\O,0,10.3482504847,6.7740705118,4.1428942671\H,0,2.6
 750304169,-2.168638232,2.1051104429\\Version=ES64L-G16RevC.01\HF=-3503
 .4047617\RMSD=1.644e-09\Dipole=-12.8531759,-11.8790438,2.0078513\Quadr
 upole=55.2087435,-334.0044469,278.7957034,11.7464261,531.8578241,135.1
 516332\PG=C01 [X(C43H75N14O14)]\\@
 The archive entry for this job was punched.


 WHEN ALL ELSE FAILS, LOOK AT THE SCHRODINGER EQUATION.
     -- RUSSELL T. PACK, APRIL 1978
 Job cpu time:       0 days  0 hours 10 minutes 53.9 seconds.
 Elapsed time:       0 days  0 hours  2 minutes 45.2 seconds.
 File lengths (MBytes):  RWF=    880 Int=      0 D2E=      0 Chk=    144 Scr=     16
 Normal termination of Gaussian 16 at Sun Jun 12 09:17:30 2022.
