 Entering Gaussian System, Link 0=/opt/software/Gaussian/g16-AVX2-C.01/g16/g16
 Input=charge-conf-112.com
 Output=charge-conf-112.log
 Initial command:
 /opt/software/Gaussian/g16-AVX2-C.01/g16/l1.exe "/mnt/gs18/scratch/users/kengmith/Gau-6200.inp" -scrdir="/mnt/gs18/scratch/users/kengmith/"
 Entering Link 1 = /opt/software/Gaussian/g16-AVX2-C.01/g16/l1.exe PID=      6210.
  
 Copyright (c) 1988-2019, Gaussian, Inc.  All Rights Reserved.
  
 This is part of the Gaussian(R) 16 program.  It is based on
 the Gaussian(R) 09 system (copyright 2009, Gaussian, Inc.),
 the Gaussian(R) 03 system (copyright 2003, Gaussian, Inc.),
 the Gaussian(R) 98 system (copyright 1998, Gaussian, Inc.),
 the Gaussian(R) 94 system (copyright 1995, Gaussian, Inc.),
 the Gaussian 92(TM) system (copyright 1992, Gaussian, Inc.),
 the Gaussian 90(TM) system (copyright 1990, Gaussian, Inc.),
 the Gaussian 88(TM) system (copyright 1988, Gaussian, Inc.),
 the Gaussian 86(TM) system (copyright 1986, Carnegie Mellon
 University), and the Gaussian 82(TM) system (copyright 1983,
 Carnegie Mellon University). Gaussian is a federally registered
 trademark of Gaussian, Inc.
  
 This software contains proprietary and confidential information,
 including trade secrets, belonging to Gaussian, Inc.
  
 This software is provided under written license and may be
 used, copied, transmitted, or stored only in accord with that
 written license.
  
 The following legend is applicable only to US Government
 contracts under FAR:
  
                    RESTRICTED RIGHTS LEGEND
  
 Use, reproduction and disclosure by the US Government is
 subject to restrictions as set forth in subparagraphs (a)
 and (c) of the Commercial Computer Software - Restricted
 Rights clause in FAR 52.227-19.
  
 Gaussian, Inc.
 340 Quinnipiac St., Bldg. 40, Wallingford CT 06492
  
  
 ---------------------------------------------------------------
 Warning -- This program may not be used in any manner that
 competes with the business of Gaussian, Inc. or will provide
 assistance to any competitor of Gaussian, Inc.  The licensee
 of this program is prohibited from giving any competitor of
 Gaussian, Inc. access to this program.  By using this program,
 the user acknowledges that Gaussian, Inc. is engaged in the
 business of creating and licensing software in the field of
 computational chemistry and represents and warrants to the
 licensee that it is not a competitor of Gaussian, Inc. and that
 it will not use this program in any manner prohibited above.
 ---------------------------------------------------------------
  

 Cite this work as:
 Gaussian 16, Revision C.01,
 M. J. Frisch, G. W. Trucks, H. B. Schlegel, G. E. Scuseria, 
 M. A. Robb, J. R. Cheeseman, G. Scalmani, V. Barone, 
 G. A. Petersson, H. Nakatsuji, X. Li, M. Caricato, A. V. Marenich, 
 J. Bloino, B. G. Janesko, R. Gomperts, B. Mennucci, H. P. Hratchian, 
 J. V. Ortiz, A. F. Izmaylov, J. L. Sonnenberg, D. Williams-Young, 
 F. Ding, F. Lipparini, F. Egidi, J. Goings, B. Peng, A. Petrone, 
 T. Henderson, D. Ranasinghe, V. G. Zakrzewski, J. Gao, N. Rega, 
 G. Zheng, W. Liang, M. Hada, M. Ehara, K. Toyota, R. Fukuda, 
 J. Hasegawa, M. Ishida, T. Nakajima, Y. Honda, O. Kitao, H. Nakai, 
 T. Vreven, K. Throssell, J. A. Montgomery, Jr., J. E. Peralta, 
 F. Ogliaro, M. J. Bearpark, J. J. Heyd, E. N. Brothers, K. N. Kudin, 
 V. N. Staroverov, T. A. Keith, R. Kobayashi, J. Normand, 
 K. Raghavachari, A. P. Rendell, J. C. Burant, S. S. Iyengar, 
 J. Tomasi, M. Cossi, J. M. Millam, M. Klene, C. Adamo, R. Cammi, 
 J. W. Ochterski, R. L. Martin, K. Morokuma, O. Farkas, 
 J. B. Foresman, and D. J. Fox, Gaussian, Inc., Wallingford CT, 2019.
 
 ******************************************
 Gaussian 16:  ES64L-G16RevC.01  3-Jul-2019
                19-Jun-2022 
 ******************************************
 %mem=8gb
 %nproc=4
 Will use up to    4 processors via shared memory.
 %chk=conf-112.chk
 -------------------------------------------------------------------
 # B3LYP/6-31G* guess=read geom=check nosymm integral(ultrafinegrid)
 -------------------------------------------------------------------
 1/29=2,38=1,172=1/1;
 2/12=2,15=1,40=1/2;
 3/5=1,6=6,7=1,11=2,14=-4,25=1,30=1,74=-5,75=-5,116=-2/1,2,3;
 4/5=1/1;
 5/5=2,38=6/2;
 6/7=2,8=2,9=2,10=2,28=1/1;
 99/5=1,9=1/99;
 ------------------------------------------------------
 Candidate Structure: Conf:112 Charge calc in gas phase
 ------------------------------------------------------
 Structure from the checkpoint file:  "conf-112.chk"
 Charge =  1 Multiplicity = 1
 Redundant internal coordinates found in file.  (old form).
 N,0,-10.5707791996,-1.7451697568,-6.3147512563
 H,0,-10.3832493337,-2.7109248582,-5.9582060207
 H,0,-10.2193658539,-1.0810709028,-5.5929748344
 H,0,-11.5583202917,-1.5829221172,-6.5214342397
 C,0,-9.6333200881,-1.563829579,-7.4798759528
 H,0,-10.1841710929,-1.6840328647,-8.4171964749
 C,0,-8.5946856228,-2.6998970926,-7.274233065
 C,0,-9.0310393825,-0.1376365599,-7.3229176181
 H,0,-9.7908581449,0.600111945,-7.6055279281
 H,0,-8.1628735038,-0.0121381202,-7.9724753761
 O,0,-8.7734052486,-3.4890748712,-6.346280044
 O,0,-8.7084308857,0.0678131996,-5.9662106177
 H,0,-7.7671763269,-0.1750755697,-5.8010141331
 N,0,-7.5334709997,-2.720755481,-8.1084010134
 H,0,-7.4415111276,-1.9132298832,-8.7157375312
 C,0,-6.2277838954,-3.1444212682,-7.568017024
 H,0,-6.4014246448,-4.0377983918,-6.9647782076
 C,0,-5.7566815275,-1.9660551657,-6.6760753997
 C,0,-5.2422752118,-3.4369321413,-8.7009232089
 H,0,-4.2802290514,-3.757901485,-8.29093008
 H,0,-5.0662902895,-2.5412576118,-9.3073752077
 H,0,-5.6268953411,-4.2317625351,-9.3461396713
 O,0,-6.1170451376,-0.8140815152,-6.9577376729
 N,0,-4.9835211811,-2.2733287642,-5.630136882
 H,0,-4.6685432278,-3.2221099108,-5.439550298
 C,0,-4.4550190498,-1.281773348,-4.7029834082
 H,0,-4.3150456356,-0.3429273793,-5.2466505201
 C,0,-3.1163563768,-1.8763953711,-4.2057064227
 C,0,-5.4222171191,-1.0440783806,-3.513646304
 H,0,-5.43228595,-1.9637048728,-2.9096121161
 O,0,-2.9995037117,-3.1012588651,-4.1364298137
 C,0,-5.0230575066,0.1517063489,-2.6510140696
 H,0,-4.0329320402,0.038511177,-2.2010615272
 H,0,-5.0314636901,1.0710883373,-3.247490039
 H,0,-5.7386771535,0.2763898792,-1.8289461872
 O,0,-6.7343421374,-0.8417891073,-4.0697553068
 H,0,-7.3161101418,-0.6077737741,-3.3294621346
 N,0,-2.1545236893,-0.9912264151,-3.8892498466
 H,0,-2.3634544732,0.0023319568,-3.8366305725
 C,0,-0.9084109257,-1.3469974145,-3.2101977905
 H,0,-1.0125191445,-2.3754116991,-2.8499993033
 C,0,-0.8122971204,-0.3505413859,-2.0323151905
 C,0,0.3203438779,-1.2602840969,-4.166549742
 H,0,0.4509469578,-0.1989724152,-4.4228417918
 O,0,-1.3410136254,0.7617362338,-2.133336044
 C,0,1.6070308037,-1.7638573601,-3.4932582806
 H,0,1.509905006,-2.8175413109,-3.1997411296
 H,0,1.8842634168,-1.1914825782,-2.604484416
 H,0,2.4445283832,-1.6993452342,-4.1956056854
 C,0,0.0629805052,-2.043484449,-5.4629065728
 H,0,-0.1273618765,-3.1025176067,-5.2526408122
 H,0,-0.7950477322,-1.6482649279,-6.0147290199
 H,0,0.9394920807,-1.9804798831,-6.1168231291
 N,0,-0.1636984655,-0.7781873313,-0.9306906613
 H,0,0.363843269,-1.6465625897,-0.9493258059
 C,0,0.1974502636,0.0934237629,0.1879402942
 H,0,0.0034881013,1.1236205836,-0.1257492487
 C,0,1.7048732623,-0.1544021848,0.4099905322
 C,0,-0.6301902333,-0.2251471,1.4698571105
 H,0,-0.3747505624,-1.2558330745,1.7582704125
 O,0,2.1626264742,-1.2897841842,0.2495136991
 C,0,-2.1434938755,-0.1695246344,1.1758848882
 H,0,-2.3520227672,-0.7940034816,0.2996968498
 H,0,-2.4170153501,0.8571865384,0.8949112013
 C,0,-0.2408310817,0.7132271302,2.6235150858
 H,0,-0.4795308113,1.7568001159,2.3776367235
 H,0,0.8253812853,0.6613041705,2.8600865102
 H,0,-0.7880925789,0.4571990946,3.5351431264
 C,0,-3.0286956114,-0.6453979748,2.3345288802
 H,0,-4.0817207486,-0.6682486655,2.0309241166
 H,0,-2.7543422808,-1.6587657212,2.6531244762
 H,0,-2.9581550663,0.0089369668,3.2094889895
 N,0,2.4455323313,0.9140944297,0.7572072555
 H,0,2.0158325802,1.8090581693,0.9718203408
 C,0,3.8604985551,0.8307131014,1.1075026982
 H,0,4.025348508,-0.0738210623,1.7022154629
 C,0,4.1402338197,2.0660226572,1.9891418045
 C,0,4.7548493373,0.7360695062,-0.1533876027
 H,0,4.2610310975,0.0659823983,-0.8624213913
 H,0,4.8303624955,1.7134501312,-0.6467949863
 O,0,3.2570222898,2.9288494358,2.1612897365
 C,0,6.178498379,0.1800256759,0.0582412129
 O,0,6.8437221489,-0.1284075732,-0.9332618953
 O,0,6.5772496897,0.0735332096,1.2892534339
 N,0,5.362000828,2.1356125713,2.5367799733
 H,0,6.0469519828,1.406751867,2.2640168318
 C,0,5.7408896062,3.2929911867,3.3157070157
 H,0,5.384856532,4.1834798822,2.7868630344
 C,0,7.260473727,3.3858052131,3.434585525
 C,0,5.1040609712,3.3140496065,4.7609582826
 H,0,5.8737974904,3.1383773951,5.519608285
 H,0,4.3993840473,2.4770384746,4.8169737884
 O,0,8.0257263748,2.4442862504,3.2148848586
 C,0,4.41652695,4.6074880202,5.0441027456
 C,0,4.6252479075,5.6282305439,5.946488416
 H,0,5.3691668948,5.6723300489,6.7321847113
 N,0,3.3395504496,5.0236618269,4.2836289809
 H,0,2.9810719407,4.4925934578,3.491910996
 C,0,2.9600566475,6.246039408,4.7559563309
 H,0,2.1318875309,6.799097605,4.332451594
 N,0,3.710958589,6.6436197305,5.7627690941
 N,0,7.6952297819,4.6068514613,3.8380942593
 H,0,6.9985395082,5.2658043267,4.1710252625
 C,0,9.0797771745,4.844953453,4.2267609674
 H,0,9.7071719181,4.6878835061,3.3426621739
 C,0,9.4878717036,3.8427218913,5.3276268563
 C,0,9.2083030398,6.2964662348,4.7308573785
 H,0,8.7420887498,6.954309556,3.9838768883
 H,0,8.6114000493,6.3784859984,5.648977339
 O,0,8.7371302964,3.5591125288,6.2554259333
 C,0,10.6417164099,6.7938726196,5.0068527176
 H,0,11.1314984027,6.0835955901,5.6877515945
 C,0,11.4882468695,6.8880726075,3.7275144262
 H,0,11.0351935208,7.5837707758,3.0094980035
 H,0,12.4949836687,7.2538501342,3.956726533
 H,0,11.6044284361,5.9215470531,3.2230166059
 C,0,10.5865085398,8.1560528184,5.7154454503
 H,0,10.0983228939,8.9089321452,5.083418482
 H,0,11.5945758202,8.5186377198,5.9452117128
 H,0,10.0274433094,8.0958913276,6.6561938702
 N,0,10.7356439948,3.32105212,5.1830612456
 H,0,11.3335648029,3.6376031075,4.4301301828
 C,0,11.3345390248,2.3848372743,6.11464954
 H,0,10.8388309362,2.5015165111,7.0831760027
 C,0,12.808984874,2.7422892643,6.2547075125
 C,0,11.1891798341,0.9196481294,5.6251219177
 H,0,11.8562683303,0.2751544701,6.2103402266
 H,0,11.5351834333,0.8920056013,4.5831790307
 O,0,13.4226393696,3.4454787821,5.4812739568
 C,0,9.7444523426,0.4013268009,5.7121881035
 H,0,9.5398093825,0.0489139739,6.7302923757
 H,0,9.0350740967,1.2118528201,5.5241035048
 C,0,9.4477549169,-0.7416794597,4.7373887487
 H,0,10.2122468182,-1.5214861325,4.8001528375
 H,0,8.4917443384,-1.2139165042,5.0008468144
 N,0,9.3728238847,-0.2488221607,3.3549898997
 H,0,8.7315151107,0.5318934989,3.1982751387
 N,0,10.6835356199,-1.8890973722,2.3264915601
 H,0,10.9198327956,-2.3964379363,1.486110094
 H,0,11.4448242891,-1.7393852102,2.9730442815
 N,0,9.0398846763,-0.7233257337,1.1319410295
 H,0,9.3504191032,-1.1107259862,0.250757785
 H,0,8.0182448325,-0.3409537697,1.1620113155
 C,0,9.6934969494,-0.95245761,2.2504381845
 O,0,13.3700582733,2.1437155469,7.3239297979
 H,0,14.3136172313,2.3954715713,7.3270332992
 Recover connectivity data from disk.
                           ----------------------------
                           !    Current Parameters    !
                           ! (Angstroms and Degrees)  !
 --------------------------                            --------------------------
 ! Name  Definition              Value                                          !
 --------------------------------------------------------------------------------
 ! R1    R(1,2)                  1.0464                                         !
 ! R2    R(1,3)                  1.0419                                         !
 ! R3    R(1,4)                  1.0219                                         !
 ! R4    R(1,5)                  1.5064                                         !
 ! R5    R(5,6)                  1.0938                                         !
 ! R6    R(5,7)                  1.553                                          !
 ! R7    R(5,8)                  1.5561                                         !
 ! R8    R(7,11)                 1.2312                                         !
 ! R9    R(7,14)                 1.35                                           !
 ! R10   R(8,9)                  1.0961                                         !
 ! R11   R(8,10)                 1.0915                                         !
 ! R12   R(8,12)                 1.4096                                         !
 ! R13   R(12,13)                0.986                                          !
 ! R14   R(14,15)                1.0146                                         !
 ! R15   R(14,16)                1.4752                                         !
 ! R16   R(16,17)                1.0919                                         !
 ! R17   R(16,18)                1.5511                                         !
 ! R18   R(16,19)                1.5298                                         !
 ! R19   R(18,23)                1.2395                                         !
 ! R20   R(18,24)                1.3365                                         !
 ! R21   R(19,20)                1.0939                                         !
 ! R22   R(19,21)                1.0959                                         !
 ! R23   R(19,22)                1.0936                                         !
 ! R24   R(24,25)                1.0177                                         !
 ! R25   R(24,26)                1.4567                                         !
 ! R26   R(26,27)                1.0939                                         !
 ! R27   R(26,28)                1.5469                                         !
 ! R28   R(26,29)                1.5513                                         !
 ! R29   R(28,31)                1.2324                                         !
 ! R30   R(28,38)                1.3449                                         !
 ! R31   R(29,30)                1.1003                                         !
 ! R32   R(29,32)                1.5275                                         !
 ! R33   R(29,36)                1.4394                                         !
 ! R34   R(32,33)                1.0934                                         !
 ! R35   R(32,34)                1.096                                          !
 ! R36   R(32,35)                1.097                                          !
 ! R37   R(36,37)                0.9702                                         !
 ! R38   R(38,39)                1.0167                                         !
 ! R39   R(38,40)                1.463                                          !
 ! R40   R(40,41)                1.0946                                         !
 ! R41   R(40,42)                1.5458                                         !
 ! R42   R(40,43)                1.5595                                         !
 ! R43   R(42,45)                1.2357                                         !
 ! R44   R(42,54)                1.348                                          !
 ! R45   R(43,44)                1.0996                                         !
 ! R46   R(43,46)                1.537                                          !
 ! R47   R(43,50)                1.5363                                         !
 ! R48   R(46,47)                1.0981                                         !
 ! R49   R(46,48)                1.0929                                         !
 ! R50   R(46,49)                1.0949                                         !
 ! R51   R(50,51)                1.0964                                         !
 ! R52   R(50,52)                1.094                                          !
 ! R53   R(50,53)                1.0954                                         !
 ! R54   R(54,55)                1.0162                                         !
 ! R55   R(54,56)                1.4634                                         !
 ! R56   R(56,57)                1.0942                                         !
 ! R57   R(56,58)                1.5437                                         !
 ! R58   R(56,59)                1.5588                                         !
 ! R59   R(58,61)                1.2347                                         !
 ! R60   R(58,73)                1.3457                                         !
 ! R61   R(59,60)                1.1003                                         !
 ! R62   R(59,62)                1.5426                                         !
 ! R63   R(59,65)                1.5372                                         !
 ! R64   R(62,63)                1.096                                          !
 ! R65   R(62,64)                1.099                                          !
 ! R66   R(62,69)                1.5338                                         !
 ! R67   R(65,66)                1.0984                                         !
 ! R68   R(65,67)                1.0934                                         !
 ! R69   R(65,68)                1.0937                                         !
 ! R70   R(69,70)                1.0962                                         !
 ! R71   R(69,71)                1.0971                                         !
 ! R72   R(69,72)                1.0948                                         !
 ! R73   R(73,74)                1.0157                                         !
 ! R74   R(73,75)                1.4601                                         !
 ! R75   R(75,76)                1.095                                          !
 ! R76   R(75,77)                1.5432                                         !
 ! R77   R(75,78)                1.5488                                         !
 ! R78   R(77,81)                1.2467                                         !
 ! R79   R(77,85)                1.3407                                         !
 ! R80   R(78,79)                1.0934                                         !
 ! R81   R(78,80)                1.0975                                         !
 ! R82   R(78,82)                1.543                                          !
 ! R83   R(82,83)                1.2332                                         !
 ! R84   R(82,84)                1.2984                                         !
 ! R85   R(85,86)                1.0367                                         !
 ! R86   R(85,87)                1.4456                                         !
 ! R87   R(87,88)                1.0952                                         !
 ! R88   R(87,89)                1.5271                                         !
 ! R89   R(87,90)                1.5795                                         !
 ! R90   R(89,93)                1.233                                          !
 ! R91   R(89,102)               1.3575                                         !
 ! R92   R(90,91)                1.0949                                         !
 ! R93   R(90,92)                1.0956                                         !
 ! R94   R(90,94)                1.4919                                         !
 ! R95   R(94,95)                1.3783                                         !
 ! R96   R(94,97)                1.3825                                         !
 ! R97   R(95,96)                1.0829                                         !
 ! R98   R(95,101)               1.3787                                         !
 ! R99   R(97,98)                1.0185                                         !
 ! R100  R(97,99)                1.3643                                         !
 ! R101  R(99,100)               1.0822                                         !
 ! R102  R(99,101)               1.3174                                         !
 ! R103  R(102,103)              1.0151                                         !
 ! R104  R(102,104)              1.4576                                         !
 ! R105  R(104,105)              1.0954                                         !
 ! R106  R(104,106)              1.5437                                         !
 ! R107  R(104,107)              1.5419                                         !
 ! R108  R(106,110)              1.2267                                         !
 ! R109  R(106,121)              1.3601                                         !
 ! R110  R(107,108)              1.0991                                         !
 ! R111  R(107,109)              1.0982                                         !
 ! R112  R(107,111)              1.5422                                         !
 ! R113  R(111,112)              1.0991                                         !
 ! R114  R(111,113)              1.5369                                         !
 ! R115  R(111,117)              1.5365                                         !
 ! R116  R(113,114)              1.0976                                         !
 ! R117  R(113,115)              1.0954                                         !
 ! R118  R(113,116)              1.0964                                         !
 ! R119  R(117,118)              1.0975                                         !
 ! R120  R(117,119)              1.0957                                         !
 ! R121  R(117,120)              1.096                                          !
 ! R122  R(121,122)              1.0122                                         !
 ! R123  R(121,123)              1.4502                                         !
 ! R124  R(123,124)              1.0943                                         !
 ! R125  R(123,125)              1.5236                                         !
 ! R126  R(123,126)              1.5516                                         !
 ! R127  R(125,129)              1.2121                                         !
 ! R128  R(125,145)              1.3477                                         !
 ! R129  R(126,127)              1.0967                                         !
 ! R130  R(126,128)              1.0982                                         !
 ! R131  R(126,130)              1.5374                                         !
 ! R132  R(130,131)              1.0966                                         !
 ! R133  R(130,132)              1.0934                                         !
 ! R134  R(130,133)              1.5312                                         !
 ! R135  R(133,134)              1.0938                                         !
 ! R136  R(133,135)              1.0984                                         !
 ! R137  R(133,136)              1.4695                                         !
 ! R138  R(136,137)              1.0224                                         !
 ! R139  R(136,144)              1.3483                                         !
 ! R140  R(138,139)              1.0097                                         !
 ! R141  R(138,140)              1.01                                           !
 ! R142  R(138,144)              1.365                                          !
 ! R143  R(141,142)              1.0114                                         !
 ! R144  R(141,143)              1.0913                                         !
 ! R145  R(141,144)              1.3156                                         !
 ! R146  R(145,146)              0.9766                                         !
 ! A1    A(2,1,3)              106.9649                                         !
 ! A2    A(2,1,4)              112.8695                                         !
 ! A3    A(2,1,5)              105.2549                                         !
 ! A4    A(3,1,4)              111.3993                                         !
 ! A5    A(3,1,5)              104.4297                                         !
 ! A6    A(4,1,5)              115.2044                                         !
 ! A7    A(1,5,6)              109.6429                                         !
 ! A8    A(1,5,7)              103.0457                                         !
 ! A9    A(1,5,8)              105.8538                                         !
 ! A10   A(6,5,7)              111.709                                          !
 ! A11   A(6,5,8)              112.4621                                         !
 ! A12   A(7,5,8)              113.4697                                         !
 ! A13   A(5,7,11)             118.1403                                         !
 ! A14   A(5,7,14)             117.0795                                         !
 ! A15   A(11,7,14)            124.7451                                         !
 ! A16   A(5,8,9)              108.8184                                         !
 ! A17   A(5,8,10)             110.6835                                         !
 ! A18   A(5,8,12)             108.6176                                         !
 ! A19   A(9,8,10)             108.6952                                         !
 ! A20   A(9,8,12)             107.9813                                         !
 ! A21   A(10,8,12)            111.9614                                         !
 ! A22   A(8,12,13)            110.1101                                         !
 ! A23   A(7,14,15)            115.3934                                         !
 ! A24   A(7,14,16)            118.2841                                         !
 ! A25   A(15,14,16)           111.5689                                         !
 ! A26   A(14,16,17)           107.2536                                         !
 ! A27   A(14,16,18)           105.1456                                         !
 ! A28   A(14,16,19)           110.7207                                         !
 ! A29   A(17,16,18)           110.621                                          !
 ! A30   A(17,16,19)           110.8026                                         !
 ! A31   A(18,16,19)           112.0516                                         !
 ! A32   A(16,18,23)           119.1491                                         !
 ! A33   A(16,18,24)           116.8115                                         !
 ! A34   A(23,18,24)           124.037                                          !
 ! A35   A(16,19,20)           110.1878                                         !
 ! A36   A(16,19,21)           110.9155                                         !
 ! A37   A(16,19,22)           110.446                                          !
 ! A38   A(20,19,21)           107.8174                                         !
 ! A39   A(20,19,22)           108.492                                          !
 ! A40   A(21,19,22)           108.9047                                         !
 ! A41   A(18,24,25)           122.6801                                         !
 ! A42   A(18,24,26)           123.4686                                         !
 ! A43   A(25,24,26)           113.7717                                         !
 ! A44   A(24,26,27)           108.3181                                         !
 ! A45   A(24,26,28)           104.887                                          !
 ! A46   A(24,26,29)           111.4724                                         !
 ! A47   A(27,26,28)           112.2687                                         !
 ! A48   A(27,26,29)           109.2272                                         !
 ! A49   A(28,26,29)           110.609                                          !
 ! A50   A(26,28,31)           118.828                                          !
 ! A51   A(26,28,38)           116.2022                                         !
 ! A52   A(31,28,38)           124.9675                                         !
 ! A53   A(26,29,30)           107.369                                          !
 ! A54   A(26,29,32)           112.9536                                         !
 ! A55   A(26,29,36)           107.0785                                         !
 ! A56   A(30,29,32)           110.2826                                         !
 ! A57   A(30,29,36)           108.7363                                         !
 ! A58   A(32,29,36)           110.2654                                         !
 ! A59   A(29,32,33)           112.8278                                         !
 ! A60   A(29,32,34)           110.3248                                         !
 ! A61   A(29,32,35)           109.9802                                         !
 ! A62   A(33,32,34)           108.5268                                         !
 ! A63   A(33,32,35)           107.1033                                         !
 ! A64   A(34,32,35)           107.9083                                         !
 ! A65   A(29,36,37)           106.6022                                         !
 ! A66   A(28,38,39)           120.5585                                         !
 ! A67   A(28,38,40)           123.9376                                         !
 ! A68   A(39,38,40)           112.8714                                         !
 ! A69   A(38,40,41)           107.4687                                         !
 ! A70   A(38,40,42)           104.4697                                         !
 ! A71   A(38,40,43)           111.8974                                         !
 ! A72   A(41,40,42)           111.1491                                         !
 ! A73   A(41,40,43)           109.2066                                         !
 ! A74   A(42,40,43)           112.4856                                         !
 ! A75   A(40,42,45)           119.4286                                         !
 ! A76   A(40,42,54)           116.6233                                         !
 ! A77   A(45,42,54)           123.9344                                         !
 ! A78   A(40,43,44)           106.8692                                         !
 ! A79   A(40,43,46)           111.8849                                         !
 ! A80   A(40,43,50)           110.9243                                         !
 ! A81   A(44,43,46)           108.5957                                         !
 ! A82   A(44,43,50)           108.3771                                         !
 ! A83   A(46,43,50)           110.0504                                         !
 ! A84   A(43,46,47)           110.9417                                         !
 ! A85   A(43,46,48)           113.3909                                         !
 ! A86   A(43,46,49)           109.8779                                         !
 ! A87   A(47,46,48)           107.915                                          !
 ! A88   A(47,46,49)           107.1964                                         !
 ! A89   A(48,46,49)           107.2637                                         !
 ! A90   A(43,50,51)           111.0816                                         !
 ! A91   A(43,50,52)           111.8907                                         !
 ! A92   A(43,50,53)           109.8995                                         !
 ! A93   A(51,50,52)           108.0306                                         !
 ! A94   A(51,50,53)           107.9976                                         !
 ! A95   A(52,50,53)           107.7993                                         !
 ! A96   A(42,54,55)           120.3893                                         !
 ! A97   A(42,54,56)           123.6755                                         !
 ! A98   A(55,54,56)           113.2574                                         !
 ! A99   A(54,56,57)           107.3301                                         !
 ! A100  A(54,56,58)           104.7929                                         !
 ! A101  A(54,56,59)           112.079                                          !
 ! A102  A(57,56,58)           111.4368                                         !
 ! A103  A(57,56,59)           109.5151                                         !
 ! A104  A(58,56,59)           111.5535                                         !
 ! A105  A(56,58,61)           119.4044                                         !
 ! A106  A(56,58,73)           116.5582                                         !
 ! A107  A(61,58,73)           124.0319                                         !
 ! A108  A(56,59,60)           106.4832                                         !
 ! A109  A(56,59,62)           110.9027                                         !
 ! A110  A(56,59,65)           110.974                                          !
 ! A111  A(60,59,62)           108.1475                                         !
 ! A112  A(60,59,65)           108.4382                                         !
 ! A113  A(62,59,65)           111.6838                                         !
 ! A114  A(59,62,63)           108.5699                                         !
 ! A115  A(59,62,64)           109.0596                                         !
 ! A116  A(59,62,69)           114.2696                                         !
 ! A117  A(63,62,64)           106.2934                                         !
 ! A118  A(63,62,69)           108.5015                                         !
 ! A119  A(64,62,69)           109.8362                                         !
 ! A120  A(59,65,66)           110.9114                                         !
 ! A121  A(59,65,67)           112.3575                                         !
 ! A122  A(59,65,68)           110.8497                                         !
 ! A123  A(66,65,67)           107.7864                                         !
 ! A124  A(66,65,68)           107.4735                                         !
 ! A125  A(67,65,68)           107.2468                                         !
 ! A126  A(62,69,70)           110.5892                                         !
 ! A127  A(62,69,71)           111.1996                                         !
 ! A128  A(62,69,72)           112.4011                                         !
 ! A129  A(70,69,71)           107.5418                                         !
 ! A130  A(70,69,72)           107.1995                                         !
 ! A131  A(71,69,72)           107.6885                                         !
 ! A132  A(58,73,74)           121.4198                                         !
 ! A133  A(58,73,75)           123.3644                                         !
 ! A134  A(74,73,75)           114.1806                                         !
 ! A135  A(73,75,76)           108.8671                                         !
 ! A136  A(73,75,77)           105.487                                          !
 ! A137  A(73,75,78)           111.5795                                         !
 ! A138  A(76,75,77)           108.8848                                         !
 ! A139  A(76,75,78)           107.7431                                         !
 ! A140  A(77,75,78)           114.1641                                         !
 ! A141  A(75,77,81)           120.2971                                         !
 ! A142  A(75,77,85)           116.1101                                         !
 ! A143  A(81,77,85)           123.5928                                         !
 ! A144  A(75,78,79)           107.7325                                         !
 ! A145  A(75,78,80)           110.5689                                         !
 ! A146  A(75,78,82)           116.306                                          !
 ! A147  A(79,78,80)           106.5776                                         !
 ! A148  A(79,78,82)           106.5462                                         !
 ! A149  A(80,78,82)           108.6097                                         !
 ! A150  A(78,82,83)           118.5274                                         !
 ! A151  A(78,82,84)           116.2936                                         !
 ! A152  A(83,82,84)           125.1788                                         !
 ! A153  A(77,85,86)           117.2658                                         !
 ! A154  A(77,85,87)           120.0328                                         !
 ! A155  A(86,85,87)           122.1045                                         !
 ! A156  A(85,87,88)           107.7934                                         !
 ! A157  A(85,87,89)           110.5742                                         !
 ! A158  A(85,87,90)           113.4551                                         !
 ! A159  A(88,87,89)           108.1602                                         !
 ! A160  A(88,87,90)           107.4537                                         !
 ! A161  A(89,87,90)           109.2187                                         !
 ! A162  A(87,89,93)           123.8704                                         !
 ! A163  A(87,89,102)          113.3601                                         !
 ! A164  A(93,89,102)          122.7541                                         !
 ! A165  A(87,90,91)           110.39                                           !
 ! A166  A(87,90,92)           107.2133                                         !
 ! A167  A(87,90,94)           111.7785                                         !
 ! A168  A(91,90,92)           107.1075                                         !
 ! A169  A(91,90,94)           109.3636                                         !
 ! A170  A(92,90,94)           110.869                                          !
 ! A171  A(90,94,95)           134.1473                                         !
 ! A172  A(90,94,97)           121.0353                                         !
 ! A173  A(95,94,97)           104.7829                                         !
 ! A174  A(94,95,96)           127.5317                                         !
 ! A175  A(94,95,101)          110.9629                                         !
 ! A176  A(96,95,101)          121.4848                                         !
 ! A177  A(94,97,98)           123.0106                                         !
 ! A178  A(94,97,99)           107.215                                          !
 ! A179  A(98,97,99)           129.6719                                         !
 ! A180  A(97,99,100)          122.3632                                         !
 ! A181  A(97,99,101)          112.1126                                         !
 ! A182  A(100,99,101)         125.524                                          !
 ! A183  A(95,101,99)          104.9258                                         !
 ! A184  A(89,102,103)         117.4894                                         !
 ! A185  A(89,102,104)         122.0318                                         !
 ! A186  A(103,102,104)        117.2851                                         !
 ! A187  A(102,104,105)        107.7823                                         !
 ! A188  A(102,104,106)        109.5853                                         !
 ! A189  A(102,104,107)        108.6699                                         !
 ! A190  A(105,104,106)        109.3335                                         !
 ! A191  A(105,104,107)        110.5547                                         !
 ! A192  A(106,104,107)        110.8548                                         !
 ! A193  A(104,106,110)        121.849                                          !
 ! A194  A(104,106,121)        114.5661                                         !
 ! A195  A(110,106,121)        123.583                                          !
 ! A196  A(104,107,108)        107.8111                                         !
 ! A197  A(104,107,109)        107.3573                                         !
 ! A198  A(104,107,111)        116.0792                                         !
 ! A199  A(108,107,109)        107.0335                                         !
 ! A200  A(108,107,111)        108.8347                                         !
 ! A201  A(109,107,111)        109.36                                           !
 ! A202  A(107,111,112)        108.4595                                         !
 ! A203  A(107,111,113)        112.5039                                         !
 ! A204  A(107,111,117)        109.5782                                         !
 ! A205  A(112,111,113)        108.0495                                         !
 ! A206  A(112,111,117)        107.6524                                         !
 ! A207  A(113,111,117)        110.447                                          !
 ! A208  A(111,113,114)        110.8556                                         !
 ! A209  A(111,113,115)        110.6405                                         !
 ! A210  A(111,113,116)        112.7889                                         !
 ! A211  A(114,113,115)        107.7334                                         !
 ! A212  A(114,113,116)        107.5455                                         !
 ! A213  A(115,113,116)        107.053                                          !
 ! A214  A(111,117,118)        111.0121                                         !
 ! A215  A(111,117,119)        110.919                                          !
 ! A216  A(111,117,120)        111.44                                           !
 ! A217  A(118,117,119)        107.6375                                         !
 ! A218  A(118,117,120)        107.7613                                         !
 ! A219  A(119,117,120)        107.9079                                         !
 ! A220  A(106,121,122)        120.0669                                         !
 ! A221  A(106,121,123)        123.9308                                         !
 ! A222  A(122,121,123)        115.8348                                         !
 ! A223  A(121,123,124)        108.2198                                         !
 ! A224  A(121,123,125)        107.8933                                         !
 ! A225  A(121,123,126)        111.6084                                         !
 ! A226  A(124,123,125)        109.3911                                         !
 ! A227  A(124,123,126)        109.7243                                         !
 ! A228  A(125,123,126)        109.95                                           !
 ! A229  A(123,125,129)        124.5675                                         !
 ! A230  A(123,125,145)        111.8151                                         !
 ! A231  A(129,125,145)        123.5815                                         !
 ! A232  A(123,126,127)        109.2431                                         !
 ! A233  A(123,126,128)        107.072                                          !
 ! A234  A(123,126,130)        112.8636                                         !
 ! A235  A(127,126,128)        107.4469                                         !
 ! A236  A(127,126,130)        110.075                                          !
 ! A237  A(128,126,130)        109.957                                          !
 ! A238  A(126,130,131)        109.651                                          !
 ! A239  A(126,130,132)        110.4885                                         !
 ! A240  A(126,130,133)        113.4345                                         !
 ! A241  A(131,130,132)        106.0721                                         !
 ! A242  A(131,130,133)        108.3596                                         !
 ! A243  A(132,130,133)        108.5492                                         !
 ! A244  A(130,133,134)        111.1126                                         !
 ! A245  A(130,133,135)        109.6875                                         !
 ! A246  A(130,133,136)        111.0012                                         !
 ! A247  A(134,133,135)        106.7415                                         !
 ! A248  A(134,133,136)        109.1905                                         !
 ! A249  A(135,133,136)        108.9934                                         !
 ! A250  A(133,136,137)        115.6115                                         !
 ! A251  A(133,136,144)        125.6956                                         !
 ! A252  A(137,136,144)        114.9673                                         !
 ! A253  A(139,138,140)        115.5253                                         !
 ! A254  A(139,138,144)        117.9144                                         !
 ! A255  A(140,138,144)        118.7292                                         !
 ! A256  A(142,141,143)        116.465                                          !
 ! A257  A(142,141,144)        121.4303                                         !
 ! A258  A(143,141,144)        120.1805                                         !
 ! A259  A(136,144,138)        119.0088                                         !
 ! A260  A(136,144,141)        119.1719                                         !
 ! A261  A(138,144,141)        121.8182                                         !
 ! A262  A(125,145,146)        106.8738                                         !
 ! D1    D(2,1,5,6)            102.2224                                         !
 ! D2    D(2,1,5,7)            -16.8462                                         !
 ! D3    D(2,1,5,8)           -136.2383                                         !
 ! D4    D(3,1,5,6)           -145.2909                                         !
 ! D5    D(3,1,5,7)             95.6405                                         !
 ! D6    D(3,1,5,8)            -23.7516                                         !
 ! D7    D(4,1,5,6)            -22.7774                                         !
 ! D8    D(4,1,5,7)           -141.846                                          !
 ! D9    D(4,1,5,8)             98.7619                                         !
 ! D10   D(1,5,7,11)             4.0325                                         !
 ! D11   D(1,5,7,14)          -173.9159                                         !
 ! D12   D(6,5,7,11)          -113.5907                                         !
 ! D13   D(6,5,7,14)            68.4609                                         !
 ! D14   D(8,5,7,11)           118.0061                                         !
 ! D15   D(8,5,7,14)           -59.9423                                         !
 ! D16   D(1,5,8,9)            -74.7783                                         !
 ! D17   D(1,5,8,10)           165.8401                                         !
 ! D18   D(1,5,8,12)            42.5413                                         !
 ! D19   D(6,5,8,9)             44.9276                                         !
 ! D20   D(6,5,8,10)           -74.4541                                         !
 ! D21   D(6,5,8,12)           162.2471                                         !
 ! D22   D(7,5,8,9)            172.9426                                         !
 ! D23   D(7,5,8,10)            53.5609                                         !
 ! D24   D(7,5,8,12)           -69.7379                                         !
 ! D25   D(5,7,14,15)            8.211                                          !
 ! D26   D(5,7,14,16)          144.0624                                         !
 ! D27   D(11,7,14,15)        -169.5873                                         !
 ! D28   D(11,7,14,16)         -33.7359                                         !
 ! D29   D(5,8,12,13)           93.275                                          !
 ! D30   D(9,8,12,13)         -148.8725                                         !
 ! D31   D(10,8,12,13)         -29.2532                                         !
 ! D32   D(7,14,16,17)          45.0351                                         !
 ! D33   D(7,14,16,18)         -72.7473                                         !
 ! D34   D(7,14,16,19)         166.0383                                         !
 ! D35   D(15,14,16,17)       -177.5439                                         !
 ! D36   D(15,14,16,18)         64.6737                                         !
 ! D37   D(15,14,16,19)        -56.5407                                         !
 ! D38   D(14,16,18,23)        -29.3587                                         !
 ! D39   D(14,16,18,24)        150.1053                                         !
 ! D40   D(17,16,18,23)       -144.8365                                         !
 ! D41   D(17,16,18,24)         34.6274                                         !
 ! D42   D(19,16,18,23)         90.9805                                         !
 ! D43   D(19,16,18,24)        -89.5555                                         !
 ! D44   D(14,16,19,20)       -179.5427                                         !
 ! D45   D(14,16,19,21)         61.1476                                         !
 ! D46   D(14,16,19,22)        -59.6927                                         !
 ! D47   D(17,16,19,20)        -60.6649                                         !
 ! D48   D(17,16,19,21)       -179.9746                                         !
 ! D49   D(17,16,19,22)         59.185                                          !
 ! D50   D(18,16,19,20)         63.4167                                         !
 ! D51   D(18,16,19,21)        -55.8929                                         !
 ! D52   D(18,16,19,22)       -176.7333                                         !
 ! D53   D(16,18,24,25)          3.1295                                         !
 ! D54   D(16,18,24,26)        179.6809                                         !
 ! D55   D(23,18,24,25)       -177.4355                                         !
 ! D56   D(23,18,24,26)         -0.8841                                         !
 ! D57   D(18,24,26,27)        -30.0342                                         !
 ! D58   D(18,24,26,28)       -150.1039                                         !
 ! D59   D(18,24,26,29)         90.1639                                         !
 ! D60   D(25,24,26,27)        146.7943                                         !
 ! D61   D(25,24,26,28)         26.7246                                         !
 ! D62   D(25,24,26,29)        -93.0076                                         !
 ! D63   D(24,26,28,31)        -30.4057                                         !
 ! D64   D(24,26,28,38)        149.0634                                         !
 ! D65   D(27,26,28,31)       -147.8106                                         !
 ! D66   D(27,26,28,38)         31.6585                                         !
 ! D67   D(29,26,28,31)         89.9013                                         !
 ! D68   D(29,26,28,38)        -90.6296                                         !
 ! D69   D(24,26,29,30)         68.0428                                         !
 ! D70   D(24,26,29,32)       -170.1599                                         !
 ! D71   D(24,26,29,36)        -48.5843                                         !
 ! D72   D(27,26,29,30)       -172.2958                                         !
 ! D73   D(27,26,29,32)        -50.4985                                         !
 ! D74   D(27,26,29,36)         71.0771                                         !
 ! D75   D(28,26,29,30)        -48.2446                                         !
 ! D76   D(28,26,29,32)         73.5527                                         !
 ! D77   D(28,26,29,36)       -164.8717                                         !
 ! D78   D(26,28,38,39)          9.7962                                         !
 ! D79   D(26,28,38,40)        170.0739                                         !
 ! D80   D(31,28,38,39)       -170.7714                                         !
 ! D81   D(31,28,38,40)        -10.4937                                         !
 ! D82   D(26,29,32,33)        -60.6299                                         !
 ! D83   D(26,29,32,34)         60.9411                                         !
 ! D84   D(26,29,32,35)        179.8608                                         !
 ! D85   D(30,29,32,33)         59.5119                                         !
 ! D86   D(30,29,32,34)       -178.917                                          !
 ! D87   D(30,29,32,35)        -59.9974                                         !
 ! D88   D(36,29,32,33)        179.611                                          !
 ! D89   D(36,29,32,34)        -58.818                                          !
 ! D90   D(36,29,32,35)         60.1017                                         !
 ! D91   D(26,29,36,37)       -174.5595                                         !
 ! D92   D(30,29,36,37)         69.7201                                         !
 ! D93   D(32,29,36,37)        -51.3068                                         !
 ! D94   D(28,38,40,41)        -11.119                                          !
 ! D95   D(28,38,40,42)       -129.2728                                         !
 ! D96   D(28,38,40,43)        108.7613                                         !
 ! D97   D(39,38,40,41)        150.4968                                         !
 ! D98   D(39,38,40,42)         32.343                                          !
 ! D99   D(39,38,40,43)        -89.623                                          !
 ! D100  D(38,40,42,45)        -28.0853                                         !
 ! D101  D(38,40,42,54)        150.6205                                         !
 ! D102  D(41,40,42,45)       -143.6949                                         !
 ! D103  D(41,40,42,54)         35.0108                                         !
 ! D104  D(43,40,42,45)         93.4933                                         !
 ! D105  D(43,40,42,54)        -87.8009                                         !
 ! D106  D(38,40,43,44)         66.7891                                         !
 ! D107  D(38,40,43,46)       -174.4658                                         !
 ! D108  D(38,40,43,50)        -51.1574                                         !
 ! D109  D(41,40,43,44)       -174.3542                                         !
 ! D110  D(41,40,43,46)        -55.6091                                         !
 ! D111  D(41,40,43,50)         67.6993                                         !
 ! D112  D(42,40,43,44)        -50.4579                                         !
 ! D113  D(42,40,43,46)         68.2872                                         !
 ! D114  D(42,40,43,50)       -168.4044                                         !
 ! D115  D(40,42,54,55)         10.0926                                         !
 ! D116  D(40,42,54,56)        170.2802                                         !
 ! D117  D(45,42,54,55)       -171.2661                                         !
 ! D118  D(45,42,54,56)        -11.0785                                         !
 ! D119  D(40,43,46,47)         60.9974                                         !
 ! D120  D(40,43,46,48)        -60.6298                                         !
 ! D121  D(40,43,46,49)        179.3555                                         !
 ! D122  D(44,43,46,47)        178.7141                                         !
 ! D123  D(44,43,46,48)         57.0869                                         !
 ! D124  D(44,43,46,49)        -62.9277                                         !
 ! D125  D(50,43,46,47)        -62.8033                                         !
 ! D126  D(50,43,46,48)        175.5695                                         !
 ! D127  D(50,43,46,49)         55.5549                                         !
 ! D128  D(40,43,50,51)        -59.9384                                         !
 ! D129  D(40,43,50,52)         60.8855                                         !
 ! D130  D(40,43,50,53)       -179.3916                                         !
 ! D131  D(44,43,50,51)       -176.9641                                         !
 ! D132  D(44,43,50,52)        -56.1402                                         !
 ! D133  D(44,43,50,53)         63.5826                                         !
 ! D134  D(46,43,50,51)         64.4189                                         !
 ! D135  D(46,43,50,52)       -174.7572                                         !
 ! D136  D(46,43,50,53)        -55.0344                                         !
 ! D137  D(42,54,56,57)         -9.545                                          !
 ! D138  D(42,54,56,58)       -128.1248                                         !
 ! D139  D(42,54,56,59)        110.7339                                         !
 ! D140  D(55,54,56,57)        151.8989                                         !
 ! D141  D(55,54,56,58)         33.3191                                         !
 ! D142  D(55,54,56,59)        -87.8222                                         !
 ! D143  D(54,56,58,61)        -36.0574                                         !
 ! D144  D(54,56,58,73)        143.1285                                         !
 ! D145  D(57,56,58,61)       -151.8218                                         !
 ! D146  D(57,56,58,73)         27.3641                                         !
 ! D147  D(59,56,58,61)         85.4297                                         !
 ! D148  D(59,56,58,73)        -95.3844                                         !
 ! D149  D(54,56,59,60)         62.7464                                         !
 ! D150  D(54,56,59,62)        -54.6861                                         !
 ! D151  D(54,56,59,65)       -179.4352                                         !
 ! D152  D(57,56,59,60)       -178.254                                          !
 ! D153  D(57,56,59,62)         64.3135                                         !
 ! D154  D(57,56,59,65)        -60.4356                                         !
 ! D155  D(58,56,59,60)        -54.4129                                         !
 ! D156  D(58,56,59,62)       -171.8454                                         !
 ! D157  D(58,56,59,65)         63.4055                                         !
 ! D158  D(56,58,73,74)          7.2321                                         !
 ! D159  D(56,58,73,75)        174.9115                                         !
 ! D160  D(61,58,73,74)       -173.6237                                         !
 ! D161  D(61,58,73,75)         -5.9443                                         !
 ! D162  D(56,59,62,63)         51.3059                                         !
 ! D163  D(56,59,62,64)        -64.1109                                         !
 ! D164  D(56,59,62,69)        172.55                                           !
 ! D165  D(60,59,62,63)        -65.1047                                         !
 ! D166  D(60,59,62,64)        179.4785                                         !
 ! D167  D(60,59,62,69)         56.1394                                         !
 ! D168  D(65,59,62,63)        175.6525                                         !
 ! D169  D(65,59,62,64)         60.2357                                         !
 ! D170  D(65,59,62,69)        -63.1034                                         !
 ! D171  D(56,59,65,66)         63.3938                                         !
 ! D172  D(56,59,65,67)        -57.3196                                         !
 ! D173  D(56,59,65,68)       -177.2997                                         !
 ! D174  D(60,59,65,66)       -179.9833                                         !
 ! D175  D(60,59,65,67)         59.3033                                         !
 ! D176  D(60,59,65,68)        -60.6768                                         !
 ! D177  D(62,59,65,66)        -60.9128                                         !
 ! D178  D(62,59,65,67)        178.3738                                         !
 ! D179  D(62,59,65,68)         58.3937                                         !
 ! D180  D(59,62,69,70)       -174.8116                                         !
 ! D181  D(59,62,69,71)        -55.4024                                         !
 ! D182  D(59,62,69,72)         65.4196                                         !
 ! D183  D(63,62,69,70)        -53.5296                                         !
 ! D184  D(63,62,69,71)         65.8795                                         !
 ! D185  D(63,62,69,72)       -173.2985                                         !
 ! D186  D(64,62,69,70)         62.2696                                         !
 ! D187  D(64,62,69,71)       -178.3213                                         !
 ! D188  D(64,62,69,72)        -57.4993                                         !
 ! D189  D(58,73,75,76)        -39.3944                                         !
 ! D190  D(58,73,75,77)       -156.1136                                         !
 ! D191  D(58,73,75,78)         79.3882                                         !
 ! D192  D(74,73,75,76)        129.0916                                         !
 ! D193  D(74,73,75,77)         12.3724                                         !
 ! D194  D(74,73,75,78)       -112.1258                                         !
 ! D195  D(73,75,77,81)         -5.8886                                         !
 ! D196  D(73,75,77,85)        174.0384                                         !
 ! D197  D(76,75,77,81)       -122.5957                                         !
 ! D198  D(76,75,77,85)         57.3312                                         !
 ! D199  D(78,75,77,81)        116.9734                                         !
 ! D200  D(78,75,77,85)        -63.0997                                         !
 ! D201  D(73,75,78,79)        -40.8222                                         !
 ! D202  D(73,75,78,80)         75.2775                                         !
 ! D203  D(73,75,78,82)       -160.269                                          !
 ! D204  D(76,75,78,79)         78.628                                          !
 ! D205  D(76,75,78,80)       -165.2723                                         !
 ! D206  D(76,75,78,82)        -40.8188                                         !
 ! D207  D(77,75,78,79)       -160.3059                                         !
 ! D208  D(77,75,78,80)        -44.2062                                         !
 ! D209  D(77,75,78,82)         80.2473                                         !
 ! D210  D(75,77,85,86)          5.1697                                         !
 ! D211  D(75,77,85,87)        176.4985                                         !
 ! D212  D(81,77,85,86)       -174.9061                                         !
 ! D213  D(81,77,85,87)         -3.5773                                         !
 ! D214  D(75,78,82,83)        167.7669                                         !
 ! D215  D(75,78,82,84)        -12.0965                                         !
 ! D216  D(79,78,82,83)         47.6804                                         !
 ! D217  D(79,78,82,84)       -132.1829                                         !
 ! D218  D(80,78,82,83)        -66.782                                          !
 ! D219  D(80,78,82,84)        113.3546                                         !
 ! D220  D(77,85,87,88)        -42.8606                                         !
 ! D221  D(77,85,87,89)       -160.9015                                         !
 ! D222  D(77,85,87,90)         75.9964                                         !
 ! D223  D(86,85,87,88)        128.0367                                         !
 ! D224  D(86,85,87,89)          9.9958                                         !
 ! D225  D(86,85,87,90)       -113.1063                                         !
 ! D226  D(85,87,89,93)        -17.7025                                         !
 ! D227  D(85,87,89,102)       163.6927                                         !
 ! D228  D(88,87,89,93)       -135.5189                                         !
 ! D229  D(88,87,89,102)        45.8763                                         !
 ! D230  D(90,87,89,93)        107.8249                                         !
 ! D231  D(90,87,89,102)       -70.7799                                         !
 ! D232  D(85,87,90,91)        109.7416                                         !
 ! D233  D(85,87,90,92)         -6.5984                                         !
 ! D234  D(85,87,90,94)       -128.2922                                         !
 ! D235  D(88,87,90,91)       -131.2063                                         !
 ! D236  D(88,87,90,92)        112.4536                                         !
 ! D237  D(88,87,90,94)         -9.2401                                         !
 ! D238  D(89,87,90,91)        -14.1025                                         !
 ! D239  D(89,87,90,92)       -130.4425                                         !
 ! D240  D(89,87,90,94)        107.8637                                         !
 ! D241  D(87,89,102,103)       10.4003                                         !
 ! D242  D(87,89,102,104)      169.6457                                         !
 ! D243  D(93,89,102,103)     -168.2222                                         !
 ! D244  D(93,89,102,104)       -8.9768                                         !
 ! D245  D(87,90,94,95)       -115.7477                                         !
 ! D246  D(87,90,94,97)         61.7591                                         !
 ! D247  D(91,90,94,95)          6.8064                                         !
 ! D248  D(91,90,94,97)       -175.6868                                         !
 ! D249  D(92,90,94,95)        124.6901                                         !
 ! D250  D(92,90,94,97)        -57.8031                                         !
 ! D251  D(90,94,95,96)         -3.6316                                         !
 ! D252  D(90,94,95,101)       178.0206                                         !
 ! D253  D(97,94,95,96)        178.5777                                         !
 ! D254  D(97,94,95,101)         0.2299                                         !
 ! D255  D(90,94,97,98)         -1.5892                                         !
 ! D256  D(90,94,97,99)       -178.2317                                         !
 ! D257  D(95,94,97,98)        176.5608                                         !
 ! D258  D(95,94,97,99)         -0.0817                                         !
 ! D259  D(94,95,101,99)        -0.2883                                         !
 ! D260  D(96,95,101,99)      -178.7519                                         !
 ! D261  D(94,97,99,100)      -179.9631                                         !
 ! D262  D(94,97,99,101)        -0.0994                                         !
 ! D263  D(98,97,99,100)         3.6951                                         !
 ! D264  D(98,97,99,101)      -176.4411                                         !
 ! D265  D(97,99,101,95)         0.2347                                         !
 ! D266  D(100,99,101,95)     -179.9067                                         !
 ! D267  D(89,102,104,105)      64.5077                                         !
 ! D268  D(89,102,104,106)     -54.3829                                         !
 ! D269  D(89,102,104,107)    -175.653                                          !
 ! D270  D(103,102,104,105)   -136.2067                                         !
 ! D271  D(103,102,104,106)    104.9026                                         !
 ! D272  D(103,102,104,107)    -16.3674                                         !
 ! D273  D(102,104,106,110)    -42.0486                                         !
 ! D274  D(102,104,106,121)    138.4272                                         !
 ! D275  D(105,104,106,110)   -159.9764                                         !
 ! D276  D(105,104,106,121)     20.4994                                         !
 ! D277  D(107,104,106,110)     77.8944                                         !
 ! D278  D(107,104,106,121)   -101.6298                                         !
 ! D279  D(102,104,107,108)    -49.6273                                         !
 ! D280  D(102,104,107,109)     65.3827                                         !
 ! D281  D(102,104,107,111)   -171.9561                                         !
 ! D282  D(105,104,107,108)     68.4709                                         !
 ! D283  D(105,104,107,109)   -176.5191                                         !
 ! D284  D(105,104,107,111)    -53.8579                                         !
 ! D285  D(106,104,107,108)   -170.1154                                         !
 ! D286  D(106,104,107,109)    -55.1054                                         !
 ! D287  D(106,104,107,111)     67.5558                                         !
 ! D288  D(104,106,121,122)      3.5033                                         !
 ! D289  D(104,106,121,123)    178.5998                                         !
 ! D290  D(110,106,121,122)   -176.0116                                         !
 ! D291  D(110,106,121,123)     -0.915                                          !
 ! D292  D(104,107,111,112)    -53.4086                                         !
 ! D293  D(104,107,111,113)     66.0546                                         !
 ! D294  D(104,107,111,117)   -170.6686                                         !
 ! D295  D(108,107,111,112)   -175.1961                                         !
 ! D296  D(108,107,111,113)    -55.7329                                         !
 ! D297  D(108,107,111,117)     67.5439                                         !
 ! D298  D(109,107,111,112)     68.1944                                         !
 ! D299  D(109,107,111,113)   -172.3424                                         !
 ! D300  D(109,107,111,117)    -49.0656                                         !
 ! D301  D(107,111,113,114)     59.9317                                         !
 ! D302  D(107,111,113,115)    179.3911                                         !
 ! D303  D(107,111,113,116)    -60.7305                                         !
 ! D304  D(112,111,113,114)    179.6331                                         !
 ! D305  D(112,111,113,115)    -60.9075                                         !
 ! D306  D(112,111,113,116)     58.9709                                         !
 ! D307  D(117,111,113,114)    -62.8585                                         !
 ! D308  D(117,111,113,115)     56.6009                                         !
 ! D309  D(117,111,113,116)    176.4794                                         !
 ! D310  D(107,111,117,118)    -61.8171                                         !
 ! D311  D(107,111,117,119)    178.5591                                         !
 ! D312  D(107,111,117,120)     58.3096                                         !
 ! D313  D(112,111,117,118)   -179.5823                                         !
 ! D314  D(112,111,117,119)     60.7939                                         !
 ! D315  D(112,111,117,120)    -59.4556                                         !
 ! D316  D(113,111,117,118)     62.6649                                         !
 ! D317  D(113,111,117,119)    -56.9588                                         !
 ! D318  D(113,111,117,120)   -177.2083                                         !
 ! D319  D(106,121,123,124)    -23.0701                                         !
 ! D320  D(106,121,123,125)   -141.3371                                         !
 ! D321  D(106,121,123,126)     97.7636                                         !
 ! D322  D(122,121,123,124)    152.2155                                         !
 ! D323  D(122,121,123,125)     33.9485                                         !
 ! D324  D(122,121,123,126)    -86.9508                                         !
 ! D325  D(121,123,125,129)    -16.9294                                         !
 ! D326  D(121,123,125,145)    165.1903                                         !
 ! D327  D(124,123,125,129)   -134.4427                                         !
 ! D328  D(124,123,125,145)     47.6769                                         !
 ! D329  D(126,123,125,129)    105.0003                                         !
 ! D330  D(126,123,125,145)    -72.8801                                         !
 ! D331  D(121,123,126,127)    166.0715                                         !
 ! D332  D(121,123,126,128)     50.0054                                         !
 ! D333  D(121,123,126,130)    -71.125                                          !
 ! D334  D(124,123,126,127)    -73.9766                                         !
 ! D335  D(124,123,126,128)    169.9573                                         !
 ! D336  D(124,123,126,130)     48.8268                                         !
 ! D337  D(125,123,126,127)     46.3791                                         !
 ! D338  D(125,123,126,128)    -69.687                                          !
 ! D339  D(125,123,126,130)    169.1825                                         !
 ! D340  D(123,125,145,146)    178.094                                          !
 ! D341  D(129,125,145,146)      0.1891                                         !
 ! D342  D(123,126,130,131)    -83.2082                                         !
 ! D343  D(123,126,130,132)     33.359                                          !
 ! D344  D(123,126,130,133)    155.506                                          !
 ! D345  D(127,126,130,131)     39.13                                           !
 ! D346  D(127,126,130,132)    155.6972                                         !
 ! D347  D(127,126,130,133)    -82.1558                                         !
 ! D348  D(128,126,130,131)    157.3146                                         !
 ! D349  D(128,126,130,132)    -86.1182                                         !
 ! D350  D(128,126,130,133)     36.0288                                         !
 ! D351  D(126,130,133,134)     49.4506                                         !
 ! D352  D(126,130,133,135)    167.2325                                         !
 ! D353  D(126,130,133,136)    -72.2622                                         !
 ! D354  D(131,130,133,134)    -72.5569                                         !
 ! D355  D(131,130,133,135)     45.225                                          !
 ! D356  D(131,130,133,136)    165.7303                                         !
 ! D357  D(132,130,133,134)    172.6692                                         !
 ! D358  D(132,130,133,135)    -69.5489                                         !
 ! D359  D(132,130,133,136)     50.9564                                         !
 ! D360  D(130,133,136,137)    -53.0719                                         !
 ! D361  D(130,133,136,144)    149.8877                                         !
 ! D362  D(134,133,136,137)   -175.9018                                         !
 ! D363  D(134,133,136,144)     27.0578                                         !
 ! D364  D(135,133,136,137)     67.8435                                         !
 ! D365  D(135,133,136,144)    -89.1969                                         !
 ! D366  D(133,136,144,138)    -31.9755                                         !
 ! D367  D(133,136,144,141)    147.6588                                         !
 ! D368  D(137,136,144,138)    170.8555                                         !
 ! D369  D(137,136,144,141)     -9.5101                                         !
 ! D370  D(139,138,144,136)   -179.0841                                         !
 ! D371  D(139,138,144,141)      1.2916                                         !
 ! D372  D(140,138,144,136)    -31.2499                                         !
 ! D373  D(140,138,144,141)    149.1258                                         !
 ! D374  D(142,141,144,136)    169.4443                                         !
 ! D375  D(142,141,144,138)    -10.932                                          !
 ! D376  D(143,141,144,136)    -26.8996                                         !
 ! D377  D(143,141,144,138)    152.7241                                         !
 --------------------------------------------------------------------------------
 Symmetry turned off by external request.
 Stoichiometry    C43H75N14O14(1+)
 Framework group  C1[X(C43H75N14O14)]
 Deg. of freedom   432
 Full point group                 C1      NOp   1
                          Input orientation:                          
 ---------------------------------------------------------------------
 Center     Atomic      Atomic             Coordinates (Angstroms)
 Number     Number       Type             X           Y           Z
 ---------------------------------------------------------------------
      1          7           0      -10.570779   -1.745170   -6.314751
      2          1           0      -10.383249   -2.710925   -5.958206
      3          1           0      -10.219366   -1.081071   -5.592975
      4          1           0      -11.558320   -1.582922   -6.521434
      5          6           0       -9.633320   -1.563830   -7.479876
      6          1           0      -10.184171   -1.684033   -8.417196
      7          6           0       -8.594686   -2.699897   -7.274233
      8          6           0       -9.031039   -0.137637   -7.322918
      9          1           0       -9.790858    0.600112   -7.605528
     10          1           0       -8.162874   -0.012138   -7.972475
     11          8           0       -8.773405   -3.489075   -6.346280
     12          8           0       -8.708431    0.067813   -5.966211
     13          1           0       -7.767176   -0.175076   -5.801014
     14          7           0       -7.533471   -2.720755   -8.108401
     15          1           0       -7.441511   -1.913230   -8.715738
     16          6           0       -6.227784   -3.144421   -7.568017
     17          1           0       -6.401425   -4.037798   -6.964778
     18          6           0       -5.756682   -1.966055   -6.676075
     19          6           0       -5.242275   -3.436932   -8.700923
     20          1           0       -4.280229   -3.757901   -8.290930
     21          1           0       -5.066290   -2.541258   -9.307375
     22          1           0       -5.626895   -4.231763   -9.346140
     23          8           0       -6.117045   -0.814082   -6.957738
     24          7           0       -4.983521   -2.273329   -5.630137
     25          1           0       -4.668543   -3.222110   -5.439550
     26          6           0       -4.455019   -1.281773   -4.702983
     27          1           0       -4.315046   -0.342927   -5.246651
     28          6           0       -3.116356   -1.876395   -4.205706
     29          6           0       -5.422217   -1.044078   -3.513646
     30          1           0       -5.432286   -1.963705   -2.909612
     31          8           0       -2.999504   -3.101259   -4.136430
     32          6           0       -5.023058    0.151706   -2.651014
     33          1           0       -4.032932    0.038511   -2.201062
     34          1           0       -5.031464    1.071088   -3.247490
     35          1           0       -5.738677    0.276390   -1.828946
     36          8           0       -6.734342   -0.841789   -4.069755
     37          1           0       -7.316110   -0.607774   -3.329462
     38          7           0       -2.154524   -0.991226   -3.889250
     39          1           0       -2.363454    0.002332   -3.836631
     40          6           0       -0.908411   -1.346997   -3.210198
     41          1           0       -1.012519   -2.375412   -2.849999
     42          6           0       -0.812297   -0.350541   -2.032315
     43          6           0        0.320344   -1.260284   -4.166550
     44          1           0        0.450947   -0.198972   -4.422842
     45          8           0       -1.341014    0.761736   -2.133336
     46          6           0        1.607031   -1.763857   -3.493258
     47          1           0        1.509905   -2.817541   -3.199741
[...]
 Alpha virt. eigenvalues --    1.76076   1.76136   1.76750   1.76797   1.77260
 Alpha virt. eigenvalues --    1.77504   1.78547   1.78790   1.78991   1.79231
 Alpha virt. eigenvalues --    1.79314   1.79748   1.79860   1.80128   1.80532
 Alpha virt. eigenvalues --    1.80597   1.81053   1.81443   1.82195   1.82567
 Alpha virt. eigenvalues --    1.82676   1.83111   1.83379   1.83458   1.83762
 Alpha virt. eigenvalues --    1.84011   1.84491   1.84771   1.85096   1.85564
 Alpha virt. eigenvalues --    1.85715   1.85766   1.86049   1.86595   1.86816
 Alpha virt. eigenvalues --    1.87177   1.87450   1.87710   1.88003   1.88365
 Alpha virt. eigenvalues --    1.88653   1.88748   1.89094   1.89470   1.89692
 Alpha virt. eigenvalues --    1.89896   1.90103   1.90380   1.90577   1.90764
 Alpha virt. eigenvalues --    1.91248   1.91631   1.91917   1.92393   1.92416
 Alpha virt. eigenvalues --    1.92909   1.93287   1.93434   1.93859   1.94339
 Alpha virt. eigenvalues --    1.94604   1.94952   1.95388   1.95531   1.95644
 Alpha virt. eigenvalues --    1.95948   1.96295   1.96476   1.96632   1.96765
 Alpha virt. eigenvalues --    1.97000   1.97712   1.98249   1.98603   1.99113
 Alpha virt. eigenvalues --    1.99651   1.99995   2.00230   2.00579   2.00961
 Alpha virt. eigenvalues --    2.01374   2.01908   2.02176   2.02728   2.03061
 Alpha virt. eigenvalues --    2.03778   2.03857   2.04029   2.04300   2.04418
 Alpha virt. eigenvalues --    2.04733   2.04852   2.05145   2.05721   2.06164
 Alpha virt. eigenvalues --    2.06730   2.06835   2.07041   2.07159   2.07349
 Alpha virt. eigenvalues --    2.07934   2.08512   2.08746   2.09258   2.09414
 Alpha virt. eigenvalues --    2.09807   2.10151   2.10525   2.11342   2.11397
 Alpha virt. eigenvalues --    2.11764   2.12322   2.12777   2.12898   2.13868
 Alpha virt. eigenvalues --    2.14547   2.15642   2.16254   2.16323   2.17035
 Alpha virt. eigenvalues --    2.17456   2.17478   2.18476   2.18692   2.18799
 Alpha virt. eigenvalues --    2.19349   2.19494   2.19686   2.19763   2.20810
 Alpha virt. eigenvalues --    2.21326   2.21445   2.21760   2.22374   2.22752
 Alpha virt. eigenvalues --    2.23419   2.23614   2.23921   2.24059   2.24105
 Alpha virt. eigenvalues --    2.24515   2.25874   2.26008   2.26354   2.26586
 Alpha virt. eigenvalues --    2.26975   2.27474   2.28051   2.28167   2.28927
 Alpha virt. eigenvalues --    2.29558   2.29839   2.30537   2.30653   2.31519
 Alpha virt. eigenvalues --    2.31882   2.32240   2.32430   2.32465   2.33373
 Alpha virt. eigenvalues --    2.33828   2.34216   2.34405   2.35268   2.35702
 Alpha virt. eigenvalues --    2.36221   2.36497   2.36715   2.37436   2.38299
 Alpha virt. eigenvalues --    2.38462   2.38828   2.38893   2.38961   2.40110
 Alpha virt. eigenvalues --    2.40829   2.41409   2.41659   2.41748   2.42225
 Alpha virt. eigenvalues --    2.42561   2.42734   2.43275   2.44132   2.44844
 Alpha virt. eigenvalues --    2.45681   2.46298   2.46547   2.46622   2.46729
 Alpha virt. eigenvalues --    2.46918   2.47289   2.47464   2.47832   2.48763
 Alpha virt. eigenvalues --    2.49531   2.49756   2.50124   2.50189   2.50307
 Alpha virt. eigenvalues --    2.51277   2.52360   2.52659   2.53199   2.53288
 Alpha virt. eigenvalues --    2.53968   2.54732   2.55049   2.55981   2.56270
 Alpha virt. eigenvalues --    2.56722   2.56921   2.57745   2.58535   2.59146
 Alpha virt. eigenvalues --    2.59635   2.60718   2.60768   2.61324   2.61651
 Alpha virt. eigenvalues --    2.62466   2.62697   2.63186   2.64107   2.65218
 Alpha virt. eigenvalues --    2.65931   2.66097   2.66433   2.66696   2.67512
 Alpha virt. eigenvalues --    2.67883   2.67961   2.68344   2.69756   2.70288
 Alpha virt. eigenvalues --    2.71009   2.71636   2.72226   2.72403   2.72575
 Alpha virt. eigenvalues --    2.73096   2.73673   2.74289   2.74898   2.75782
 Alpha virt. eigenvalues --    2.76202   2.77542   2.77948   2.79437   2.80195
 Alpha virt. eigenvalues --    2.81302   2.81842   2.82644   2.83823   2.85260
 Alpha virt. eigenvalues --    2.85574   2.87025   2.87607   2.88212   2.88555
 Alpha virt. eigenvalues --    2.89891   2.90823   2.91406   2.92069   2.93350
 Alpha virt. eigenvalues --    2.93988   2.94974   2.95950   2.96083   2.96898
 Alpha virt. eigenvalues --    2.97277   2.97727   2.98874   2.99262   2.99654
 Alpha virt. eigenvalues --    3.00643   3.03047   3.03906   3.04966   3.05582
 Alpha virt. eigenvalues --    3.09769   3.10874   3.11931   3.13021   3.14244
 Alpha virt. eigenvalues --    3.15377   3.17315   3.19156   3.66173   3.71260
 Alpha virt. eigenvalues --    3.74560   3.80365   3.82682   3.89019   3.89066
 Alpha virt. eigenvalues --    3.90377   3.94548   3.96240   3.96547   3.99549
 Alpha virt. eigenvalues --    3.99896   4.00531   4.01000   4.01552   4.02767
 Alpha virt. eigenvalues --    4.03751   4.05865   4.07620   4.08420   4.08949
 Alpha virt. eigenvalues --    4.10162   4.11300   4.11935   4.13138   4.13466
 Alpha virt. eigenvalues --    4.14541   4.14946   4.16080   4.17135   4.18115
 Alpha virt. eigenvalues --    4.19836   4.20172   4.21227   4.21890   4.22450
 Alpha virt. eigenvalues --    4.23728   4.24980   4.25359   4.25688   4.26623
 Alpha virt. eigenvalues --    4.27638   4.31149   4.31784   4.32617   4.32896
 Alpha virt. eigenvalues --    4.34287   4.34600   4.35347   4.37833   4.38721
 Alpha virt. eigenvalues --    4.40704   4.43492   4.44367   4.45334   4.45764
 Alpha virt. eigenvalues --    4.46478   4.47483   4.47879   4.53361   4.53486
 Alpha virt. eigenvalues --    4.57199   4.58728   4.59029   4.60246   4.62626
 Alpha virt. eigenvalues --    4.63749   4.66874   4.68481   4.70393
          Condensed to atoms (all electrons):
 Mulliken charges:
               1
     1  N   -0.749206
     2  H    0.428878
     3  H    0.425571
     4  H    0.409684
     5  C   -0.140508
     6  H    0.222177
     7  C    0.634772
     8  C   -0.056764
     9  H    0.181379
    10  H    0.207398
    11  O   -0.508273
    12  O   -0.667578
    13  H    0.482829
    14  N   -0.554898
    15  H    0.346268
    16  C   -0.092223
    17  H    0.203654
    18  C    0.647533
    19  C   -0.462378
    20  H    0.186693
    21  H    0.171132
    22  H    0.188005
    23  O   -0.577433
    24  N   -0.597171
    25  H    0.364297
    26  C   -0.070276
    27  H    0.184888
    28  C    0.614310
    29  C    0.159257
    30  H    0.146582
    31  O   -0.539134
    32  C   -0.500536
    33  H    0.191861
    34  H    0.169513
    35  H    0.152951
    36  O   -0.650471
    37  H    0.403154
    38  N   -0.601177
    39  H    0.357552
    40  C   -0.067892
    41  H    0.179376
    42  C    0.623867
    43  C   -0.074812
    44  H    0.142098
    45  O   -0.553507
    46  C   -0.475545
    47  H    0.148848
    48  H    0.172806
    49  H    0.163335
    50  C   -0.445672
    51  H    0.158077
    52  H    0.138943
    53  H    0.154653
    54  N   -0.603616
    55  H    0.358542
    56  C   -0.062820
    57  H    0.173120
    58  C    0.624727
    59  C   -0.070512
    60  H    0.137996
    61  O   -0.554742
    62  C   -0.251421
    63  H    0.133515
    64  H    0.139493
    65  C   -0.474278
    66  H    0.144366
    67  H    0.162210
    68  H    0.159712
    69  C   -0.450007
    70  H    0.137207
    71  H    0.146993
    72  H    0.153773
    73  N   -0.617002
    74  H    0.355037
    75  C   -0.041430
    76  H    0.196067
    77  C    0.601042
    78  C   -0.367351
    79  H    0.187404
    80  H    0.159296
    81  O   -0.586022
    82  C    0.622855
    83  O   -0.563560
    84  O   -0.669607
    85  N   -0.644761
    86  H    0.414567
    87  C   -0.028730
    88  H    0.183645
    89  C    0.619708
    90  C   -0.379209
    91  H    0.195646
    92  H    0.177608
    93  O   -0.555642
    94  C    0.288021
    95  C   -0.099115
    96  H    0.138709
    97  N   -0.603513
    98  H    0.373201
    99  C    0.203475
   100  H    0.152292
   101  N   -0.427136
   102  N   -0.612922
   103  H    0.350471
   104  C   -0.021569
   105  H    0.160559
   106  C    0.646659
   107  C   -0.304366
   108  H    0.151628
   109  H    0.164981
   110  O   -0.544470
   111  C   -0.086217
   112  H    0.137361
   113  C   -0.446840
   114  H    0.147496
   115  H    0.157572
   116  H    0.133296
   117  C   -0.445438
   118  H    0.146409
   119  H    0.150151
   120  H    0.151047
   121  N   -0.598723
   122  H    0.349775
   123  C   -0.051166
   124  H    0.206759
   125  C    0.580516
   126  C   -0.267743
   127  H    0.160261
   128  H    0.143017
   129  O   -0.463533
   130  C   -0.290471
   131  H    0.156984
   132  H    0.199970
   133  C   -0.150740
   134  H    0.150660
   135  H    0.177790
   136  N   -0.624021
   137  H    0.414814
   138  N   -0.749272
   139  H    0.357351
   140  H    0.355472
   141  N   -0.770323
   142  H    0.344226
   143  H    0.459748
   144  C    0.744704
   145  O   -0.560354
   146  H    0.421858
 Sum of Mulliken charges =   1.00000
 Mulliken charges with hydrogens summed into heavy atoms:
               1
     1  N    0.514927
     5  C    0.081669
     7  C    0.634772
     8  C    0.332012
    11  O   -0.508273
    12  O   -0.184749
    14  N   -0.208630
    16  C    0.111430
    18  C    0.647533
    19  C    0.083452
    23  O   -0.577433
    24  N   -0.232874
    26  C    0.114612
    28  C    0.614310
    29  C    0.305840
    31  O   -0.539134
    32  C    0.013789
    36  O   -0.247316
    38  N   -0.243625
    40  C    0.111484
    42  C    0.623867
    43  C    0.067286
    45  O   -0.553507
    46  C    0.009443
    50  C    0.006000
    54  N   -0.245073
    56  C    0.110300
    58  C    0.624727
    59  C    0.067484
    61  O   -0.554742
    62  C    0.021587
    65  C   -0.007990
    69  C   -0.012034
    73  N   -0.261965
    75  C    0.154637
    77  C    0.601042
    78  C   -0.020652
    81  O   -0.586022
    82  C    0.622855
    83  O   -0.563560
    84  O   -0.669607
    85  N   -0.230194
    87  C    0.154914
    89  C    0.619708
    90  C   -0.005954
    93  O   -0.555642
    94  C    0.288021
    95  C    0.039594
    97  N   -0.230311
    99  C    0.355767
   101  N   -0.427136
   102  N   -0.262451
   104  C    0.138990
   106  C    0.646659
   107  C    0.012242
   110  O   -0.544470
   111  C    0.051144
   113  C   -0.008476
   117  C    0.002169
   121  N   -0.248948
   123  C    0.155593
   125  C    0.580516
   126  C    0.035534
   129  O   -0.463533
   130  C    0.066483
   133  C    0.177709
   136  N   -0.209207
   138  N   -0.036449
   141  N    0.033651
   144  C    0.744704
   145  O   -0.138496
 Electronic spatial extent (au):  <R**2>=         159538.0188
 Charge=              1.0000 electrons
 Dipole moment (field-independent basis, Debye):
    X=            -18.6154    Y=             -8.4536    Z=            -20.6623  Tot=             29.0677
 Quadrupole moment (field-independent basis, Debye-Ang):
   XX=            196.5565   YY=           -416.4324   ZZ=           -209.0370
   XY=             44.8924   XZ=            334.5934   YZ=             28.1197
 Traceless Quadrupole moment (field-independent basis, Debye-Ang):
   XX=            339.5275   YY=           -273.4614   ZZ=            -66.0661
   XY=             44.8924   XZ=            334.5934   YZ=             28.1197
 Octapole moment (field-independent basis, Debye-Ang**2):
  XXX=          -3528.3472  YYY=          -1234.3001  ZZZ=          -1908.4997  XYY=           -895.7987
  XXY=           -958.9594  XXZ=          -1277.6226  XZZ=          -2381.1222  YZZ=           -925.1285
  YYZ=           -311.3121  XYZ=           -372.9414
 Hexadecapole moment (field-independent basis, Debye-Ang**3):
 XXXX=         -43583.1556 YYYY=         -24590.1071 ZZZZ=         -41751.3811 XXXY=         -12861.4628
 XXXZ=           7792.7936 YYYX=         -17529.5306 YYYZ=         -14124.2068 ZZZX=         -18602.6122
 ZZZY=         -11444.6856 XXYY=         -22102.1329 XXZZ=          -5800.3587 YYZZ=         -13436.3670
 XXYZ=            527.4483 YYXZ=         -10750.7967 ZZXY=          -3036.1551
 N-N= 1.136567789723D+04 E-N=-3.086667348277D+04  KE= 3.471035218886D+03
 Unable to Open any file for archive entry.
 1\1\GINC-SKL-148\SP\RB3LYP\6-31G(d)\C43H75N14O14(1+)\KENGMITH\19-Jun-2
 022\0\\# B3LYP/6-31G* guess=read geom=check nosymm integral(ultrafineg
 rid)\\Candidate Structure: Conf:112 Charge calc in gas phase\\1,1\N,0,
 -10.5707791996,-1.7451697568,-6.3147512563\H,0,-10.3832493337,-2.71092
 48582,-5.9582060207\H,0,-10.2193658539,-1.0810709028,-5.5929748344\H,0
 ,-11.5583202917,-1.5829221172,-6.5214342397\C,0,-9.6333200881,-1.56382
 9579,-7.4798759528\H,0,-10.1841710929,-1.6840328647,-8.4171964749\C,0,
 -8.5946856228,-2.6998970926,-7.274233065\C,0,-9.0310393825,-0.13763655
 99,-7.3229176181\H,0,-9.7908581449,0.600111945,-7.6055279281\H,0,-8.16
 28735038,-0.0121381202,-7.9724753761\O,0,-8.7734052486,-3.4890748712,-
 6.346280044\O,0,-8.7084308857,0.0678131996,-5.9662106177\H,0,-7.767176
 3269,-0.1750755697,-5.8010141331\N,0,-7.5334709997,-2.720755481,-8.108
 4010134\H,0,-7.4415111276,-1.9132298832,-8.7157375312\C,0,-6.227783895
 4,-3.1444212682,-7.568017024\H,0,-6.4014246448,-4.0377983918,-6.964778
 2076\C,0,-5.7566815275,-1.9660551657,-6.6760753997\C,0,-5.2422752118,-
 3.4369321413,-8.7009232089\H,0,-4.2802290514,-3.757901485,-8.29093008\
 H,0,-5.0662902895,-2.5412576118,-9.3073752077\H,0,-5.6268953411,-4.231
 7625351,-9.3461396713\O,0,-6.1170451376,-0.8140815152,-6.9577376729\N,
 0,-4.9835211811,-2.2733287642,-5.630136882\H,0,-4.6685432278,-3.222109
 9108,-5.439550298\C,0,-4.4550190498,-1.281773348,-4.7029834082\H,0,-4.
 3150456356,-0.3429273793,-5.2466505201\C,0,-3.1163563768,-1.8763953711
 ,-4.2057064227\C,0,-5.4222171191,-1.0440783806,-3.513646304\H,0,-5.432
 28595,-1.9637048728,-2.9096121161\O,0,-2.9995037117,-3.1012588651,-4.1
 364298137\C,0,-5.0230575066,0.1517063489,-2.6510140696\H,0,-4.03293204
 02,0.038511177,-2.2010615272\H,0,-5.0314636901,1.0710883373,-3.2474900
 39\H,0,-5.7386771535,0.2763898792,-1.8289461872\O,0,-6.7343421374,-0.8
 417891073,-4.0697553068\H,0,-7.3161101418,-0.6077737741,-3.3294621346\
 N,0,-2.1545236893,-0.9912264151,-3.8892498466\H,0,-2.3634544732,0.0023
 319568,-3.8366305725\C,0,-0.9084109257,-1.3469974145,-3.2101977905\H,0
 ,-1.0125191445,-2.3754116991,-2.8499993033\C,0,-0.8122971204,-0.350541
 3859,-2.0323151905\C,0,0.3203438779,-1.2602840969,-4.166549742\H,0,0.4
 509469578,-0.1989724152,-4.4228417918\O,0,-1.3410136254,0.7617362338,-
 2.133336044\C,0,1.6070308037,-1.7638573601,-3.4932582806\H,0,1.5099050
 06,-2.8175413109,-3.1997411296\H,0,1.8842634168,-1.1914825782,-2.60448
 4416\H,0,2.4445283832,-1.6993452342,-4.1956056854\C,0,0.0629805052,-2.
 043484449,-5.4629065728\H,0,-0.1273618765,-3.1025176067,-5.2526408122\
 H,0,-0.7950477322,-1.6482649279,-6.0147290199\H,0,0.9394920807,-1.9804
 798831,-6.1168231291\N,0,-0.1636984655,-0.7781873313,-0.9306906613\H,0
 ,0.363843269,-1.6465625897,-0.9493258059\C,0,0.1974502636,0.0934237629
 ,0.1879402942\H,0,0.0034881013,1.1236205836,-0.1257492487\C,0,1.704873
 2623,-0.1544021848,0.4099905322\C,0,-0.6301902333,-0.2251471,1.4698571
 105\H,0,-0.3747505624,-1.2558330745,1.7582704125\O,0,2.1626264742,-1.2
 897841842,0.2495136991\C,0,-2.1434938755,-0.1695246344,1.1758848882\H,
 0,-2.3520227672,-0.7940034816,0.2996968498\H,0,-2.4170153501,0.8571865
 384,0.8949112013\C,0,-0.2408310817,0.7132271302,2.6235150858\H,0,-0.47
 95308113,1.7568001159,2.3776367235\H,0,0.8253812853,0.6613041705,2.860
 0865102\H,0,-0.7880925789,0.4571990946,3.5351431264\C,0,-3.0286956114,
 -0.6453979748,2.3345288802\H,0,-4.0817207486,-0.6682486655,2.030924116
 6\H,0,-2.7543422808,-1.6587657212,2.6531244762\H,0,-2.9581550663,0.008
 9369668,3.2094889895\N,0,2.4455323313,0.9140944297,0.7572072555\H,0,2.
 0158325802,1.8090581693,0.9718203408\C,0,3.8604985551,0.8307131014,1.1
 075026982\H,0,4.025348508,-0.0738210623,1.7022154629\C,0,4.1402338197,
 2.0660226572,1.9891418045\C,0,4.7548493373,0.7360695062,-0.1533876027\
 H,0,4.2610310975,0.0659823983,-0.8624213913\H,0,4.8303624955,1.7134501
 312,-0.6467949863\O,0,3.2570222898,2.9288494358,2.1612897365\C,0,6.178
 498379,0.1800256759,0.0582412129\O,0,6.8437221489,-0.1284075732,-0.933
 2618953\O,0,6.5772496897,0.0735332096,1.2892534339\N,0,5.362000828,2.1
 356125713,2.5367799733\H,0,6.0469519828,1.406751867,2.2640168318\C,0,5
 .7408896062,3.2929911867,3.3157070157\H,0,5.384856532,4.1834798822,2.7
 868630344\C,0,7.260473727,3.3858052131,3.434585525\C,0,5.1040609712,3.
 3140496065,4.7609582826\H,0,5.8737974904,3.1383773951,5.519608285\H,0,
 4.3993840473,2.4770384746,4.8169737884\O,0,8.0257263748,2.4442862504,3
 .2148848586\C,0,4.41652695,4.6074880202,5.0441027456\C,0,4.6252479075,
 5.6282305439,5.946488416\H,0,5.3691668948,5.6723300489,6.7321847113\N,
 0,3.3395504496,5.0236618269,4.2836289809\H,0,2.9810719407,4.4925934578
 ,3.491910996\C,0,2.9600566475,6.246039408,4.7559563309\H,0,2.131887530
 9,6.799097605,4.332451594\N,0,3.710958589,6.6436197305,5.7627690941\N,
 0,7.6952297819,4.6068514613,3.8380942593\H,0,6.9985395082,5.2658043267
 ,4.1710252625\C,0,9.0797771745,4.844953453,4.2267609674\H,0,9.70717191
 81,4.6878835061,3.3426621739\C,0,9.4878717036,3.8427218913,5.327626856
 3\C,0,9.2083030398,6.2964662348,4.7308573785\H,0,8.7420887498,6.954309
 556,3.9838768883\H,0,8.6114000493,6.3784859984,5.648977339\O,0,8.73713
 02964,3.5591125288,6.2554259333\C,0,10.6417164099,6.7938726196,5.00685
 27176\H,0,11.1314984027,6.0835955901,5.6877515945\C,0,11.4882468695,6.
 8880726075,3.7275144262\H,0,11.0351935208,7.5837707758,3.0094980035\H,
 0,12.4949836687,7.2538501342,3.956726533\H,0,11.6044284361,5.921547053
 1,3.2230166059\C,0,10.5865085398,8.1560528184,5.7154454503\H,0,10.0983
 228939,8.9089321452,5.083418482\H,0,11.5945758202,8.5186377198,5.94521
 17128\H,0,10.0274433094,8.0958913276,6.6561938702\N,0,10.7356439948,3.
 32105212,5.1830612456\H,0,11.3335648029,3.6376031075,4.4301301828\C,0,
 11.3345390248,2.3848372743,6.11464954\H,0,10.8388309362,2.5015165111,7
 .0831760027\C,0,12.808984874,2.7422892643,6.2547075125\C,0,11.18917983
 41,0.9196481294,5.6251219177\H,0,11.8562683303,0.2751544701,6.21034022
 66\H,0,11.5351834333,0.8920056013,4.5831790307\O,0,13.4226393696,3.445
 4787821,5.4812739568\C,0,9.7444523426,0.4013268009,5.7121881035\H,0,9.
 5398093825,0.0489139739,6.7302923757\H,0,9.0350740967,1.2118528201,5.5
 241035048\C,0,9.4477549169,-0.7416794597,4.7373887487\H,0,10.212246818
 2,-1.5214861325,4.8001528375\H,0,8.4917443384,-1.2139165042,5.00084681
 44\N,0,9.3728238847,-0.2488221607,3.3549898997\H,0,8.7315151107,0.5318
 934989,3.1982751387\N,0,10.6835356199,-1.8890973722,2.3264915601\H,0,1
 0.9198327956,-2.3964379363,1.486110094\H,0,11.4448242891,-1.7393852102
 ,2.9730442815\N,0,9.0398846763,-0.7233257337,1.1319410295\H,0,9.350419
 1032,-1.1107259862,0.250757785\H,0,8.0182448325,-0.3409537697,1.162011
 3155\C,0,9.6934969494,-0.95245761,2.2504381845\O,0,13.3700582733,2.143
 7155469,7.3239297979\H,0,14.3136172313,2.3954715713,7.3270332992\\Vers
 ion=ES64L-G16RevC.01\HF=-3503.4016253\RMSD=3.619e-09\Dipole=-11.793754
 4,-4.9884923,-8.5401372\Quadrupole=252.4303474,-203.3118508,-49.118496
 5,33.3764229,248.7619968,20.9063252\PG=C01 [X(C43H75N14O14)]\\@
 The archive entry for this job was punched.


 THE MORE PROGRESS PHYSICAL SCIENCES MAKE, THE MORE THEY TEND TO ENTER
 THE DOMAIN OF MATHEMATICS, WHICH IS A KIND OF CENTRE TO WHICH THEY ALL
 CONVERGE.  WE MAY EVEN JUDGE THE DEGREE OF PERFECTION TO WHICH A 
 SCIENCE HAS ARRIVED BY THE FACILITY WITH WHICH IT MAY BE SUBMITTED
 TO CALCULATION.

                               -- ADOLPHE QUETELET, 1796-1874
 Job cpu time:       0 days  0 hours  6 minutes 26.8 seconds.
 Elapsed time:       0 days  0 hours  1 minutes 38.5 seconds.
 File lengths (MBytes):  RWF=    880 Int=      0 D2E=      0 Chk=    144 Scr=     16
 Normal termination of Gaussian 16 at Sun Jun 19 12:04:21 2022.
