 Entering Gaussian System, Link 0=/opt/software/Gaussian/g16-AVX2-C.01/g16/g16
 Input=charge-conf-34.com
 Output=charge-conf-34.log
 Initial command:
 /opt/software/Gaussian/g16-AVX2-C.01/g16/l1.exe "/mnt/gs18/scratch/users/kengmith/Gau-65236.inp" -scrdir="/mnt/gs18/scratch/users/kengmith/"
 Entering Link 1 = /opt/software/Gaussian/g16-AVX2-C.01/g16/l1.exe PID=     65265.
  
 Copyright (c) 1988-2019, Gaussian, Inc.  All Rights Reserved.
  
 This is part of the Gaussian(R) 16 program.  It is based on
 the Gaussian(R) 09 system (copyright 2009, Gaussian, Inc.),
 the Gaussian(R) 03 system (copyright 2003, Gaussian, Inc.),
 the Gaussian(R) 98 system (copyright 1998, Gaussian, Inc.),
 the Gaussian(R) 94 system (copyright 1995, Gaussian, Inc.),
 the Gaussian 92(TM) system (copyright 1992, Gaussian, Inc.),
 the Gaussian 90(TM) system (copyright 1990, Gaussian, Inc.),
 the Gaussian 88(TM) system (copyright 1988, Gaussian, Inc.),
 the Gaussian 86(TM) system (copyright 1986, Carnegie Mellon
 University), and the Gaussian 82(TM) system (copyright 1983,
 Carnegie Mellon University). Gaussian is a federally registered
 trademark of Gaussian, Inc.
  
 This software contains proprietary and confidential information,
 including trade secrets, belonging to Gaussian, Inc.
  
 This software is provided under written license and may be
 used, copied, transmitted, or stored only in accord with that
 written license.
  
 The following legend is applicable only to US Government
 contracts under FAR:
  
                    RESTRICTED RIGHTS LEGEND
  
 Use, reproduction and disclosure by the US Government is
 subject to restrictions as set forth in subparagraphs (a)
 and (c) of the Commercial Computer Software - Restricted
 Rights clause in FAR 52.227-19.
  
 Gaussian, Inc.
 340 Quinnipiac St., Bldg. 40, Wallingford CT 06492
  
  
 ---------------------------------------------------------------
 Warning -- This program may not be used in any manner that
 competes with the business of Gaussian, Inc. or will provide
 assistance to any competitor of Gaussian, Inc.  The licensee
 of this program is prohibited from giving any competitor of
 Gaussian, Inc. access to this program.  By using this program,
 the user acknowledges that Gaussian, Inc. is engaged in the
 business of creating and licensing software in the field of
 computational chemistry and represents and warrants to the
 licensee that it is not a competitor of Gaussian, Inc. and that
 it will not use this program in any manner prohibited above.
 ---------------------------------------------------------------
  

 Cite this work as:
 Gaussian 16, Revision C.01,
 M. J. Frisch, G. W. Trucks, H. B. Schlegel, G. E. Scuseria, 
 M. A. Robb, J. R. Cheeseman, G. Scalmani, V. Barone, 
 G. A. Petersson, H. Nakatsuji, X. Li, M. Caricato, A. V. Marenich, 
 J. Bloino, B. G. Janesko, R. Gomperts, B. Mennucci, H. P. Hratchian, 
 J. V. Ortiz, A. F. Izmaylov, J. L. Sonnenberg, D. Williams-Young, 
 F. Ding, F. Lipparini, F. Egidi, J. Goings, B. Peng, A. Petrone, 
 T. Henderson, D. Ranasinghe, V. G. Zakrzewski, J. Gao, N. Rega, 
 G. Zheng, W. Liang, M. Hada, M. Ehara, K. Toyota, R. Fukuda, 
 J. Hasegawa, M. Ishida, T. Nakajima, Y. Honda, O. Kitao, H. Nakai, 
 T. Vreven, K. Throssell, J. A. Montgomery, Jr., J. E. Peralta, 
 F. Ogliaro, M. J. Bearpark, J. J. Heyd, E. N. Brothers, K. N. Kudin, 
 V. N. Staroverov, T. A. Keith, R. Kobayashi, J. Normand, 
 K. Raghavachari, A. P. Rendell, J. C. Burant, S. S. Iyengar, 
 J. Tomasi, M. Cossi, J. M. Millam, M. Klene, C. Adamo, R. Cammi, 
 J. W. Ochterski, R. L. Martin, K. Morokuma, O. Farkas, 
 J. B. Foresman, and D. J. Fox, Gaussian, Inc., Wallingford CT, 2019.
 
 ******************************************
 Gaussian 16:  ES64L-G16RevC.01  3-Jul-2019
                26-May-2022 
 ******************************************
 %mem=8gb
 %nproc=4
 Will use up to    4 processors via shared memory.
 %chk=conf-34.chk
 -------------------------------------------------------------------
 # B3LYP/6-31G* guess=read geom=check nosymm integral(ultrafinegrid)
 -------------------------------------------------------------------
 1/29=2,38=1,172=1/1;
 2/12=2,15=1,40=1/2;
 3/5=1,6=6,7=1,11=2,14=-4,25=1,30=1,74=-5,75=-5,116=-2/1,2,3;
 4/5=1/1;
 5/5=2,38=6/2;
 6/7=2,8=2,9=2,10=2,28=1/1;
 99/5=1,9=1/99;
 -----------------------------------------------------
 Candidate Structure: Conf:34 Charge calc in gas phase
 -----------------------------------------------------
 Structure from the checkpoint file:  "conf-34.chk"
 Charge =  1 Multiplicity = 1
 Redundant internal coordinates found in file.  (old form).
 N,0,-8.5004961574,2.5846587485,4.4739784477
 H,0,-8.6193684461,2.1401995182,5.3885143784
 H,0,-7.7767990514,3.3501708393,4.5711631436
 H,0,-9.4159962625,2.9308104703,4.1505613174
 C,0,-7.8656331036,1.6676511285,3.4552912789
 H,0,-8.044041623,0.6368953599,3.7676510316
 C,0,-6.3652343565,2.0585549378,3.5270822651
 C,0,-8.473973788,1.9354800233,2.0564129261
 H,0,-8.1404883973,2.922925841,1.715257926
 H,0,-8.0382567444,1.2015233622,1.3697620672
 O,0,-6.0906717547,3.1461325152,4.0476022366
 C,0,-9.9867095872,1.8572660013,2.0590816234
 C,0,-10.6439020441,0.6177258389,2.0699769167
 H,0,-10.0660479998,-0.3025321788,2.0145746592
 C,0,-10.7544541266,3.0323004613,2.1083616769
 H,0,-10.2635160194,4.0028398165,2.048242393
 C,0,-12.0353194714,0.5555022851,2.1274736058
 H,0,-12.5320069465,-0.4102582912,2.1217455123
 C,0,-12.1505623914,2.9688543012,2.1713235466
 H,0,-12.7315698862,3.8860408031,2.1946588003
 C,0,-12.791148829,1.7306247381,2.1833758833
 H,0,-13.8748828442,1.6784113099,2.2245655803
 N,0,-5.5141546121,1.1921520412,2.9848338758
 H,0,-5.836325497,0.4015002494,2.4248423901
 C,0,-4.0770437455,1.4011686805,2.856423118
 H,0,-3.8766409224,2.4762897409,2.8546305635
 C,0,-3.6847175227,0.7316465784,1.5190064454
 C,0,-3.3119134766,0.7439173456,4.0193553514
 H,0,-2.2399612232,0.9539134171,3.8936565917
 H,0,-3.4498312288,-0.3478437794,3.9644827129
 O,0,-4.4693102236,-0.0530508274,0.9797654936
 O,0,-3.8218448894,1.2777045512,5.2262080688
 H,0,-3.26471778,0.9626280767,5.9544690031
 N,0,-2.4636713907,1.0409743572,1.0557191522
 H,0,-1.8126329852,1.5989376137,1.6081443174
 C,0,-1.8033148011,0.3271136506,-0.0268901582
 H,0,-2.101289827,-0.7267912693,-0.0048023194
 C,0,-0.2927120476,0.4592906658,0.2518192784
 C,0,-2.1823388047,0.8907291489,-1.4136849868
 H,0,-1.8626497441,1.9436740131,-1.4727222157
 H,0,-3.2785833736,0.8648321451,-1.4958603332
 O,0,0.1111413376,1.1854264266,1.1695578075
 O,0,-1.5608205289,0.0857660482,-2.3895385034
 N,0,0.5077055316,-0.2443976817,-0.5714555032
 H,0,0.0705948203,-0.5494509252,-1.4424110825
 C,0,1.9678305756,-0.140528994,-0.5069889269
 H,0,2.2108130438,0.0694074272,0.5382101652
 C,0,2.4504204188,1.0268580604,-1.3997654525
 C,0,2.6161956363,-1.4552639813,-0.928571156
 H,0,2.2455787276,-1.7952619898,-1.9007850602
 H,0,3.6919213443,-1.3008325381,-1.0708601591
 O,0,3.1387355363,0.8472211693,-2.39860416
 C,0,2.4229228879,-2.5433603796,0.1065481082
 O,0,2.1057822765,-2.3746688024,1.2635903728
 O,0,2.6807526965,-3.7649214869,-0.4144223723
 N,0,1.9941395654,2.2472751681,-1.0043022774
 H,0,1.5304260776,2.3477527445,-0.1046472374
 C,0,2.2734752519,3.4511131288,-1.7627184659
 H,0,3.1840580672,3.2782687586,-2.344317781
 C,0,2.5134353324,4.5907835036,-0.7817387393
 C,0,1.1253238138,3.8395038847,-2.7318874329
 H,0,1.3991647881,4.7859324402,-3.2153041591
 H,0,0.2209988365,4.0358374556,-2.1380366077
 O,0,2.170111259,4.5887871501,0.3798390995
 C,0,0.8318198357,2.7764960661,-3.7991424678
 H,0,0.5180802477,1.8381390162,-3.3307185212
 H,0,1.7501304569,2.5579571831,-4.3588764737
 C,0,-0.2654262399,3.2422974482,-4.7689864237
 H,0,-1.22787494,3.3199522868,-4.2558418388
 H,0,-0.0196931449,4.2392462732,-5.1575232602
 N,0,-0.4638038331,2.3678120183,-5.9171733361
 H,0,0.3102413548,2.2952187275,-6.5644913051
 N,0,-2.0685040257,0.9958158206,-4.9143849649
 H,0,-2.7874698443,0.3222667499,-5.1774721648
 H,0,-1.6799267402,0.5057380865,-3.2924324991
 N,0,-1.3862020778,0.6870823316,-7.1804887621
 H,0,-1.3110464662,1.2801496833,-7.9983188849
 H,0,-2.08031876,-0.0411581701,-7.2805823898
 C,0,-1.3551559942,1.3281481261,-5.9476286883
 O,0,3.119033842,5.6393034658,-1.3774888083
 H,0,3.2070189052,6.3361238128,-0.6992131569
 H,0,2.5818544338,-4.4033756316,0.3172666739
 Recover connectivity data from disk.
                           ----------------------------
                           !    Current Parameters    !
                           ! (Angstroms and Degrees)  !
 --------------------------                            --------------------------
 ! Name  Definition              Value                                          !
 --------------------------------------------------------------------------------
 ! R1    R(1,2)                  1.0237                                         !
 ! R2    R(1,3)                  1.0579                                         !
 ! R3    R(1,4)                  1.0308                                         !
 ! R4    R(1,5)                  1.5105                                         !
 ! R5    R(5,6)                  1.0917                                         !
 ! R6    R(5,7)                  1.5521                                         !
 ! R7    R(5,8)                  1.5488                                         !
 ! R8    R(7,11)                 1.2366                                         !
 ! R9    R(7,23)                 1.33                                           !
 ! R10   R(8,9)                  1.0967                                         !
 ! R11   R(8,10)                 1.0955                                         !
 ! R12   R(8,12)                 1.5148                                         !
 ! R13   R(12,13)                1.403                                          !
 ! R14   R(12,15)                1.4045                                         !
 ! R15   R(13,14)                1.0881                                         !
 ! R16   R(13,17)                1.394                                          !
 ! R17   R(15,16)                1.0893                                         !
 ! R18   R(15,19)                1.399                                          !
 ! R19   R(17,18)                1.086                                          !
 ! R20   R(17,21)                1.3983                                         !
 ! R21   R(19,20)                1.086                                          !
 ! R22   R(19,21)                1.3942                                         !
 ! R23   R(21,22)                1.0858                                         !
 ! R24   R(23,24)                1.021                                          !
 ! R25   R(23,25)                1.4579                                         !
 ! R26   R(25,26)                1.0936                                         !
 ! R27   R(25,27)                1.5462                                         !
 ! R28   R(25,28)                1.5394                                         !
 ! R29   R(27,31)                1.2337                                         !
 ! R30   R(27,34)                1.3421                                         !
 ! R31   R(28,29)                1.0995                                         !
 ! R32   R(28,30)                1.1018                                         !
 ! R33   R(28,32)                1.4147                                         !
 ! R34   R(32,33)                0.9696                                         !
 ! R35   R(34,35)                1.02                                           !
 ! R36   R(34,36)                1.4552                                         !
 ! R37   R(36,37)                1.0954                                         !
 ! R38   R(36,38)                1.5418                                         !
 ! R39   R(36,39)                1.5442                                         !
 ! R40   R(38,42)                1.238                                          !
 ! R41   R(38,44)                1.3467                                         !
 ! R42   R(39,40)                1.102                                          !
 ! R43   R(39,41)                1.0996                                         !
 ! R44   R(39,43)                1.4094                                         !
 ! R45   R(44,45)                1.0211                                         !
 ! R46   R(44,46)                1.4652                                         !
 ! R47   R(46,47)                1.0934                                         !
 ! R48   R(46,48)                1.5468                                         !
 ! R49   R(46,49)                1.5253                                         !
 ! R50   R(48,52)                1.2263                                         !
 ! R51   R(48,56)                1.3616                                         !
 ! R52   R(49,50)                1.0946                                         !
 ! R53   R(49,51)                1.096                                          !
 ! R54   R(49,53)                1.5142                                         !
 ! R55   R(53,54)                1.2115                                         !
 ! R56   R(53,55)                1.3528                                         !
 ! R57   R(55,82)                0.9761                                         !
 ! R58   R(56,57)                1.0171                                         !
 ! R59   R(56,58)                1.45                                           !
 ! R60   R(58,59)                1.0942                                         !
 ! R61   R(58,60)                1.5227                                         !
 ! R62   R(58,61)                1.5519                                         !
 ! R63   R(60,64)                1.2113                                         !
 ! R64   R(60,80)                1.3495                                         !
 ! R65   R(61,62)                1.0975                                         !
 ! R66   R(61,63)                1.0995                                         !
 ! R67   R(61,65)                1.5347                                         !
 ! R68   R(65,66)                1.0947                                         !
 ! R69   R(65,67)                1.0974                                         !
 ! R70   R(65,68)                1.5367                                         !
 ! R71   R(68,69)                1.0935                                         !
 ! R72   R(68,70)                1.0978                                         !
 ! R73   R(68,71)                1.4568                                         !
 ! R74   R(71,72)                1.0117                                         !
 ! R75   R(71,79)                1.3698                                         !
 ! R76   R(73,74)                1.0197                                         !
 ! R77   R(73,75)                1.7384                                         !
 ! R78   R(73,79)                1.2988                                         !
 ! R79   R(76,77)                1.013                                          !
 ! R80   R(76,78)                1.011                                          !
 ! R81   R(76,79)                1.3899                                         !
 ! R82   R(80,81)                0.9764                                         !
 ! A1    A(2,1,3)              108.1509                                         !
 ! A2    A(2,1,4)              108.8412                                         !
 ! A3    A(2,1,5)              112.8109                                         !
 ! A4    A(3,1,4)              113.1655                                         !
 ! A5    A(3,1,5)              102.3407                                         !
 ! A6    A(4,1,5)              111.4414                                         !
 ! A7    A(1,5,6)              108.152                                          !
 ! A8    A(1,5,7)              102.8381                                         !
 ! A9    A(1,5,8)              109.8194                                         !
 ! A10   A(6,5,7)              112.4899                                         !
 ! A11   A(6,5,8)              110.9474                                         !
 ! A12   A(7,5,8)              112.2049                                         !
 ! A13   A(5,7,11)             117.1035                                         !
 ! A14   A(5,7,23)             115.8261                                         !
 ! A15   A(11,7,23)            127.0454                                         !
 ! A16   A(5,8,9)              108.4964                                         !
 ! A17   A(5,8,10)             107.1011                                         !
 ! A18   A(5,8,12)             112.4419                                         !
 ! A19   A(9,8,10)             106.6983                                         !
 ! A20   A(9,8,12)             110.5319                                         !
 ! A21   A(10,8,12)            111.3292                                         !
 ! A22   A(8,12,13)            120.8917                                         !
 ! A23   A(8,12,15)            120.1836                                         !
 ! A24   A(13,12,15)           118.8698                                         !
 ! A25   A(12,13,14)           119.8722                                         !
 ! A26   A(12,13,17)           120.4842                                         !
 ! A27   A(14,13,17)           119.6338                                         !
 ! A28   A(12,15,16)           119.8093                                         !
 ! A29   A(12,15,19)           120.6078                                         !
 ! A30   A(16,15,19)           119.5156                                         !
 ! A31   A(13,17,18)           119.7344                                         !
 ! A32   A(13,17,21)           120.2426                                         !
 ! A33   A(18,17,21)           120.0216                                         !
 ! A34   A(15,19,20)           119.774                                          !
 ! A35   A(15,19,21)           119.9474                                         !
 ! A36   A(20,19,21)           120.2714                                         !
 ! A37   A(17,21,19)           119.8464                                         !
 ! A38   A(17,21,22)           120.0406                                         !
 ! A39   A(19,21,22)           120.1093                                         !
 ! A40   A(7,23,24)            121.7437                                         !
 ! A41   A(7,23,25)            124.9794                                         !
 ! A42   A(24,23,25)           111.9468                                         !
 ! A43   A(23,25,26)           108.7667                                         !
 ! A44   A(23,25,27)           105.3204                                         !
 ! A45   A(23,25,28)           111.2347                                         !
 ! A46   A(26,25,27)           112.1947                                         !
 ! A47   A(26,25,28)           109.2614                                         !
 ! A48   A(27,25,28)           110.0252                                         !
 ! A49   A(25,27,31)           119.4782                                         !
 ! A50   A(25,27,34)           115.4432                                         !
 ! A51   A(31,27,34)           125.0502                                         !
 ! A52   A(25,28,29)           108.4607                                         !
 ! A53   A(25,28,30)           108.8576                                         !
 ! A54   A(25,28,32)           107.7097                                         !
 ! A55   A(29,28,30)           107.7934                                         !
 ! A56   A(29,28,32)           112.1396                                         !
 ! A57   A(30,28,32)           111.7918                                         !
 ! A58   A(28,32,33)           108.1213                                         !
 ! A59   A(27,34,35)           121.321                                          !
 ! A60   A(27,34,36)           123.8201                                         !
 ! A61   A(35,34,36)           112.4345                                         !
 ! A62   A(34,36,37)           109.482                                          !
 ! A63   A(34,36,38)           105.5493                                         !
 ! A64   A(34,36,39)           112.1905                                         !
 ! A65   A(37,36,38)           110.2031                                         !
 ! A66   A(37,36,39)           107.6074                                         !
 ! A67   A(38,36,39)           111.8109                                         !
 ! A68   A(36,38,42)           120.2594                                         !
 ! A69   A(36,38,44)           115.2791                                         !
 ! A70   A(42,38,44)           124.4564                                         !
 ! A71   A(36,39,40)           109.0052                                         !
 ! A72   A(36,39,41)           107.6508                                         !
 ! A73   A(36,39,43)           107.7645                                         !
 ! A74   A(40,39,41)           107.9212                                         !
 ! A75   A(40,39,43)           112.3761                                         !
 ! A76   A(41,39,43)           111.9884                                         !
 ! A77   A(38,44,45)           115.0305                                         !
 ! A78   A(38,44,46)           121.8934                                         !
 ! A79   A(45,44,46)           119.031                                          !
 ! A80   A(44,46,47)           106.0882                                         !
 ! A81   A(44,46,48)           109.816                                          !
 ! A82   A(44,46,49)           110.507                                          !
 ! A83   A(47,46,48)           109.7233                                         !
 ! A84   A(47,46,49)           109.5867                                         !
 ! A85   A(48,46,49)           110.9994                                         !
 ! A86   A(46,48,52)           122.3223                                         !
 ! A87   A(46,48,56)           113.8443                                         !
 ! A88   A(52,48,56)           123.7774                                         !
 ! A89   A(46,49,50)           111.6719                                         !
 ! A90   A(46,49,51)           109.3674                                         !
 ! A91   A(46,49,53)           112.0977                                         !
 ! A92   A(50,49,51)           105.1159                                         !
 ! A93   A(50,49,53)           109.9227                                         !
 ! A94   A(51,49,53)           108.3774                                         !
 ! A95   A(49,53,54)           125.8897                                         !
 ! A96   A(49,53,55)           111.1796                                         !
 ! A97   A(54,53,55)           122.9158                                         !
 ! A98   A(53,55,82)           106.418                                          !
 ! A99   A(48,56,57)           119.8823                                         !
 ! A100  A(48,56,58)           121.8486                                         !
 ! A101  A(57,56,58)           117.9347                                         !
 ! A102  A(56,58,59)           107.8897                                         !
 ! A103  A(56,58,60)           108.3475                                         !
 ! A104  A(56,58,61)           113.0731                                         !
 ! A105  A(59,58,60)           109.2386                                         !
 ! A106  A(59,58,61)           108.861                                          !
 ! A107  A(60,58,61)           109.3657                                         !
 ! A108  A(58,60,64)           124.8826                                         !
 ! A109  A(58,60,80)           111.5823                                         !
 ! A110  A(64,60,80)           123.4938                                         !
 ! A111  A(58,61,62)           107.8369                                         !
 ! A112  A(58,61,63)           108.414                                          !
 ! A113  A(58,61,65)           113.7311                                         !
 ! A114  A(62,61,63)           106.8063                                         !
 ! A115  A(62,61,65)           109.7999                                         !
 ! A116  A(63,61,65)           109.9977                                         !
 ! A117  A(61,65,66)           110.5471                                         !
 ! A118  A(61,65,67)           109.4267                                         !
 ! A119  A(61,65,68)           111.4382                                         !
 ! A120  A(66,65,67)           106.7006                                         !
 ! A121  A(66,65,68)           108.9802                                         !
 ! A122  A(67,65,68)           109.63                                           !
 ! A123  A(65,68,69)           110.7213                                         !
 ! A124  A(65,68,70)           109.8034                                         !
 ! A125  A(65,68,71)           114.3732                                         !
 ! A126  A(69,68,70)           107.3741                                         !
 ! A127  A(69,68,71)           107.0156                                         !
 ! A128  A(70,68,71)           107.2563                                         !
 ! A129  A(68,71,72)           116.307                                          !
 ! A130  A(68,71,79)           124.175                                          !
 ! A131  A(72,71,79)           115.4166                                         !
 ! A132  A(74,73,75)           102.2463                                         !
 ! A133  A(74,73,79)           110.5493                                         !
 ! A134  A(75,73,79)           133.7589                                         !
 ! A135  A(77,76,78)           113.1229                                         !
 ! A136  A(77,76,79)           116.3857                                         !
 ! A137  A(78,76,79)           115.8092                                         !
 ! A138  A(71,79,73)           122.2704                                         !
 ! A139  A(71,79,76)           112.6017                                         !
 ! A140  A(73,79,76)           125.1245                                         !
 ! A141  A(60,80,81)           106.7544                                         !
 ! D1    D(2,1,5,6)             23.1711                                         !
 ! D2    D(2,1,5,7)            -96.0113                                         !
 ! D3    D(2,1,5,8)            144.375                                          !
 ! D4    D(3,1,5,6)            139.1449                                         !
 ! D5    D(3,1,5,7)             19.9625                                         !
 ! D6    D(3,1,5,8)            -99.6512                                         !
 ! D7    D(4,1,5,6)            -99.6197                                         !
 ! D8    D(4,1,5,7)            141.1979                                         !
 ! D9    D(4,1,5,8)             21.5842                                         !
 ! D10   D(1,5,7,11)           -17.944                                          !
 ! D11   D(1,5,7,23)           163.7466                                         !
 ! D12   D(6,5,7,11)          -134.0592                                         !
 ! D13   D(6,5,7,23)            47.6314                                         !
 ! D14   D(8,5,7,11)           100.0014                                         !
 ! D15   D(8,5,7,23)           -78.3079                                         !
 ! D16   D(1,5,8,9)             69.2158                                         !
 ! D17   D(1,5,8,10)          -175.9548                                         !
 ! D18   D(1,5,8,12)           -53.3525                                         !
 ! D19   D(6,5,8,9)           -171.2754                                         !
 ! D20   D(6,5,8,10)           -56.446                                          !
 ! D21   D(6,5,8,12)            66.1563                                         !
 ! D22   D(7,5,8,9)            -44.5014                                         !
 ! D23   D(7,5,8,10)            70.3281                                         !
 ! D24   D(7,5,8,12)          -167.0696                                         !
 ! D25   D(5,7,23,24)            9.667                                          !
 ! D26   D(5,7,23,25)          175.4202                                         !
 ! D27   D(11,7,23,24)        -168.4474                                         !
 ! D28   D(11,7,23,25)          -2.6942                                         !
 ! D29   D(5,8,12,13)          -77.4902                                         !
 ! D30   D(5,8,12,15)           99.7841                                         !
 ! D31   D(9,8,12,13)          161.0965                                         !
 ! D32   D(9,8,12,15)          -21.6292                                         !
 ! D33   D(10,8,12,13)          42.6966                                         !
 ! D34   D(10,8,12,15)        -140.0291                                         !
 ! D35   D(8,12,13,14)          -3.7711                                         !
 ! D36   D(8,12,13,17)         177.3702                                         !
 ! D37   D(15,12,13,14)        178.9194                                         !
 ! D38   D(15,12,13,17)          0.0607                                         !
 ! D39   D(8,12,15,16)           5.858                                          !
 ! D40   D(8,12,15,19)        -177.1386                                         !
 ! D41   D(13,12,15,16)       -176.8129                                         !
 ! D42   D(13,12,15,19)          0.1905                                         !
 ! D43   D(12,13,17,18)        179.1761                                         !
 ! D44   D(12,13,17,21)         -0.3992                                         !
 ! D45   D(14,13,17,18)          0.3147                                         !
 ! D46   D(14,13,17,21)       -179.2606                                         !
 ! D47   D(12,15,19,20)       -179.1319                                         !
 ! D48   D(12,15,19,21)         -0.1038                                         !
 ! D49   D(16,15,19,20)         -2.1197                                         !
 ! D50   D(16,15,19,21)        176.9084                                         !
 ! D51   D(13,17,21,19)          0.4858                                         !
 ! D52   D(13,17,21,22)        179.7859                                         !
 ! D53   D(18,17,21,19)       -179.0882                                         !
 ! D54   D(18,17,21,22)          0.2118                                         !
 ! D55   D(15,19,21,17)         -0.2347                                         !
 ! D56   D(15,19,21,22)       -179.5343                                         !
 ! D57   D(20,19,21,17)        178.7885                                         !
 ! D58   D(20,19,21,22)         -0.511                                          !
 ! D59   D(7,23,25,26)         -24.3319                                         !
 ! D60   D(7,23,25,27)        -144.7794                                         !
 ! D61   D(7,23,25,28)          96.0532                                         !
 ! D62   D(24,23,25,26)        142.6278                                         !
 ! D63   D(24,23,25,27)         22.1802                                         !
 ! D64   D(24,23,25,28)        -96.9872                                         !
 ! D65   D(23,25,27,31)        -15.3675                                         !
 ! D66   D(23,25,27,34)        166.4715                                         !
 ! D67   D(26,25,27,31)       -133.5338                                         !
 ! D68   D(26,25,27,34)         48.3052                                         !
 ! D69   D(28,25,27,31)        104.6025                                         !
 ! D70   D(28,25,27,34)        -73.5585                                         !
 ! D71   D(23,25,28,29)       -178.354                                          !
 ! D72   D(23,25,28,30)         64.6159                                         !
 ! D73   D(23,25,28,32)        -56.7749                                         !
 ! D74   D(26,25,28,29)        -58.2614                                         !
 ! D75   D(26,25,28,30)       -175.2915                                         !
 ! D76   D(26,25,28,32)         63.3177                                         !
 ! D77   D(27,25,28,29)         65.3298                                         !
 ! D78   D(27,25,28,30)        -51.7003                                         !
 ! D79   D(27,25,28,32)       -173.0911                                         !
 ! D80   D(25,27,34,35)          6.3349                                         !
 ! D81   D(25,27,34,36)        167.3125                                         !
 ! D82   D(31,27,34,35)       -171.7094                                         !
 ! D83   D(31,27,34,36)        -10.7318                                         !
 ! D84   D(25,28,32,33)       -172.2857                                         !
 ! D85   D(29,28,32,33)        -53.0247                                         !
 ! D86   D(30,28,32,33)         68.1712                                         !
 ! D87   D(27,34,36,37)        -32.3308                                         !
 ! D88   D(27,34,36,38)       -150.9297                                         !
 ! D89   D(27,34,36,39)         87.0644                                         !
 ! D90   D(35,34,36,37)        130.1373                                         !
 ! D91   D(35,34,36,38)         11.5384                                         !
 ! D92   D(35,34,36,39)       -110.4675                                         !
 ! D93   D(34,36,38,42)         -6.8073                                         !
 ! D94   D(34,36,38,44)        173.9821                                         !
 ! D95   D(37,36,38,42)       -124.924                                          !
 ! D96   D(37,36,38,44)         55.8653                                         !
 ! D97   D(39,36,38,42)        115.4429                                         !
 ! D98   D(39,36,38,44)        -63.7678                                         !
 ! D99   D(34,36,39,40)         61.3152                                         !
 ! D100  D(34,36,39,41)        -55.5006                                         !
 ! D101  D(34,36,39,43)       -176.4668                                         !
 ! D102  D(37,36,39,40)       -178.1977                                         !
 ! D103  D(37,36,39,41)         64.9865                                         !
 ! D104  D(37,36,39,43)        -55.9797                                         !
 ! D105  D(38,36,39,40)        -57.0487                                         !
 ! D106  D(38,36,39,41)       -173.8645                                         !
 ! D107  D(38,36,39,43)         65.1692                                         !
 ! D108  D(36,38,44,45)         17.8468                                         !
 ! D109  D(36,38,44,46)        174.9776                                         !
 ! D110  D(42,38,44,45)       -161.3263                                         !
 ! D111  D(42,38,44,46)         -4.1956                                         !
 ! D112  D(38,44,46,47)         31.0322                                         !
 ! D113  D(38,44,46,48)        -87.4748                                         !
 ! D114  D(38,44,46,49)        149.7421                                         !
 ! D115  D(45,44,46,47)       -172.7168                                         !
 ! D116  D(45,44,46,48)         68.7762                                         !
 ! D117  D(45,44,46,49)        -54.0069                                         !
 ! D118  D(44,46,48,52)       -114.6733                                         !
 ! D119  D(44,46,48,56)         62.7002                                         !
 ! D120  D(47,46,48,52)        129.0887                                         !
 ! D121  D(47,46,48,56)        -53.5378                                         !
 ! D122  D(49,46,48,52)          7.8185                                         !
 ! D123  D(49,46,48,56)       -174.8081                                         !
 ! D124  D(44,46,49,50)         52.6663                                         !
 ! D125  D(44,46,49,51)        168.5869                                         !
 ! D126  D(44,46,49,53)        -71.1879                                         !
 ! D127  D(47,46,49,50)        169.2256                                         !
 ! D128  D(47,46,49,51)        -74.8538                                         !
 ! D129  D(47,46,49,53)         45.3714                                         !
 ! D130  D(48,46,49,50)        -69.4239                                         !
 ! D131  D(48,46,49,51)         46.4966                                         !
 ! D132  D(48,46,49,53)        166.7219                                         !
 ! D133  D(46,48,56,57)         10.5653                                         !
 ! D134  D(46,48,56,58)       -176.2134                                         !
 ! D135  D(52,48,56,57)       -172.105                                          !
 ! D136  D(52,48,56,58)          1.1163                                         !
 ! D137  D(46,49,53,54)        -17.5305                                         !
 ! D138  D(46,49,53,55)        163.8456                                         !
 ! D139  D(50,49,53,54)       -142.3571                                         !
 ! D140  D(50,49,53,55)         39.0189                                         !
 ! D141  D(51,49,53,54)        103.269                                          !
 ! D142  D(51,49,53,55)        -75.355                                          !
 ! D143  D(49,53,55,82)        177.0899                                         !
 ! D144  D(54,53,55,82)         -1.5822                                         !
 ! D145  D(48,56,58,59)        -24.272                                          !
 ! D146  D(48,56,58,60)       -142.4257                                         !
 ! D147  D(48,56,58,61)         96.1747                                         !
 ! D148  D(57,56,58,59)        149.076                                          !
 ! D149  D(57,56,58,60)         30.9222                                         !
 ! D150  D(57,56,58,61)        -90.4773                                         !
 ! D151  D(56,58,60,64)        -18.6831                                         !
 ! D152  D(56,58,60,80)        163.5905                                         !
 ! D153  D(59,58,60,64)       -135.9747                                         !
 ! D154  D(59,58,60,80)         46.2989                                         !
 ! D155  D(61,58,60,64)        104.974                                          !
 ! D156  D(61,58,60,80)        -72.7524                                         !
 ! D157  D(56,58,61,62)        176.7956                                         !
 ! D158  D(56,58,61,63)         61.5021                                         !
 ! D159  D(56,58,61,65)        -61.1877                                         !
 ! D160  D(59,58,61,62)        -63.3127                                         !
 ! D161  D(59,58,61,63)       -178.6062                                         !
 ! D162  D(59,58,61,65)         58.7041                                         !
 ! D163  D(60,58,61,62)         55.9723                                         !
 ! D164  D(60,58,61,63)        -59.3212                                         !
 ! D165  D(60,58,61,65)        177.989                                          !
 ! D166  D(58,60,80,81)        177.8871                                         !
 ! D167  D(64,60,80,81)          0.1236                                         !
 ! D168  D(58,61,65,66)         61.3522                                         !
 ! D169  D(58,61,65,67)        -55.881                                          !
 ! D170  D(58,61,65,68)       -177.2931                                         !
 ! D171  D(62,61,65,66)       -177.724                                          !
 ! D172  D(62,61,65,67)         65.0427                                         !
 ! D173  D(62,61,65,68)        -56.3693                                         !
 ! D174  D(63,61,65,66)        -60.4632                                         !
 ! D175  D(63,61,65,67)       -177.6964                                         !
 ! D176  D(63,61,65,68)         60.8915                                         !
 ! D177  D(61,65,68,69)        -67.2597                                         !
 ! D178  D(61,65,68,70)         51.1353                                         !
 ! D179  D(61,65,68,71)        171.7514                                         !
 ! D180  D(66,65,68,69)         55.0028                                         !
 ! D181  D(66,65,68,70)        173.3978                                         !
 ! D182  D(66,65,68,71)        -65.9862                                         !
 ! D183  D(67,65,68,69)        171.4466                                         !
 ! D184  D(67,65,68,70)        -70.1584                                         !
 ! D185  D(67,65,68,71)         50.4576                                         !
 ! D186  D(65,68,71,72)        -64.8413                                         !
 ! D187  D(65,68,71,79)         91.2763                                         !
 ! D188  D(69,68,71,72)        172.1428                                         !
 ! D189  D(69,68,71,79)        -31.7397                                         !
 ! D190  D(70,68,71,72)         57.1781                                         !
 ! D191  D(70,68,71,79)       -146.7044                                         !
 ! D192  D(68,71,79,73)         -3.0937                                         !
 ! D193  D(68,71,79,76)        177.5456                                         !
 ! D194  D(72,71,79,73)        153.2141                                         !
 ! D195  D(72,71,79,76)        -26.1466                                         !
 ! D196  D(74,73,79,71)        169.4967                                         !
 ! D197  D(74,73,79,76)        -11.2249                                         !
 ! D198  D(75,73,79,71)        -58.2346                                         !
 ! D199  D(75,73,79,76)        121.0438                                         !
 ! D200  D(77,76,79,71)        -38.696                                          !
 ! D201  D(77,76,79,73)        141.9649                                         !
 ! D202  D(78,76,79,71)       -175.3203                                         !
 ! D203  D(78,76,79,73)          5.3406                                         !
 --------------------------------------------------------------------------------
 Symmetry turned off by external request.
 Stoichiometry    C25H39N8O10(1+)
 Framework group  C1[X(C25H39N8O10)]
 Deg. of freedom   240
 Full point group                 C1      NOp   1
                          Input orientation:                          
 ---------------------------------------------------------------------
 Center     Atomic      Atomic             Coordinates (Angstroms)
 Number     Number       Type             X           Y           Z
 ---------------------------------------------------------------------
      1          7           0       -8.500496    2.584659    4.473978
      2          1           0       -8.619368    2.140200    5.388514
      3          1           0       -7.776799    3.350171    4.571163
      4          1           0       -9.415996    2.930810    4.150561
      5          6           0       -7.865633    1.667651    3.455291
      6          1           0       -8.044042    0.636895    3.767651
      7          6           0       -6.365234    2.058555    3.527082
      8          6           0       -8.473974    1.935480    2.056413
      9          1           0       -8.140488    2.922926    1.715258
     10          1           0       -8.038257    1.201523    1.369762
     11          8           0       -6.090672    3.146133    4.047602
     12          6           0       -9.986710    1.857266    2.059082
     13          6           0      -10.643902    0.617726    2.069977
     14          1           0      -10.066048   -0.302532    2.014575
     15          6           0      -10.754454    3.032300    2.108362
     16          1           0      -10.263516    4.002840    2.048242
     17          6           0      -12.035319    0.555502    2.127474
     18          1           0      -12.532007   -0.410258    2.121746
     19          6           0      -12.150562    2.968854    2.171324
     20          1           0      -12.731570    3.886041    2.194659
     21          6           0      -12.791149    1.730625    2.183376
     22          1           0      -13.874883    1.678411    2.224566
     23          7           0       -5.514155    1.192152    2.984834
     24          1           0       -5.836325    0.401500    2.424842
     25          6           0       -4.077044    1.401169    2.856423
     26          1           0       -3.876641    2.476290    2.854631
     27          6           0       -3.684718    0.731647    1.519006
     28          6           0       -3.311913    0.743917    4.019355
     29          1           0       -2.239961    0.953913    3.893657
     30          1           0       -3.449831   -0.347844    3.964483
     31          8           0       -4.469310   -0.053051    0.979765
     32          8           0       -3.821845    1.277705    5.226208
     33          1           0       -3.264718    0.962628    5.954469
     34          7           0       -2.463671    1.040974    1.055719
     35          1           0       -1.812633    1.598938    1.608144
     36          6           0       -1.803315    0.327114   -0.026890
     37          1           0       -2.101290   -0.726791   -0.004802
     38          6           0       -0.292712    0.459291    0.251819
     39          6           0       -2.182339    0.890729   -1.413685
     40          1           0       -1.862650    1.943674   -1.472722
     41          1           0       -3.278583    0.864832   -1.495860
     42          8           0        0.111141    1.185426    1.169558
     43          8           0       -1.560821    0.085766   -2.389539
     44          7           0        0.507706   -0.244398   -0.571456
     45          1           0        0.070595   -0.549451   -1.442411
     46          6           0        1.967831   -0.140529   -0.506989
     47          1           0        2.210813    0.069407    0.538210
     48          6           0        2.450420    1.026858   -1.399765
     49          6           0        2.616196   -1.455264   -0.928571
     50          1           0        2.245579   -1.795262   -1.900785
     51          1           0        3.691921   -1.300833   -1.070860
     52          8           0        3.138736    0.847221   -2.398604
     53          6           0        2.422923   -2.543360    0.106548
     54          8           0        2.105782   -2.374669    1.263590
     55          8           0        2.680753   -3.764921   -0.414422
     56          7           0        1.994140    2.247275   -1.004302
     57          1           0        1.530426    2.347753   -0.104647
     58          6           0        2.273475    3.451113   -1.762718
     59          1           0        3.184058    3.278269   -2.344318
     60          6           0        2.513435    4.590784   -0.781739
     61          6           0        1.125324    3.839504   -2.731887
     62          1           0        1.399165    4.785932   -3.215304
     63          1           0        0.220999    4.035837   -2.138037
     64          8           0        2.170111    4.588787    0.379839
     65          6           0        0.831820    2.776496   -3.799142
     66          1           0        0.518080    1.838139   -3.330719
     67          1           0        1.750130    2.557957   -4.358876
     68          6           0       -0.265426    3.242297   -4.768986
     69          1           0       -1.227875    3.319952   -4.255842
     70          1           0       -0.019693    4.239246   -5.157523
     71          7           0       -0.463804    2.367812   -5.917173
     72          1           0        0.310241    2.295219   -6.564491
     73          7           0       -2.068504    0.995816   -4.914385
     74          1           0       -2.787470    0.322267   -5.177472
     75          1           0       -1.679927    0.505738   -3.292432
     76          7           0       -1.386202    0.687082   -7.180489
     77          1           0       -1.311046    1.280150   -7.998319
     78          1           0       -2.080319   -0.041158   -7.280582
     79          6           0       -1.355156    1.328148   -5.947629
     80          8           0        3.119034    5.639303   -1.377489
     81          1           0        3.207019    6.336124   -0.699213
     82          1           0        2.581854   -4.403376    0.317267
 ---------------------------------------------------------------------
 Rotational constants (GHZ):           0.0908220           0.0283866           0.0263216
 Standard basis: 6-31G(d) (6D, 7F)
   723 basis functions,  1360 primitive gaussians,   723 cartesian basis functions
   162 alpha electrons      162 beta electrons
       nuclear repulsion energy      5195.1152250540 Hartrees.
 NAtoms=   82 NActive=   82 NUniq=   82 SFac= 1.00D+00 NAtFMM=   60 NAOKFM=T Big=T
 Integral buffers will be    131072 words long.
 Raffenetti 2 integral format.
 Two-electron integral symmetry is turned off.
 One-electron integrals computed using PRISM.
 NBasis=   723 RedAO= T EigKep=  4.77D-04  NBF=   723
 NBsUse=   723 1.00D-06 EigRej= -1.00D+00 NBFU=   723
 Initial guess from the checkpoint file:  "conf-34.chk"
 B after Tr=     0.000000    0.000000    0.000000
         Rot=    1.000000    0.000000    0.000000    0.000000 Ang=   0.00 deg.
 Requested convergence on RMS density matrix=1.00D-08 within 128 cycles.
 Requested convergence on MAX density matrix=1.00D-06.
 Requested convergence on             energy=1.00D-06.
 No special actions if energy rises.
 SCF Done:  E(RB3LYP) =  -2166.27830114     A.U. after    2 cycles
            NFock=  2  Conv=0.96D-08     -V/T= 2.0092

 **********************************************************************

            Population analysis using the SCF Density.

 **********************************************************************

 Alpha  occ. eigenvalues --  -19.26039 -19.25627 -19.24735 -19.23850 -19.21534
 Alpha  occ. eigenvalues --  -19.20423 -19.19700 -19.19511 -19.19153 -19.17289
 Alpha  occ. eigenvalues --  -14.58976 -14.48599 -14.44956 -14.42759 -14.42013
 Alpha  occ. eigenvalues --  -14.41945 -14.41296 -14.36432 -10.42631 -10.40091
 Alpha  occ. eigenvalues --  -10.38644 -10.38368 -10.37438 -10.36335 -10.36108
 Alpha  occ. eigenvalues --  -10.34434 -10.33945 -10.33782 -10.33428 -10.32081
 Alpha  occ. eigenvalues --  -10.31006 -10.30831 -10.30476 -10.30278 -10.30181
 Alpha  occ. eigenvalues --  -10.30068 -10.29838 -10.29811 -10.29628 -10.28221
 Alpha  occ. eigenvalues --  -10.25858 -10.25614 -10.24334  -1.18210  -1.16967
 Alpha  occ. eigenvalues --   -1.15663  -1.13637  -1.12893  -1.11432  -1.11290
 Alpha  occ. eigenvalues --   -1.09159  -1.07996  -1.07046  -1.06666  -1.05167
 Alpha  occ. eigenvalues --   -1.05019  -1.01548  -0.99676  -0.98041  -0.97465
 Alpha  occ. eigenvalues --   -0.95851  -0.92822  -0.91500  -0.88365  -0.86480
 Alpha  occ. eigenvalues --   -0.85856  -0.85640  -0.84959  -0.82200  -0.80914
 Alpha  occ. eigenvalues --   -0.79235  -0.75576  -0.75078  -0.73893  -0.73262
 Alpha  occ. eigenvalues --   -0.72800  -0.72437  -0.71452  -0.70019  -0.69965
 Alpha  occ. eigenvalues --   -0.68486  -0.67603  -0.66963  -0.66181  -0.65629
 Alpha  occ. eigenvalues --   -0.64691  -0.64537  -0.63878  -0.62851  -0.62526
 Alpha  occ. eigenvalues --   -0.61320  -0.61131  -0.60509  -0.59469  -0.59232
 Alpha  occ. eigenvalues --   -0.58543  -0.57624  -0.57189  -0.57121  -0.56393
 Alpha  occ. eigenvalues --   -0.55702  -0.55239  -0.55099  -0.54731  -0.54416
 Alpha  occ. eigenvalues --   -0.54065  -0.53759  -0.53478  -0.53216  -0.53154
 Alpha  occ. eigenvalues --   -0.52885  -0.52735  -0.52537  -0.52099  -0.51409
 Alpha  occ. eigenvalues --   -0.50930  -0.50903  -0.50696  -0.50355  -0.50260
 Alpha  occ. eigenvalues --   -0.49691  -0.49208  -0.48694  -0.48456  -0.47278
 Alpha  occ. eigenvalues --   -0.46959  -0.46544  -0.46257  -0.45920  -0.45756
 Alpha  occ. eigenvalues --   -0.45608  -0.45316  -0.44699  -0.44272  -0.43834
 Alpha  occ. eigenvalues --   -0.43645  -0.43609  -0.43005  -0.42757  -0.41873
 Alpha  occ. eigenvalues --   -0.41327  -0.40395  -0.40225  -0.39726  -0.38262
 Alpha  occ. eigenvalues --   -0.38076  -0.37019  -0.36546  -0.36467  -0.36045
 Alpha  occ. eigenvalues --   -0.35802  -0.35364  -0.34659  -0.34143  -0.33931
 Alpha  occ. eigenvalues --   -0.33860  -0.32855  -0.32495  -0.32322  -0.31077
 Alpha  occ. eigenvalues --   -0.29992  -0.29801
 Alpha virt. eigenvalues --   -0.12724  -0.12168  -0.10385  -0.09324  -0.07384
 Alpha virt. eigenvalues --   -0.06106  -0.05374  -0.04248  -0.03971  -0.02876
 Alpha virt. eigenvalues --   -0.02415  -0.02260  -0.01576  -0.01080  -0.00489
 Alpha virt. eigenvalues --   -0.00398   0.00058   0.00720   0.01284   0.01848
 Alpha virt. eigenvalues --    0.01875   0.02435   0.02801   0.03767   0.03816
 Alpha virt. eigenvalues --    0.04133   0.04696   0.04886   0.05266   0.05646
 Alpha virt. eigenvalues --    0.05796   0.06168   0.06826   0.07104   0.07851
 Alpha virt. eigenvalues --    0.08091   0.08259   0.08518   0.08838   0.09031
 Alpha virt. eigenvalues --    0.09408   0.09698   0.09868   0.10316   0.10663
 Alpha virt. eigenvalues --    0.10813   0.11035   0.11589   0.11931   0.12134
 Alpha virt. eigenvalues --    0.12397   0.12858   0.13397   0.13700   0.14007
 Alpha virt. eigenvalues --    0.14190   0.15156   0.15394   0.16033   0.16340
 Alpha virt. eigenvalues --    0.16560   0.17052   0.17770   0.18412   0.18784
 Alpha virt. eigenvalues --    0.19473   0.19736   0.20351   0.20792   0.20946
 Alpha virt. eigenvalues --    0.21397   0.21622   0.22248   0.23232   0.23309
 Alpha virt. eigenvalues --    0.24282   0.24634   0.25065   0.26350   0.27678
 Alpha virt. eigenvalues --    0.28163   0.29258   0.30250   0.31337   0.31740
 Alpha virt. eigenvalues --    0.32850   0.33581   0.34099   0.35789   0.36888
 Alpha virt. eigenvalues --    0.37124   0.38286   0.38583   0.39059   0.41757
 Alpha virt. eigenvalues --    0.42146   0.42751   0.43062   0.43640   0.43802
 Alpha virt. eigenvalues --    0.43976   0.44871   0.45038   0.45193   0.45560
 Alpha virt. eigenvalues --    0.46048   0.46392   0.47538   0.47752   0.47851
 Alpha virt. eigenvalues --    0.48200   0.48388   0.48476   0.49053   0.49360
 Alpha virt. eigenvalues --    0.49900   0.50490   0.50579   0.50866   0.51141
 Alpha virt. eigenvalues --    0.51209   0.51651   0.51936   0.52475   0.52763
 Alpha virt. eigenvalues --    0.53015   0.53370   0.53961   0.54326   0.54625
 Alpha virt. eigenvalues --    0.55357   0.55634   0.55893   0.55997   0.56682
 Alpha virt. eigenvalues --    0.57074   0.57734   0.58217   0.59345   0.59558
 Alpha virt. eigenvalues --    0.60159   0.60285   0.60858   0.60937   0.61466
 Alpha virt. eigenvalues --    0.61695   0.62105   0.62261   0.62718   0.63355
 Alpha virt. eigenvalues --    0.63886   0.63974   0.64460   0.65042   0.65194
 Alpha virt. eigenvalues --    0.66141   0.66261   0.67597   0.68347   0.68628
 Alpha virt. eigenvalues --    0.68895   0.69102   0.69993   0.70443   0.70972
 Alpha virt. eigenvalues --    0.71118   0.71271   0.72532   0.72666   0.72921
 Alpha virt. eigenvalues --    0.73222   0.73416   0.73777   0.73904   0.74060
 Alpha virt. eigenvalues --    0.74632   0.75090   0.75254   0.75586   0.75855
 Alpha virt. eigenvalues --    0.75901   0.76116   0.76861   0.77064   0.77343
 Alpha virt. eigenvalues --    0.77563   0.78431   0.78798   0.79107   0.79243
 Alpha virt. eigenvalues --    0.79315   0.80105   0.80325   0.80506   0.80834
 Alpha virt. eigenvalues --    0.81170   0.81562   0.81934   0.82182   0.82251
 Alpha virt. eigenvalues --    0.83021   0.83053   0.83622   0.83755   0.84078
 Alpha virt. eigenvalues --    0.84548   0.84834   0.85252   0.85412   0.86078
 Alpha virt. eigenvalues --    0.86197   0.86449   0.86737   0.86898   0.87584
 Alpha virt. eigenvalues --    0.88004   0.88288   0.88507   0.88693   0.89091
 Alpha virt. eigenvalues --    0.89634   0.90369   0.90543   0.91241   0.91621
 Alpha virt. eigenvalues --    0.91853   0.92552   0.93171   0.93611   0.94809
 Alpha virt. eigenvalues --    0.94984   0.95421   0.95837   0.96697   0.97468
 Alpha virt. eigenvalues --    0.98649   0.98944   0.99696   1.00470   1.00813
 Alpha virt. eigenvalues --    1.00972   1.01185   1.01640   1.02349   1.03191
 Alpha virt. eigenvalues --    1.04168   1.05372   1.05599   1.05718   1.06092
 Alpha virt. eigenvalues --    1.06463   1.07949   1.08650   1.09299   1.09708
 Alpha virt. eigenvalues --    1.11103   1.13485   1.13925   1.14510   1.15001
 Alpha virt. eigenvalues --    1.15400   1.16188   1.16239   1.17800   1.18881
 Alpha virt. eigenvalues --    1.19364   1.20501   1.20981   1.21820   1.22293
 Alpha virt. eigenvalues --    1.23057   1.23908   1.24262   1.24631   1.25843
 Alpha virt. eigenvalues --    1.26153   1.27149   1.28321   1.29028   1.29392
 Alpha virt. eigenvalues --    1.30536   1.31538   1.32342   1.32780   1.33390
 Alpha virt. eigenvalues --    1.33739   1.34410   1.35198   1.35579   1.35938
 Alpha virt. eigenvalues --    1.36370   1.36826   1.36943   1.37931   1.38669
 Alpha virt. eigenvalues --    1.39168   1.39487   1.40251   1.40603   1.41593
 Alpha virt. eigenvalues --    1.42619   1.43441   1.44962   1.46189   1.47798
 Alpha virt. eigenvalues --    1.48443   1.48776   1.49694   1.51017   1.51980
 Alpha virt. eigenvalues --    1.52674   1.54034   1.54308   1.54658   1.57017
 Alpha virt. eigenvalues --    1.57244   1.58059   1.59023   1.59247   1.59755
 Alpha virt. eigenvalues --    1.60725   1.61059   1.61631   1.62772   1.63093
 Alpha virt. eigenvalues --    1.63499   1.63959   1.64382   1.64846   1.65676
 Alpha virt. eigenvalues --    1.66650   1.67539   1.68270   1.68391   1.68859
 Alpha virt. eigenvalues --    1.68969   1.69156   1.70417   1.70597   1.70670
 Alpha virt. eigenvalues --    1.71594   1.71957   1.72055   1.72832   1.73213
 Alpha virt. eigenvalues --    1.73359   1.73751   1.74462   1.75002   1.75226
 Alpha virt. eigenvalues --    1.75801   1.76342   1.76784   1.77536   1.77959
 Alpha virt. eigenvalues --    1.78214   1.78429   1.78688   1.79546   1.79957
 Alpha virt. eigenvalues --    1.80160   1.80725   1.81211   1.81383   1.81679
 Alpha virt. eigenvalues --    1.83275   1.83475   1.84154   1.85124   1.85376
 Alpha virt. eigenvalues --    1.85632   1.85913   1.86695   1.87663   1.88011
 Alpha virt. eigenvalues --    1.88333   1.88639   1.90103   1.90126   1.90342
 Alpha virt. eigenvalues --    1.90528   1.91320   1.91815   1.92478   1.93121
 Alpha virt. eigenvalues --    1.94046   1.94297   1.94691   1.95019   1.95569
 Alpha virt. eigenvalues --    1.96596   1.97119   1.97841   1.97909   1.98482
 Alpha virt. eigenvalues --    1.98989   2.00171   2.00311   2.00804   2.02128
 Alpha virt. eigenvalues --    2.02251   2.02560   2.02870   2.03352   2.03639
 Alpha virt. eigenvalues --    2.04330   2.04859   2.06125   2.06663   2.07421
 Alpha virt. eigenvalues --    2.07765   2.08876   2.09045   2.10857   2.11640
 Alpha virt. eigenvalues --    2.12960   2.13366   2.14470   2.15407   2.16144
 Alpha virt. eigenvalues --    2.17143   2.19325   2.19855   2.20577   2.20838
 Alpha virt. eigenvalues --    2.21698   2.22480   2.22649   2.24713   2.25235
 Alpha virt. eigenvalues --    2.26458   2.26512   2.27036   2.28392   2.28925
 Alpha virt. eigenvalues --    2.29153   2.29780   2.30968   2.31243   2.31989
 Alpha virt. eigenvalues --    2.33143   2.33819   2.34975   2.35661   2.36296
 Alpha virt. eigenvalues --    2.36706   2.37706   2.38561   2.38812   2.39817
 Alpha virt. eigenvalues --    2.39919   2.41836   2.43379   2.43636   2.44712
 Alpha virt. eigenvalues --    2.44942   2.46224   2.46522   2.47016   2.47470
 Alpha virt. eigenvalues --    2.48111   2.48598   2.49736   2.51246   2.52159
 Alpha virt. eigenvalues --    2.53438   2.54240   2.54425   2.55444   2.55979
 Alpha virt. eigenvalues --    2.56385   2.57342   2.57789   2.59313   2.60188
 Alpha virt. eigenvalues --    2.60543   2.60884   2.61429   2.61974   2.62617
 Alpha virt. eigenvalues --    2.63785   2.63810   2.64643   2.65293   2.65659
 Alpha virt. eigenvalues --    2.66759   2.68083   2.70205   2.71871   2.74057
 Alpha virt. eigenvalues --    2.74600   2.76893   2.77313   2.78371   2.79359
 Alpha virt. eigenvalues --    2.80553   2.81691   2.82336   2.83232   2.86248
 Alpha virt. eigenvalues --    2.87459   2.88913   2.89800   2.91132   2.92338
 Alpha virt. eigenvalues --    2.92884   2.93386   2.93695   2.95221   2.97822
 Alpha virt. eigenvalues --    3.03211   3.03569   3.05624   3.06461   3.08998
 Alpha virt. eigenvalues --    3.13270   3.13601   3.29089   3.67621   3.70767
 Alpha virt. eigenvalues --    3.73528   3.78696   3.80703   3.84912   3.90654
 Alpha virt. eigenvalues --    3.92492   3.94316   3.97662   3.97875   3.98554
 Alpha virt. eigenvalues --    4.01133   4.02048   4.02560   4.03925   4.04709
 Alpha virt. eigenvalues --    4.05509   4.06143   4.09054   4.13817   4.17542
 Alpha virt. eigenvalues --    4.18309   4.21264   4.21589   4.22516   4.23066
 Alpha virt. eigenvalues --    4.25336   4.28521   4.29333   4.31109   4.32620
 Alpha virt. eigenvalues --    4.33562   4.37924   4.42352   4.44722   4.46473
 Alpha virt. eigenvalues --    4.48648   4.53084   4.56089   4.58866   4.59385
 Alpha virt. eigenvalues --    4.63729
          Condensed to atoms (all electrons):
 Mulliken charges:
               1
     1  N   -0.750492
     2  H    0.415829
     3  H    0.427360
     4  H    0.403349
     5  C   -0.114557
     6  H    0.212009
     7  C    0.671516
     8  C   -0.386402
     9  H    0.193570
    10  H    0.210177
    11  O   -0.529293
    12  C    0.139523
    13  C   -0.181047
    14  H    0.146773
    15  C   -0.229348
    16  H    0.150291
    17  C   -0.122571
    18  H    0.167223
    19  C   -0.120406
    20  H    0.166664
    21  C   -0.123906
    22  H    0.168649
    23  N   -0.595448
    24  H    0.366153
    25  C   -0.092419
    26  H    0.205890
    27  C    0.623029
    28  C   -0.022246
    29  H    0.162888
    30  H    0.144852
    31  O   -0.542189
    32  O   -0.615557
    33  H    0.412783
    34  N   -0.619320
    35  H    0.367895
    36  C   -0.069291
    37  H    0.199396
    38  C    0.615788
    39  C   -0.012145
    40  H    0.126858
    41  H    0.149168
    42  O   -0.555558
    43  O   -0.690221
    44  N   -0.596272
    45  H    0.378157
    46  C   -0.081464
    47  H    0.213869
    48  C    0.630929
    49  C   -0.369182
    50  H    0.189366
    51  H    0.215576
    52  O   -0.525368
    53  C    0.587106
    54  O   -0.460990
    55  O   -0.564284
    56  N   -0.627500
    57  H    0.372307
    58  C   -0.037458
    59  H    0.202572
    60  C    0.578670
    61  C   -0.272467
    62  H    0.160665
    63  H    0.140178
    64  O   -0.459998
    65  C   -0.272621
    66  H    0.162870
    67  H    0.155436
    68  C   -0.129037
    69  H    0.173965
    70  H    0.149166
    71  N   -0.598357
    72  H    0.333151
    73  N   -0.729954
    74  H    0.287943
    75  H    0.467858
    76  N   -0.756656
    77  H    0.337450
    78  H    0.335410
    79  C    0.662882
    80  O   -0.562316
    81  H    0.419593
    82  H    0.413590
 Sum of Mulliken charges =   1.00000
 Mulliken charges with hydrogens summed into heavy atoms:
               1
     1  N    0.496046
     5  C    0.097452
     7  C    0.671516
     8  C    0.017346
    11  O   -0.529293
    12  C    0.139523
    13  C   -0.034274
    15  C   -0.079057
    17  C    0.044652
    19  C    0.046258
    21  C    0.044744
    23  N   -0.229295
    25  C    0.113471
    27  C    0.623029
    28  C    0.285493
    31  O   -0.542189
    32  O   -0.202774
    34  N   -0.251426
    36  C    0.130105
    38  C    0.615788
    39  C    0.263880
    42  O   -0.555558
    43  O   -0.222362
    44  N   -0.218115
    46  C    0.132405
    48  C    0.630929
    49  C    0.035760
    52  O   -0.525368
    53  C    0.587106
    54  O   -0.460990
    55  O   -0.150694
    56  N   -0.255193
    58  C    0.165114
    60  C    0.578670
    61  C    0.028376
    64  O   -0.459998
    65  C    0.045685
    68  C    0.194094
    71  N   -0.265206
    73  N   -0.442012
    76  N   -0.083796
    79  C    0.662882
    80  O   -0.142723
 Electronic spatial extent (au):  <R**2>=          50569.1764
 Charge=              1.0000 electrons
 Dipole moment (field-independent basis, Debye):
    X=            -33.9843    Y=              9.3082    Z=              6.4414  Tot=             35.8199
 Quadrupole moment (field-independent basis, Debye-Ang):
   XX=             78.2704   YY=           -200.0752   ZZ=           -121.7157
   XY=            -60.4725   XZ=           -114.2207   YZ=              5.9035
 Traceless Quadrupole moment (field-independent basis, Debye-Ang):
   XX=            159.4439   YY=           -118.9017   ZZ=            -40.5422
   XY=            -60.4725   XZ=           -114.2207   YZ=              5.9035
 Octapole moment (field-independent basis, Debye-Ang**2):
  XXX=          -1382.4676  YYY=           -866.2290  ZZZ=           -173.5176  XYY=            537.8403
  XXY=            330.6449  XXZ=           1164.0961  XZZ=             17.1949  YZZ=           -154.5296
  YYZ=             11.6673  XYZ=           -266.3565
 Hexadecapole moment (field-independent basis, Debye-Ang**3):
 XXXX=          -7986.6100 YYYY=          -6612.9634 ZZZZ=          -7562.8531 XXXY=          -3238.0872
 XXXZ=          -5353.6255 YYYX=           3227.2363 YYYZ=             89.1489 ZZZX=           4256.4786
 ZZZY=              4.1654 XXYY=          -6276.9010 XXZZ=          -5047.5995 YYZZ=          -3284.3362
 XXYZ=           2554.1391 YYXZ=           1244.5329 ZZXY=            248.3473
 N-N= 5.195115225054D+03 E-N=-1.541939816309D+04  KE= 2.146487175626D+03
 Unable to Open any file for archive entry.
 1\1\GINC-VIM-000\SP\RB3LYP\6-31G(d)\C25H39N8O10(1+)\KENGMITH\26-May-20
 22\0\\# B3LYP/6-31G* guess=read geom=check nosymm integral(ultrafinegr
 id)\\Candidate Structure: Conf:34 Charge calc in gas phase\\1,1\N,0,-8
 .5004961574,2.5846587485,4.4739784477\H,0,-8.6193684461,2.1401995182,5
 .3885143784\H,0,-7.7767990514,3.3501708393,4.5711631436\H,0,-9.4159962
 625,2.9308104703,4.1505613174\C,0,-7.8656331036,1.6676511285,3.4552912
 789\H,0,-8.044041623,0.6368953599,3.7676510316\C,0,-6.3652343565,2.058
 5549378,3.5270822651\C,0,-8.473973788,1.9354800233,2.0564129261\H,0,-8
 .1404883973,2.922925841,1.715257926\H,0,-8.0382567444,1.2015233622,1.3
 697620672\O,0,-6.0906717547,3.1461325152,4.0476022366\C,0,-9.986709587
 2,1.8572660013,2.0590816234\C,0,-10.6439020441,0.6177258389,2.06997691
 67\H,0,-10.0660479998,-0.3025321788,2.0145746592\C,0,-10.7544541266,3.
 0323004613,2.1083616769\H,0,-10.2635160194,4.0028398165,2.048242393\C,
 0,-12.0353194714,0.5555022851,2.1274736058\H,0,-12.5320069465,-0.41025
 82912,2.1217455123\C,0,-12.1505623914,2.9688543012,2.1713235466\H,0,-1
 2.7315698862,3.8860408031,2.1946588003\C,0,-12.791148829,1.7306247381,
 2.1833758833\H,0,-13.8748828442,1.6784113099,2.2245655803\N,0,-5.51415
 46121,1.1921520412,2.9848338758\H,0,-5.836325497,0.4015002494,2.424842
 3901\C,0,-4.0770437455,1.4011686805,2.856423118\H,0,-3.8766409224,2.47
 62897409,2.8546305635\C,0,-3.6847175227,0.7316465784,1.5190064454\C,0,
 -3.3119134766,0.7439173456,4.0193553514\H,0,-2.2399612232,0.9539134171
 ,3.8936565917\H,0,-3.4498312288,-0.3478437794,3.9644827129\O,0,-4.4693
 102236,-0.0530508274,0.9797654936\O,0,-3.8218448894,1.2777045512,5.226
 2080688\H,0,-3.26471778,0.9626280767,5.9544690031\N,0,-2.4636713907,1.
 0409743572,1.0557191522\H,0,-1.8126329852,1.5989376137,1.6081443174\C,
 0,-1.8033148011,0.3271136506,-0.0268901582\H,0,-2.101289827,-0.7267912
 693,-0.0048023194\C,0,-0.2927120476,0.4592906658,0.2518192784\C,0,-2.1
 823388047,0.8907291489,-1.4136849868\H,0,-1.8626497441,1.9436740131,-1
 .4727222157\H,0,-3.2785833736,0.8648321451,-1.4958603332\O,0,0.1111413
 376,1.1854264266,1.1695578075\O,0,-1.5608205289,0.0857660482,-2.389538
 5034\N,0,0.5077055316,-0.2443976817,-0.5714555032\H,0,0.0705948203,-0.
 5494509252,-1.4424110825\C,0,1.9678305756,-0.140528994,-0.5069889269\H
 ,0,2.2108130438,0.0694074272,0.5382101652\C,0,2.4504204188,1.026858060
 4,-1.3997654525\C,0,2.6161956363,-1.4552639813,-0.928571156\H,0,2.2455
 787276,-1.7952619898,-1.9007850602\H,0,3.6919213443,-1.3008325381,-1.0
 708601591\O,0,3.1387355363,0.8472211693,-2.39860416\C,0,2.4229228879,-
 2.5433603796,0.1065481082\O,0,2.1057822765,-2.3746688024,1.2635903728\
 O,0,2.6807526965,-3.7649214869,-0.4144223723\N,0,1.9941395654,2.247275
 1681,-1.0043022774\H,0,1.5304260776,2.3477527445,-0.1046472374\C,0,2.2
 734752519,3.4511131288,-1.7627184659\H,0,3.1840580672,3.2782687586,-2.
 344317781\C,0,2.5134353324,4.5907835036,-0.7817387393\C,0,1.1253238138
 ,3.8395038847,-2.7318874329\H,0,1.3991647881,4.7859324402,-3.215304159
 1\H,0,0.2209988365,4.0358374556,-2.1380366077\O,0,2.170111259,4.588787
 1501,0.3798390995\C,0,0.8318198357,2.7764960661,-3.7991424678\H,0,0.51
 80802477,1.8381390162,-3.3307185212\H,0,1.7501304569,2.5579571831,-4.3
 588764737\C,0,-0.2654262399,3.2422974482,-4.7689864237\H,0,-1.22787494
 ,3.3199522868,-4.2558418388\H,0,-0.0196931449,4.2392462732,-5.15752326
 02\N,0,-0.4638038331,2.3678120183,-5.9171733361\H,0,0.3102413548,2.295
 2187275,-6.5644913051\N,0,-2.0685040257,0.9958158206,-4.9143849649\H,0
 ,-2.7874698443,0.3222667499,-5.1774721648\H,0,-1.6799267402,0.50573808
 65,-3.2924324991\N,0,-1.3862020778,0.6870823316,-7.1804887621\H,0,-1.3
 110464662,1.2801496833,-7.9983188849\H,0,-2.08031876,-0.0411581701,-7.
 2805823898\C,0,-1.3551559942,1.3281481261,-5.9476286883\O,0,3.11903384
 2,5.6393034658,-1.3774888083\H,0,3.2070189052,6.3361238128,-0.69921315
 69\H,0,2.5818544338,-4.4033756316,0.3172666739\\Version=ES64L-G16RevC.
 01\HF=-2166.2783011\RMSD=9.566e-09\Dipole=-8.5987996,1.0887983,2.51762
 86\Quadrupole=118.5426167,-88.4004829,-30.1421338,-44.9597896,-84.9202
 915,4.3890994\PG=C01 [X(C25H39N8O10)]\\@
 The archive entry for this job was punched.


 You can't act like a skunk without someone's getting wind of it.
 -- Lorene Workman
 Job cpu time:       0 days  0 hours  3 minutes 28.6 seconds.
 Elapsed time:       0 days  0 hours  0 minutes 52.9 seconds.
 File lengths (MBytes):  RWF=    384 Int=      0 D2E=      0 Chk=     56 Scr=     16
 Normal termination of Gaussian 16 at Thu May 26 21:38:30 2022.
