 Entering Gaussian System, Link 0=/opt/software/Gaussian/g16-AVX2-C.01/g16/g16
 Input=charge-conf-879.com
 Output=charge-conf-879.log
 Initial command:
 /opt/software/Gaussian/g16-AVX2-C.01/g16/l1.exe "/mnt/gs18/scratch/users/kengmith/Gau-42019.inp" -scrdir="/mnt/gs18/scratch/users/kengmith/"
 Entering Link 1 = /opt/software/Gaussian/g16-AVX2-C.01/g16/l1.exe PID=     42029.
  
 Copyright (c) 1988-2019, Gaussian, Inc.  All Rights Reserved.
  
 This is part of the Gaussian(R) 16 program.  It is based on
 the Gaussian(R) 09 system (copyright 2009, Gaussian, Inc.),
 the Gaussian(R) 03 system (copyright 2003, Gaussian, Inc.),
 the Gaussian(R) 98 system (copyright 1998, Gaussian, Inc.),
 the Gaussian(R) 94 system (copyright 1995, Gaussian, Inc.),
 the Gaussian 92(TM) system (copyright 1992, Gaussian, Inc.),
 the Gaussian 90(TM) system (copyright 1990, Gaussian, Inc.),
 the Gaussian 88(TM) system (copyright 1988, Gaussian, Inc.),
 the Gaussian 86(TM) system (copyright 1986, Carnegie Mellon
 University), and the Gaussian 82(TM) system (copyright 1983,
 Carnegie Mellon University). Gaussian is a federally registered
 trademark of Gaussian, Inc.
  
 This software contains proprietary and confidential information,
 including trade secrets, belonging to Gaussian, Inc.
  
 This software is provided under written license and may be
 used, copied, transmitted, or stored only in accord with that
 written license.
  
 The following legend is applicable only to US Government
 contracts under FAR:
  
                    RESTRICTED RIGHTS LEGEND
  
 Use, reproduction and disclosure by the US Government is
 subject to restrictions as set forth in subparagraphs (a)
 and (c) of the Commercial Computer Software - Restricted
 Rights clause in FAR 52.227-19.
  
 Gaussian, Inc.
 340 Quinnipiac St., Bldg. 40, Wallingford CT 06492
  
  
 ---------------------------------------------------------------
 Warning -- This program may not be used in any manner that
 competes with the business of Gaussian, Inc. or will provide
 assistance to any competitor of Gaussian, Inc.  The licensee
 of this program is prohibited from giving any competitor of
 Gaussian, Inc. access to this program.  By using this program,
 the user acknowledges that Gaussian, Inc. is engaged in the
 business of creating and licensing software in the field of
 computational chemistry and represents and warrants to the
 licensee that it is not a competitor of Gaussian, Inc. and that
 it will not use this program in any manner prohibited above.
 ---------------------------------------------------------------
  

 Cite this work as:
 Gaussian 16, Revision C.01,
 M. J. Frisch, G. W. Trucks, H. B. Schlegel, G. E. Scuseria, 
 M. A. Robb, J. R. Cheeseman, G. Scalmani, V. Barone, 
 G. A. Petersson, H. Nakatsuji, X. Li, M. Caricato, A. V. Marenich, 
 J. Bloino, B. G. Janesko, R. Gomperts, B. Mennucci, H. P. Hratchian, 
 J. V. Ortiz, A. F. Izmaylov, J. L. Sonnenberg, D. Williams-Young, 
 F. Ding, F. Lipparini, F. Egidi, J. Goings, B. Peng, A. Petrone, 
 T. Henderson, D. Ranasinghe, V. G. Zakrzewski, J. Gao, N. Rega, 
 G. Zheng, W. Liang, M. Hada, M. Ehara, K. Toyota, R. Fukuda, 
 J. Hasegawa, M. Ishida, T. Nakajima, Y. Honda, O. Kitao, H. Nakai, 
 T. Vreven, K. Throssell, J. A. Montgomery, Jr., J. E. Peralta, 
 F. Ogliaro, M. J. Bearpark, J. J. Heyd, E. N. Brothers, K. N. Kudin, 
 V. N. Staroverov, T. A. Keith, R. Kobayashi, J. Normand, 
 K. Raghavachari, A. P. Rendell, J. C. Burant, S. S. Iyengar, 
 J. Tomasi, M. Cossi, J. M. Millam, M. Klene, C. Adamo, R. Cammi, 
 J. W. Ochterski, R. L. Martin, K. Morokuma, O. Farkas, 
 J. B. Foresman, and D. J. Fox, Gaussian, Inc., Wallingford CT, 2019.
 
 ******************************************
 Gaussian 16:  ES64L-G16RevC.01  3-Jul-2019
                 2-Jun-2022 
 ******************************************
 %mem=8gb
 %nproc=4
 Will use up to    4 processors via shared memory.
 %chk=conf-879.chk
 ----------------------------------------------------------------------
 # B3LYP/6-31G* empiricaldispersion=gd3 guess=read geom=check nosymm in
 tegral(ultrafinegrid)
 ----------------------------------------------------------------------
 1/29=2,38=1,172=1/1;
 2/12=2,15=1,40=1/2;
 3/5=1,6=6,7=1,11=2,14=-4,25=1,30=1,74=-5,75=-5,116=-2,124=31/1,2,3;
 4/5=1/1;
 5/5=2,38=6/2;
 6/7=2,8=2,9=2,10=2,28=1/1;
 99/5=1,9=1/99;
 ------------------------------------------------------
 Candidate Structure: Conf:879 Charge calc in gas phase
 ------------------------------------------------------
 Structure from the checkpoint file:  "conf-879.chk"
 Charge =  1 Multiplicity = 1
 Redundant internal coordinates found in file.  (old form).
 N,0,-0.5450894049,-1.5672437156,-3.0247548054
 H,0,-0.5021717925,-1.469558841,-4.0378964353
 H,0,-0.8254896705,-2.5286951036,-2.8207374976
 C,0,-1.5753680863,-0.669548812,-2.4657288789
 H,0,-1.1077183943,0.3048787585,-2.3044670483
 C,0,-2.0356466338,-1.2763509484,-1.1319283717
 C,0,-2.808427797,-0.4521848952,-3.39364009
 H,0,-3.5032310586,0.2238099497,-2.8801740973
 H,0,-2.4518472692,0.0842083317,-4.2819801376
 O,0,-2.0119379173,-2.4938142624,-0.9603095784
 C,0,-3.5084774325,-1.7272270579,-3.8013940918
 C,0,-3.1538113419,-2.3874254105,-4.9850437486
 H,0,-2.4076363638,-1.9468703275,-5.6439678666
 C,0,-4.499207511,-2.2938096784,-2.9888448553
 H,0,-4.7895846533,-1.789819124,-2.0699121052
 C,0,-3.7660061289,-3.5890926725,-5.3455145398
 H,0,-3.4839653055,-4.0832373234,-6.2711155555
 C,0,-5.1157301728,-3.4918851852,-3.345821099
 H,0,-5.8855527301,-3.9145804578,-2.7062792464
 C,0,-4.7480392852,-4.1450016417,-4.5244723937
 H,0,-5.2312542225,-5.0763775331,-4.8056492979
 N,0,-2.5484689999,-0.425070042,-0.1914299227
 C,0,-2.2419425211,1.0094334489,-0.069568366
 H,0,-2.4882471546,1.5615636591,-0.9790750254
 C,0,-0.7434193912,1.2890033443,0.1963661753
 C,0,-3.1337648831,1.4494136804,1.1096265839
 H,0,-2.7464176717,2.3462525365,1.5990660258
 H,0,-4.1368025972,1.6748676823,0.7313927687
 O,0,-0.2407673535,2.3530639005,-0.1148374846
 C,0,-3.1657710462,0.2072138848,2.015078768
 H,0,-2.25409034,0.1658456012,2.6219034757
 H,0,-4.0209693666,0.1988240977,2.6953157771
 C,0,-3.1997391433,-0.9652749896,1.0227860643
 H,0,-4.2229432421,-1.270037257,0.774345606
 H,0,-2.6722495799,-1.8581887061,1.3706743799
 N,0,-0.0558727395,0.2700641727,0.8275183397
 H,0,-0.5536780936,-0.6086420779,0.885249635
 C,0,1.3985188076,0.1451662845,0.6980402276
 H,0,1.763144308,1.1368190689,0.4166299478
 C,0,1.6397398852,-0.8251300503,-0.4756507795
 C,0,2.0588359281,-0.321229668,1.9983360243
 H,0,1.9816882945,0.4881201379,2.7308429347
 H,0,3.1289770256,-0.448019594,1.7914247395
 O,0,2.0735591771,-1.9621951622,-0.332173024
 C,0,1.4598102623,-1.6199714665,2.597478926
 H,0,0.8266762721,-1.3745144512,3.4556841224
 H,0,0.8177363649,-2.1265115315,1.8697984601
 C,0,2.5187683695,-2.6342575066,3.0701641561
 H,0,2.0319514591,-3.4100736311,3.6777958159
 H,0,3.251816337,-2.1286812248,3.7156766283
 C,0,3.2301671661,-3.2943825678,1.8940716026
 H,0,2.5513630523,-3.8572913397,1.2532294691
 H,0,3.7704829094,-2.592449309,1.2612936617
 N,0,4.2705489121,-4.2995978795,2.4140358351
 H,0,4.7629227248,-4.7673177326,1.6436525303
 H,0,3.8294459296,-5.0263682609,2.9904349332
 H,0,4.9749527257,-3.8341277376,2.9988224497
 O,0,1.2236560812,-0.3062249616,-1.6116389975
 H,0,0.8001687329,-1.0013709023,-2.2538516636
 Recover connectivity data from disk.
                           ----------------------------
                           !    Current Parameters    !
                           ! (Angstroms and Degrees)  !
 --------------------------                            --------------------------
 ! Name  Definition              Value                                          !
 --------------------------------------------------------------------------------
 ! R1    R(1,2)                  1.0187                                         !
 ! R2    R(1,3)                  1.0221                                         !
 ! R3    R(1,4)                  1.4764                                         !
 ! R4    R(4,5)                  1.0928                                         !
 ! R5    R(4,6)                  1.5359                                         !
 ! R6    R(4,7)                  1.5584                                         !
 ! R7    R(6,10)                 1.2297                                         !
 ! R8    R(6,22)                 1.3683                                         !
 ! R9    R(7,8)                  1.097                                          !
 ! R10   R(7,9)                  1.0973                                         !
 ! R11   R(7,11)                 1.5107                                         !
 ! R12   R(11,12)                1.401                                          !
 ! R13   R(11,14)                1.401                                          !
 ! R14   R(12,13)                1.0886                                         !
 ! R15   R(12,16)                1.396                                          !
 ! R16   R(14,15)                1.0875                                         !
 ! R17   R(14,18)                1.3939                                         !
 ! R18   R(16,17)                1.0865                                         !
 ! R19   R(16,20)                1.3955                                         !
 ! R20   R(18,19)                1.0864                                         !
 ! R21   R(18,20)                1.3968                                         !
 ! R22   R(20,21)                1.0863                                         !
 ! R23   R(22,23)                1.4719                                         !
 ! R24   R(22,33)                1.48                                           !
 ! R25   R(23,24)                1.0921                                         !
 ! R26   R(23,25)                1.5474                                         !
 ! R27   R(23,26)                1.5425                                         !
 ! R28   R(25,29)                1.2173                                         !
 ! R29   R(25,36)                1.3818                                         !
 ! R30   R(26,27)                1.0927                                         !
 ! R31   R(26,28)                1.0954                                         !
 ! R32   R(26,30)                1.5375                                         !
 ! R33   R(30,31)                1.096                                          !
 ! R34   R(30,32)                1.0928                                         !
 ! R35   R(30,33)                1.5364                                         !
 ! R36   R(33,34)                1.0962                                         !
 ! R37   R(33,35)                1.0939                                         !
 ! R38   R(36,37)                1.0116                                         !
 ! R39   R(36,38)                1.4655                                         !
 ! R40   R(38,39)                1.0934                                         !
 ! R41   R(38,40)                1.5418                                         !
 ! R42   R(38,41)                1.5311                                         !
 ! R43   R(40,44)                1.2254                                         !
 ! R44   R(40,58)                1.3164                                         !
 ! R45   R(41,42)                1.0943                                         !
 ! R46   R(41,43)                1.0973                                         !
 ! R47   R(41,45)                1.5507                                         !
 ! R48   R(45,46)                1.0944                                         !
 ! R49   R(45,47)                1.0947                                         !
 ! R50   R(45,48)                1.5406                                         !
 ! R51   R(48,49)                1.0991                                         !
 ! R52   R(48,50)                1.0998                                         !
 ! R53   R(48,51)                1.5248                                         !
 ! R54   R(51,52)                1.0901                                         !
 ! R55   R(51,53)                1.0886                                         !
 ! R56   R(51,54)                1.5373                                         !
 ! R57   R(54,55)                1.027                                          !
 ! R58   R(54,56)                1.0271                                         !
 ! R59   R(54,57)                1.027                                          !
 ! R60   R(58,59)                1.0368                                         !
 ! A1    A(2,1,3)              107.4739                                         !
 ! A2    A(2,1,4)              110.3435                                         !
 ! A3    A(3,1,4)              107.7541                                         !
 ! A4    A(1,4,5)              107.4221                                         !
 ! A5    A(1,4,6)              107.3203                                         !
 ! A6    A(1,4,7)              114.2983                                         !
 ! A7    A(5,4,6)              110.6324                                         !
 ! A8    A(5,4,7)              107.5831                                         !
 ! A9    A(6,4,7)              109.5757                                         !
 ! A10   A(4,6,10)             120.434                                          !
 ! A11   A(4,6,22)             117.608                                          !
 ! A12   A(10,6,22)            121.8196                                         !
 ! A13   A(4,7,8)              107.9625                                         !
 ! A14   A(4,7,9)              107.0436                                         !
 ! A15   A(4,7,11)             114.1828                                         !
 ! A16   A(8,7,9)              106.4712                                         !
 ! A17   A(8,7,11)             110.6679                                         !
 ! A18   A(9,7,11)             110.1616                                         !
 ! A19   A(7,11,12)            120.563                                          !
 ! A20   A(7,11,14)            120.8302                                         !
 ! A21   A(12,11,14)           118.585                                          !
 ! A22   A(11,12,13)           119.6183                                         !
 ! A23   A(11,12,16)           120.8508                                         !
 ! A24   A(13,12,16)           119.5161                                         !
 ! A25   A(11,14,15)           119.4364                                         !
 ! A26   A(11,14,18)           120.7871                                         !
 ! A27   A(15,14,18)           119.7765                                         !
 ! A28   A(12,16,17)           119.8445                                         !
 ! A29   A(12,16,20)           119.9724                                         !
 ! A30   A(17,16,20)           120.1795                                         !
 ! A31   A(14,18,19)           119.8062                                         !
 ! A32   A(14,18,20)           120.1045                                         !
 ! A33   A(19,18,20)           120.0891                                         !
 ! A34   A(16,20,18)           119.6986                                         !
 ! A35   A(16,20,21)           120.151                                          !
 ! A36   A(18,20,21)           120.1477                                         !
 ! A37   A(6,22,23)            125.8161                                         !
 ! A38   A(6,22,33)            120.1171                                         !
 ! A39   A(23,22,33)           112.2993                                         !
 ! A40   A(22,23,24)           112.135                                          !
 ! A41   A(22,23,25)           113.0773                                         !
 ! A42   A(22,23,26)           102.76                                           !
 ! A43   A(24,23,25)           105.6755                                         !
 ! A44   A(24,23,26)           111.2254                                         !
 ! A45   A(25,23,26)           112.1467                                         !
 ! A46   A(23,25,29)           120.9231                                         !
 ! A47   A(23,25,36)           115.2859                                         !
 ! A48   A(29,25,36)           123.7734                                         !
 ! A49   A(23,26,27)           111.8132                                         !
 ! A50   A(23,26,28)           108.9135                                         !
 ! A51   A(23,26,30)           103.4019                                         !
 ! A52   A(27,26,28)           108.0794                                         !
 ! A53   A(27,26,30)           113.9992                                         !
 ! A54   A(28,26,30)           110.5216                                         !
 ! A55   A(26,30,31)           109.8316                                         !
 ! A56   A(26,30,32)           112.8974                                         !
 ! A57   A(26,30,33)           103.6903                                         !
 ! A58   A(31,30,32)           107.8214                                         !
 ! A59   A(31,30,33)           110.3158                                         !
 ! A60   A(32,30,33)           112.264                                          !
 ! A61   A(22,33,30)           103.9809                                         !
 ! A62   A(22,33,34)           109.0447                                         !
 ! A63   A(22,33,35)           110.284                                          !
 ! A64   A(30,33,34)           112.2838                                         !
 ! A65   A(30,33,35)           114.0086                                         !
 ! A66   A(34,33,35)           107.1731                                         !
 ! A67   A(25,36,37)           114.9458                                         !
 ! A68   A(25,36,38)           121.085                                          !
 ! A69   A(37,36,38)           114.7967                                         !
 ! A70   A(36,38,39)           106.0455                                         !
 ! A71   A(36,38,40)           106.0312                                         !
 ! A72   A(36,38,41)           112.2675                                         !
 ! A73   A(39,38,40)           108.824                                          !
 ! A74   A(39,38,41)           110.5498                                         !
 ! A75   A(40,38,41)           112.7871                                         !
 ! A76   A(38,40,44)           123.3802                                         !
 ! A77   A(38,40,58)           111.0631                                         !
 ! A78   A(44,40,58)           125.359                                          !
 ! A79   A(38,41,42)           108.226                                          !
 ! A80   A(38,41,43)           107.1964                                         !
 ! A81   A(38,41,45)           114.6238                                         !
 ! A82   A(42,41,43)           106.2855                                         !
 ! A83   A(42,41,45)           109.4856                                         !
 ! A84   A(43,41,45)           110.66                                           !
 ! A85   A(41,45,46)           109.7941                                         !
 ! A86   A(41,45,47)           110.9339                                         !
 ! A87   A(41,45,48)           113.8546                                         !
 ! A88   A(46,45,47)           106.6031                                         !
 ! A89   A(46,45,48)           107.7413                                         !
 ! A90   A(47,45,48)           107.6056                                         !
 ! A91   A(45,48,49)           109.261                                          !
 ! A92   A(45,48,50)           109.6064                                         !
 ! A93   A(45,48,51)           111.6571                                         !
 ! A94   A(49,48,50)           107.1696                                         !
 ! A95   A(49,48,51)           109.1148                                         !
 ! A96   A(50,48,51)           109.9219                                         !
 ! A97   A(48,51,52)           112.7347                                         !
 ! A98   A(48,51,53)           113.6255                                         !
 ! A99   A(48,51,54)           109.7519                                         !
 ! A100  A(52,51,53)           107.4766                                         !
 ! A101  A(52,51,54)           106.4158                                         !
 ! A102  A(53,51,54)           106.3995                                         !
 ! A103  A(51,54,55)           111.6261                                         !
 ! A104  A(51,54,56)           111.2137                                         !
 ! A105  A(51,54,57)           111.1248                                         !
 ! A106  A(55,54,56)           107.7344                                         !
 ! A107  A(55,54,57)           107.7405                                         !
 ! A108  A(56,54,57)           107.1993                                         !
 ! A109  A(40,58,59)           113.5367                                         !
 ! D1    D(2,1,4,5)            -86.0991                                         !
 ! D2    D(2,1,4,6)            154.9071                                         !
 ! D3    D(2,1,4,7)             33.18                                           !
 ! D4    D(3,1,4,5)            156.8376                                         !
 ! D5    D(3,1,4,6)             37.8437                                         !
 ! D6    D(3,1,4,7)            -83.8834                                         !
 ! D7    D(1,4,6,10)           -29.9261                                         !
 ! D8    D(1,4,6,22)           154.2741                                         !
 ! D9    D(5,4,6,10)          -146.8331                                         !
 ! D10   D(5,4,6,22)            37.367                                          !
 ! D11   D(7,4,6,10)            94.7107                                         !
 ! D12   D(7,4,6,22)           -81.0892                                         !
 ! D13   D(1,4,7,8)            179.8866                                         !
 ! D14   D(1,4,7,9)            -65.837                                          !
 ! D15   D(1,4,7,11)            56.361                                          !
 ! D16   D(5,4,7,8)            -60.9251                                         !
 ! D17   D(5,4,7,9)             53.3513                                         !
 ! D18   D(5,4,7,11)           175.5493                                         !
 ! D19   D(6,4,7,8)             59.4067                                         !
 ! D20   D(6,4,7,9)            173.6831                                         !
 ! D21   D(6,4,7,11)           -64.119                                          !
 ! D22   D(4,6,22,23)          -25.8406                                         !
 ! D23   D(4,6,22,33)          170.5069                                         !
 ! D24   D(10,6,22,23)         158.4215                                         !
 ! D25   D(10,6,22,33)          -5.2311                                         !
 ! D26   D(4,7,11,12)          -92.0956                                         !
 ! D27   D(4,7,11,14)           86.1821                                         !
 ! D28   D(8,7,11,12)          145.8508                                         !
 ! D29   D(8,7,11,14)          -35.8714                                         !
 ! D30   D(9,7,11,12)           28.3784                                         !
 ! D31   D(9,7,11,14)         -153.3439                                         !
 ! D32   D(7,11,12,13)          -3.5243                                         !
 ! D33   D(7,11,12,16)         177.8807                                         !
 ! D34   D(14,11,12,13)        178.1599                                         !
 ! D35   D(14,11,12,16)         -0.4352                                         !
 ! D36   D(7,11,14,15)           2.0599                                         !
 ! D37   D(7,11,14,18)        -178.0259                                         !
 ! D38   D(12,11,14,15)       -179.6289                                         !
 ! D39   D(12,11,14,18)          0.2852                                         !
 ! D40   D(11,12,16,17)        179.5185                                         !
 ! D41   D(11,12,16,20)          0.2099                                         !
 ! D42   D(13,12,16,17)          0.922                                          !
 ! D43   D(13,12,16,20)       -178.3866                                         !
 ! D44   D(11,14,18,19)       -179.7044                                         !
 ! D45   D(11,14,18,20)          0.0897                                         !
 ! D46   D(15,14,18,19)          0.2094                                         !
 ! D47   D(15,14,18,20)       -179.9964                                         !
 ! D48   D(12,16,20,18)          0.1723                                         !
 ! D49   D(12,16,20,21)        179.5716                                         !
 ! D50   D(17,16,20,18)       -179.134                                          !
 ! D51   D(17,16,20,21)          0.2653                                         !
 ! D52   D(14,18,20,16)         -0.3208                                         !
 ! D53   D(14,18,20,21)       -179.7201                                         !
 ! D54   D(19,18,20,16)        179.4728                                         !
 ! D55   D(19,18,20,21)          0.0735                                         !
 ! D56   D(6,22,23,24)          58.3758                                         !
 ! D57   D(6,22,23,25)         -60.9891                                         !
 ! D58   D(6,22,23,26)         177.9043                                         !
 ! D59   D(33,22,23,24)       -136.8809                                         !
 ! D60   D(33,22,23,25)        103.7542                                         !
 ! D61   D(33,22,23,26)        -17.3524                                         !
 ! D62   D(6,22,33,30)         160.0903                                         !
 ! D63   D(6,22,33,34)         -79.953                                          !
 ! D64   D(6,22,33,35)          37.4723                                         !
 ! D65   D(23,22,33,30)         -5.6282                                         !
 ! D66   D(23,22,33,34)        114.3284                                         !
 ! D67   D(23,22,33,35)       -128.2462                                         !
 ! D68   D(22,23,25,29)        155.0067                                         !
 ! D69   D(22,23,25,36)        -26.4674                                         !
 ! D70   D(24,23,25,29)         31.9854                                         !
 ! D71   D(24,23,25,36)       -149.4887                                         !
 ! D72   D(26,23,25,29)        -89.3597                                         !
 ! D73   D(26,23,25,36)         89.1662                                         !
 ! D74   D(22,23,26,27)        156.2431                                         !
 ! D75   D(22,23,26,28)        -84.3846                                         !
 ! D76   D(22,23,26,30)         33.1693                                         !
 ! D77   D(24,23,26,27)        -83.5981                                         !
 ! D78   D(24,23,26,28)         35.7742                                         !
 ! D79   D(24,23,26,30)        153.328                                          !
 ! D80   D(25,23,26,27)         34.5021                                         !
 ! D81   D(25,23,26,28)        153.8743                                         !
 ! D82   D(25,23,26,30)        -88.5718                                         !
 ! D83   D(23,25,36,37)         11.3323                                         !
 ! D84   D(23,25,36,38)        156.4718                                         !
 ! D85   D(29,25,36,37)       -170.189                                          !
 ! D86   D(29,25,36,38)        -25.0495                                         !
 ! D87   D(23,26,30,31)         80.7515                                         !
 ! D88   D(23,26,30,32)       -158.884                                          !
 ! D89   D(23,26,30,33)        -37.1354                                         !
 ! D90   D(27,26,30,31)        -40.8637                                         !
 ! D91   D(27,26,30,32)         79.5008                                         !
 ! D92   D(27,26,30,33)       -158.7505                                         !
 ! D93   D(28,26,30,31)       -162.8265                                         !
 ! D94   D(28,26,30,32)        -42.462                                          !
 ! D95   D(28,26,30,33)         79.2867                                         !
 ! D96   D(26,30,33,22)         26.4103                                         !
 ! D97   D(26,30,33,34)        -91.3282                                         !
 ! D98   D(26,30,33,35)        146.5419                                         !
 ! D99   D(31,30,33,22)        -91.1398                                         !
 ! D100  D(31,30,33,34)        151.1217                                         !
 ! D101  D(31,30,33,35)         28.9918                                         !
 ! D102  D(32,30,33,22)        148.5812                                         !
 ! D103  D(32,30,33,34)         30.8427                                         !
 ! D104  D(32,30,33,35)        -91.2872                                         !
 ! D105  D(25,36,38,39)         21.9967                                         !
 ! D106  D(25,36,38,40)        -93.5957                                         !
 ! D107  D(25,36,38,41)        142.8238                                         !
 ! D108  D(37,36,38,39)        167.1842                                         !
 ! D109  D(37,36,38,40)         51.5918                                         !
 ! D110  D(37,36,38,41)        -71.9886                                         !
 ! D111  D(36,38,40,44)       -109.5172                                         !
 ! D112  D(36,38,40,58)         65.6153                                         !
 ! D113  D(39,38,40,44)        136.7929                                         !
 ! D114  D(39,38,40,58)        -48.0746                                         !
 ! D115  D(41,38,40,44)         13.7367                                         !
 ! D116  D(41,38,40,58)       -171.1308                                         !
 ! D117  D(36,38,41,42)        -69.3034                                         !
 ! D118  D(36,38,41,43)        176.4313                                         !
 ! D119  D(36,38,41,45)         53.1928                                         !
 ! D120  D(39,38,41,42)         48.8913                                         !
 ! D121  D(39,38,41,43)        -65.3739                                         !
 ! D122  D(39,38,41,45)        171.3876                                         !
 ! D123  D(40,38,41,42)        170.981                                          !
 ! D124  D(40,38,41,43)         56.7158                                         !
 ! D125  D(40,38,41,45)        -66.5227                                         !
 ! D126  D(38,40,58,59)       -143.307                                          !
 ! D127  D(44,40,58,59)         31.7088                                         !
 ! D128  D(38,41,45,46)       -104.0091                                         !
 ! D129  D(38,41,45,47)         13.5603                                         !
 ! D130  D(38,41,45,48)        135.1102                                         !
 ! D131  D(42,41,45,46)         17.8028                                         !
 ! D132  D(42,41,45,47)        135.3722                                         !
 ! D133  D(42,41,45,48)       -103.0778                                         !
 ! D134  D(43,41,45,46)        134.6317                                         !
 ! D135  D(43,41,45,47)       -107.7989                                         !
 ! D136  D(43,41,45,48)         13.7511                                         !
 ! D137  D(41,45,48,49)        167.363                                          !
 ! D138  D(41,45,48,50)         50.2066                                         !
 ! D139  D(41,45,48,51)        -71.8414                                         !
 ! D140  D(46,45,48,49)         45.3418                                         !
 ! D141  D(46,45,48,50)        -71.8146                                         !
 ! D142  D(46,45,48,51)        166.1374                                         !
 ! D143  D(47,45,48,49)        -69.2577                                         !
 ! D144  D(47,45,48,50)        173.5858                                         !
 ! D145  D(47,45,48,51)         51.5379                                         !
 ! D146  D(45,48,51,52)        -61.3463                                         !
 ! D147  D(45,48,51,53)         61.2483                                         !
 ! D148  D(45,48,51,54)       -179.7725                                         !
 ! D149  D(49,48,51,52)         59.5346                                         !
 ! D150  D(49,48,51,53)       -177.8709                                         !
 ! D151  D(49,48,51,54)        -58.8916                                         !
 ! D152  D(50,48,51,52)        176.7875                                         !
 ! D153  D(50,48,51,53)        -60.618                                          !
 ! D154  D(50,48,51,54)         58.3613                                         !
 ! D155  D(48,51,54,55)        179.564                                          !
 ! D156  D(48,51,54,56)         59.2079                                         !
 ! D157  D(48,51,54,57)        -60.1332                                         !
 ! D158  D(52,51,54,55)         57.2972                                         !
 ! D159  D(52,51,54,56)        -63.0588                                         !
 ! D160  D(52,51,54,57)        177.6                                            !
 ! D161  D(53,51,54,55)        -57.1002                                         !
 ! D162  D(53,51,54,56)       -177.4562                                         !
 ! D163  D(53,51,54,57)         63.2026                                         !
 --------------------------------------------------------------------------------
 Symmetry turned off by external request.
 Stoichiometry    C20H31N4O4(1+)
 Framework group  C1[X(C20H31N4O4)]
 Deg. of freedom   171
 Full point group                 C1      NOp   1
                          Input orientation:                          
 ---------------------------------------------------------------------
 Center     Atomic      Atomic             Coordinates (Angstroms)
 Number     Number       Type             X           Y           Z
 ---------------------------------------------------------------------
      1          7           0       -0.545089   -1.567244   -3.024755
      2          1           0       -0.502172   -1.469559   -4.037896
      3          1           0       -0.825490   -2.528695   -2.820737
      4          6           0       -1.575368   -0.669549   -2.465729
      5          1           0       -1.107718    0.304879   -2.304467
      6          6           0       -2.035647   -1.276351   -1.131928
      7          6           0       -2.808428   -0.452185   -3.393640
      8          1           0       -3.503231    0.223810   -2.880174
      9          1           0       -2.451847    0.084208   -4.281980
     10          8           0       -2.011938   -2.493814   -0.960310
     11          6           0       -3.508477   -1.727227   -3.801394
     12          6           0       -3.153811   -2.387425   -4.985044
     13          1           0       -2.407636   -1.946870   -5.643968
     14          6           0       -4.499208   -2.293810   -2.988845
     15          1           0       -4.789585   -1.789819   -2.069912
     16          6           0       -3.766006   -3.589093   -5.345515
     17          1           0       -3.483965   -4.083237   -6.271116
     18          6           0       -5.115730   -3.491885   -3.345821
     19          1           0       -5.885553   -3.914580   -2.706279
     20          6           0       -4.748039   -4.145002   -4.524472
     21          1           0       -5.231254   -5.076378   -4.805649
     22          7           0       -2.548469   -0.425070   -0.191430
     23          6           0       -2.241943    1.009433   -0.069568
     24          1           0       -2.488247    1.561564   -0.979075
     25          6           0       -0.743419    1.289003    0.196366
     26          6           0       -3.133765    1.449414    1.109627
     27          1           0       -2.746418    2.346253    1.599066
     28          1           0       -4.136803    1.674868    0.731393
     29          8           0       -0.240767    2.353064   -0.114837
     30          6           0       -3.165771    0.207214    2.015079
     31          1           0       -2.254090    0.165846    2.621903
     32          1           0       -4.020969    0.198824    2.695316
     33          6           0       -3.199739   -0.965275    1.022786
     34          1           0       -4.222943   -1.270037    0.774346
     35          1           0       -2.672250   -1.858189    1.370674
     36          7           0       -0.055873    0.270064    0.827518
     37          1           0       -0.553678   -0.608642    0.885250
     38          6           0        1.398519    0.145166    0.698040
     39          1           0        1.763144    1.136819    0.416630
     40          6           0        1.639740   -0.825130   -0.475651
     41          6           0        2.058836   -0.321230    1.998336
     42          1           0        1.981688    0.488120    2.730843
     43          1           0        3.128977   -0.448020    1.791425
     44          8           0        2.073559   -1.962195   -0.332173
     45          6           0        1.459810   -1.619971    2.597479
     46          1           0        0.826676   -1.374514    3.455684
     47          1           0        0.817736   -2.126512    1.869798
     48          6           0        2.518768   -2.634258    3.070164
     49          1           0        2.031951   -3.410074    3.677796
     50          1           0        3.251816   -2.128681    3.715677
     51          6           0        3.230167   -3.294383    1.894072
     52          1           0        2.551363   -3.857291    1.253229
     53          1           0        3.770483   -2.592449    1.261294
     54          7           0        4.270549   -4.299598    2.414036
     55          1           0        4.762923   -4.767318    1.643653
     56          1           0        3.829446   -5.026368    2.990435
     57          1           0        4.974953   -3.834128    2.998822
     58          8           0        1.223656   -0.306225   -1.611639
     59          1           0        0.800169   -1.001371   -2.253852
 ---------------------------------------------------------------------
 Rotational constants (GHZ):           0.2465054           0.1066480           0.0917697
 Standard basis: 6-31G(d) (6D, 7F)
   482 basis functions,   908 primitive gaussians,   482 cartesian basis functions
   105 alpha electrons      105 beta electrons
       nuclear repulsion energy      2863.1587141680 Hartrees.
 NAtoms=   59 NActive=   59 NUniq=   59 SFac= 1.00D+00 NAtFMM=   60 NAOKFM=F Big=F
 Integral buffers will be    131072 words long.
 Raffenetti 2 integral format.
 Two-electron integral symmetry is turned off.
 Nuclear repulsion after empirical dispersion term =     2863.0812924271 Hartrees.
 One-electron integrals computed using PRISM.
 NBasis=   482 RedAO= T EigKep=  4.64D-04  NBF=   482
 NBsUse=   482 1.00D-06 EigRej= -1.00D+00 NBFU=   482
 Initial guess from the checkpoint file:  "conf-879.chk"
 B after Tr=     0.000000    0.000000    0.000000
         Rot=    1.000000    0.000000    0.000000    0.000000 Ang=   0.00 deg.
 Requested convergence on RMS density matrix=1.00D-08 within 128 cycles.
 Requested convergence on MAX density matrix=1.00D-06.
 Requested convergence on             energy=1.00D-06.
 No special actions if energy rises.
 SCF Done:  E(RB3LYP) =  -1300.59036130     A.U. after    2 cycles
            NFock=  2  Conv=0.95D-08     -V/T= 2.0095

 **********************************************************************

            Population analysis using the SCF Density.

 **********************************************************************

 Alpha  occ. eigenvalues --  -19.25037 -19.22673 -19.20627 -19.20308 -14.64053
 Alpha  occ. eigenvalues --  -14.45317 -14.45125 -14.42737 -10.40373 -10.40058
 Alpha  occ. eigenvalues --  -10.37375 -10.37308 -10.34170 -10.32690 -10.32279
 Alpha  occ. eigenvalues --  -10.31539 -10.30999 -10.30710 -10.29637 -10.27981
 Alpha  occ. eigenvalues --  -10.27744 -10.27506 -10.26312 -10.25450 -10.25270
 Alpha  occ. eigenvalues --  -10.25175 -10.25104 -10.24985  -1.17887  -1.17509
 Alpha  occ. eigenvalues --   -1.12805  -1.12096  -1.09059  -1.03702  -1.01327
 Alpha  occ. eigenvalues --   -0.98989  -0.94735  -0.91860  -0.88719  -0.88268
 Alpha  occ. eigenvalues --   -0.85197  -0.84374  -0.82691  -0.80664  -0.79591
 Alpha  occ. eigenvalues --   -0.78362  -0.76564  -0.75401  -0.74572  -0.71767
 Alpha  occ. eigenvalues --   -0.71138  -0.69518  -0.67663  -0.66907  -0.66624
 Alpha  occ. eigenvalues --   -0.65927  -0.65264  -0.64845  -0.62345  -0.61249
 Alpha  occ. eigenvalues --   -0.60799  -0.58923  -0.57384  -0.57238  -0.56464
 Alpha  occ. eigenvalues --   -0.55670  -0.55461  -0.54738  -0.53963  -0.53569
 Alpha  occ. eigenvalues --   -0.52987  -0.52565  -0.52312  -0.52162  -0.51712
 Alpha  occ. eigenvalues --   -0.51166  -0.50725  -0.50317  -0.49376  -0.49162
 Alpha  occ. eigenvalues --   -0.48301  -0.47885  -0.47333  -0.46717  -0.46155
 Alpha  occ. eigenvalues --   -0.45923  -0.45387  -0.44987  -0.44563  -0.43929
 Alpha  occ. eigenvalues --   -0.43677  -0.43039  -0.42455  -0.41995  -0.40508
 Alpha  occ. eigenvalues --   -0.40305  -0.39277  -0.37384  -0.36146  -0.35541
 Alpha  occ. eigenvalues --   -0.34267  -0.33602  -0.32123  -0.31147  -0.30552
 Alpha virt. eigenvalues --   -0.14726  -0.09642  -0.08106  -0.08027  -0.07879
 Alpha virt. eigenvalues --   -0.06549  -0.06248  -0.05547  -0.04999  -0.02703
 Alpha virt. eigenvalues --   -0.01528  -0.00518   0.00123   0.01041   0.01106
 Alpha virt. eigenvalues --    0.01731   0.02807   0.03426   0.03959   0.04511
 Alpha virt. eigenvalues --    0.04985   0.05430   0.05805   0.06258   0.06455
 Alpha virt. eigenvalues --    0.06993   0.07503   0.07825   0.08222   0.09039
 Alpha virt. eigenvalues --    0.09205   0.09397   0.09966   0.10125   0.10661
 Alpha virt. eigenvalues --    0.11103   0.11245   0.11609   0.11721   0.12704
 Alpha virt. eigenvalues --    0.12995   0.13803   0.13898   0.14478   0.15179
 Alpha virt. eigenvalues --    0.15394   0.16471   0.17021   0.18104   0.18729
 Alpha virt. eigenvalues --    0.19059   0.19748   0.21719   0.22245   0.24562
 Alpha virt. eigenvalues --    0.24634   0.25707   0.26241   0.26886   0.28010
 Alpha virt. eigenvalues --    0.28083   0.28705   0.31915   0.34219   0.36000
 Alpha virt. eigenvalues --    0.37132   0.37575   0.38783   0.39693   0.41057
 Alpha virt. eigenvalues --    0.41325   0.42829   0.43458   0.44047   0.44985
 Alpha virt. eigenvalues --    0.45623   0.46360   0.46643   0.47744   0.47984
 Alpha virt. eigenvalues --    0.48305   0.48677   0.49176   0.49553   0.49807
 Alpha virt. eigenvalues --    0.50225   0.51405   0.51566   0.52135   0.52533
 Alpha virt. eigenvalues --    0.53277   0.53447   0.53993   0.54176   0.54690
 Alpha virt. eigenvalues --    0.55259   0.55541   0.55763   0.56150   0.56645
 Alpha virt. eigenvalues --    0.57160   0.57687   0.58757   0.59391   0.59625
 Alpha virt. eigenvalues --    0.60728   0.61077   0.61708   0.62601   0.63348
 Alpha virt. eigenvalues --    0.63821   0.64104   0.64554   0.64974   0.66350
 Alpha virt. eigenvalues --    0.66827   0.67602   0.68266   0.68727   0.70151
 Alpha virt. eigenvalues --    0.70735   0.71689   0.72349   0.72908   0.73103
 Alpha virt. eigenvalues --    0.73913   0.74065   0.75044   0.75397   0.75601
 Alpha virt. eigenvalues --    0.76206   0.77039   0.77434   0.77999   0.78153
 Alpha virt. eigenvalues --    0.78516   0.78805   0.78954   0.79265   0.79643
 Alpha virt. eigenvalues --    0.80474   0.81134   0.81806   0.82119   0.82570
 Alpha virt. eigenvalues --    0.83294   0.83889   0.84853   0.84929   0.85328
 Alpha virt. eigenvalues --    0.85776   0.86314   0.87303   0.88258   0.88825
 Alpha virt. eigenvalues --    0.89087   0.89657   0.90440   0.91021   0.91831
 Alpha virt. eigenvalues --    0.92391   0.93433   0.94595   0.95075   0.96061
 Alpha virt. eigenvalues --    0.96709   0.98073   1.00043   1.00418   1.00959
 Alpha virt. eigenvalues --    1.02785   1.03637   1.04065   1.05259   1.05914
 Alpha virt. eigenvalues --    1.06637   1.07376   1.07694   1.08680   1.09563
 Alpha virt. eigenvalues --    1.09929   1.12272   1.12457   1.14581   1.16324
 Alpha virt. eigenvalues --    1.18294   1.19108   1.19840   1.22219   1.23315
 Alpha virt. eigenvalues --    1.24416   1.26252   1.27409   1.28800   1.29117
 Alpha virt. eigenvalues --    1.30720   1.31590   1.33766   1.34219   1.36304
 Alpha virt. eigenvalues --    1.37692   1.38063   1.38415   1.39840   1.40713
 Alpha virt. eigenvalues --    1.41526   1.42316   1.43309   1.44081   1.45099
 Alpha virt. eigenvalues --    1.45959   1.46178   1.47782   1.49498   1.51121
 Alpha virt. eigenvalues --    1.53405   1.54287   1.56203   1.56860   1.58640
 Alpha virt. eigenvalues --    1.59338   1.60530   1.62036   1.63051   1.65262
 Alpha virt. eigenvalues --    1.66667   1.68101   1.68739   1.68945   1.69433
 Alpha virt. eigenvalues --    1.70707   1.71337   1.72005   1.73087   1.73502
 Alpha virt. eigenvalues --    1.74194   1.74563   1.75375   1.75593   1.75936
 Alpha virt. eigenvalues --    1.76347   1.77025   1.78156   1.79612   1.80884
 Alpha virt. eigenvalues --    1.81303   1.82509   1.83005   1.83263   1.83680
 Alpha virt. eigenvalues --    1.84163   1.84642   1.85416   1.85903   1.87735
 Alpha virt. eigenvalues --    1.88538   1.89164   1.90747   1.90913   1.91685
 Alpha virt. eigenvalues --    1.91945   1.93742   1.94251   1.94468   1.95789
 Alpha virt. eigenvalues --    1.96230   1.97702   1.97981   1.99227   1.99693
 Alpha virt. eigenvalues --    2.00636   2.01990   2.03202   2.04054   2.04948
 Alpha virt. eigenvalues --    2.05708   2.07721   2.08322   2.08673   2.09616
 Alpha virt. eigenvalues --    2.10053   2.10755   2.11347   2.13232   2.14633
 Alpha virt. eigenvalues --    2.15442   2.16163   2.17352   2.18516   2.19882
 Alpha virt. eigenvalues --    2.20143   2.20782   2.22678   2.23032   2.24544
 Alpha virt. eigenvalues --    2.25763   2.27009   2.27599   2.28293   2.30019
 Alpha virt. eigenvalues --    2.30340   2.31376   2.32747   2.34141   2.34825
 Alpha virt. eigenvalues --    2.36439   2.38897   2.39897   2.40015   2.41369
 Alpha virt. eigenvalues --    2.43242   2.44114   2.45777   2.47170   2.49050
 Alpha virt. eigenvalues --    2.51828   2.51934   2.53059   2.53869   2.55605
 Alpha virt. eigenvalues --    2.57881   2.58458   2.59197   2.59884   2.61435
 Alpha virt. eigenvalues --    2.63498   2.64502   2.64976   2.66618   2.67707
 Alpha virt. eigenvalues --    2.68801   2.70063   2.70703   2.71299   2.71826
 Alpha virt. eigenvalues --    2.75401   2.79338   2.83517   2.84658   2.84746
 Alpha virt. eigenvalues --    2.89995   2.93387   2.93724   2.97980   2.98933
 Alpha virt. eigenvalues --    3.03613   3.05433   3.11532   3.34731   3.54986
 Alpha virt. eigenvalues --    3.82833   3.87130   3.91662   4.01299   4.02666
 Alpha virt. eigenvalues --    4.02913   4.05533   4.06394   4.09539   4.12823
 Alpha virt. eigenvalues --    4.14781   4.16488   4.21736   4.22055   4.24979
 Alpha virt. eigenvalues --    4.28630   4.29796   4.34484   4.36087   4.42246
 Alpha virt. eigenvalues --    4.44076   4.48100   4.50749   4.53494   4.59986
 Alpha virt. eigenvalues --    4.65731   4.69422
          Condensed to atoms (all electrons):
 Mulliken charges:
               1
     1  N   -0.791322
     2  H    0.333489
     3  H    0.359114
     4  C   -0.058225
     5  H    0.180727
     6  C    0.600281
     7  C   -0.392478
     8  H    0.166846
     9  H    0.166873
    10  O   -0.527311
    11  C    0.182153
    12  C   -0.199804
    13  H    0.120455
    14  C   -0.162606
    15  H    0.124080
    16  C   -0.126397
    17  H    0.141795
    18  C   -0.127325
    19  H    0.139952
    20  C   -0.127985
    21  H    0.143289
    22  N   -0.478838
    23  C   -0.071536
    24  H    0.188783
    25  C    0.618704
    26  C   -0.294164
    27  H    0.186012
    28  H    0.172893
    29  O   -0.492684
    30  C   -0.315543
    31  H    0.153723
    32  H    0.173173
    33  C   -0.127098
    34  H    0.176724
    35  H    0.168734
    36  N   -0.616403
    37  H    0.349421
    38  C   -0.057807
    39  H    0.214810
    40  C    0.585653
    41  C   -0.267794
    42  H    0.174965
    43  H    0.137500
    44  O   -0.512826
    45  C   -0.270764
    46  H    0.172413
    47  H    0.165464
    48  C   -0.304063
    49  H    0.160722
    50  H    0.163215
    51  C   -0.193741
    52  H    0.243798
    53  H    0.240598
    54  N   -0.735733
    55  H    0.430961
    56  H    0.421527
    57  H    0.421643
    58  O   -0.586455
    59  H    0.458411
 Sum of Mulliken charges =   1.00000
 Mulliken charges with hydrogens summed into heavy atoms:
               1
     1  N   -0.098719
     4  C    0.122502
     6  C    0.600281
     7  C   -0.058759
    10  O   -0.527311
    11  C    0.182153
    12  C   -0.079349
    14  C   -0.038526
    16  C    0.015398
    18  C    0.012627
    20  C    0.015304
    22  N   -0.478838
    23  C    0.117247
    25  C    0.618704
    26  C    0.064741
    29  O   -0.492684
    30  C    0.011352
    33  C    0.218361
    36  N   -0.266983
    38  C    0.157003
    40  C    0.585653
    41  C    0.044671
    44  O   -0.512826
    45  C    0.067113
    48  C    0.019874
    51  C    0.290655
    54  N    0.538397
    58  O   -0.128044
 Electronic spatial extent (au):  <R**2>=          14536.8259
 Charge=              1.0000 electrons
 Dipole moment (field-independent basis, Debye):
    X=             11.0750    Y=            -17.0454    Z=              8.9850  Tot=             22.2246
 Quadrupole moment (field-independent basis, Debye-Ang):
   XX=            -72.8102   YY=            -97.5203   ZZ=           -111.8264
   XY=            -67.8971   XZ=             45.6512   YZ=            -33.7663
 Traceless Quadrupole moment (field-independent basis, Debye-Ang):
   XX=             21.2421   YY=             -3.4680   ZZ=            -17.7741
   XY=            -67.8971   XZ=             45.6512   YZ=            -33.7663
 Octapole moment (field-independent basis, Debye-Ang**2):
  XXX=            760.8024  YYY=            234.4439  ZZZ=            314.0605  XYY=            448.8323
  XXY=           -130.9157  XXZ=            307.7837  XZZ=            245.8600  YZZ=             32.9587
  YYZ=            265.8267  XYZ=           -202.6449
 Hexadecapole moment (field-independent basis, Debye-Ang**3):
 XXXX=          -6114.5798 YYYY=          -2953.0862 ZZZZ=          -5832.0755 XXXY=          -1788.2856
 XXXZ=          -1641.7458 YYYX=          -1857.7183 YYYZ=          -1635.7473 ZZZX=          -1988.2367
 ZZZY=           -973.5697 XXYY=           -478.4414 XXZZ=          -1955.4476 YYZZ=          -1132.4873
 XXYZ=           -963.6160 YYXZ=            150.1812 ZZXY=           -494.4369
 N-N= 2.863081292427D+03 E-N=-8.732195616473D+03  KE= 1.288359559774D+03
 Unable to Open any file for archive entry.
 1\1\GINC-AMR-168\SP\RB3LYP\6-31G(d)\C20H31N4O4(1+)\KENGMITH\02-Jun-202
 2\0\\# B3LYP/6-31G* empiricaldispersion=gd3 guess=read geom=check nosy
 mm integral(ultrafinegrid)\\Candidate Structure: Conf:879 Charge calc 
 in gas phase\\1,1\N,0,-0.5450894049,-1.5672437156,-3.0247548054\H,0,-0
 .5021717925,-1.469558841,-4.0378964353\H,0,-0.8254896705,-2.5286951036
 ,-2.8207374976\C,0,-1.5753680863,-0.669548812,-2.4657288789\H,0,-1.107
 7183943,0.3048787585,-2.3044670483\C,0,-2.0356466338,-1.2763509484,-1.
 1319283717\C,0,-2.808427797,-0.4521848952,-3.39364009\H,0,-3.503231058
 6,0.2238099497,-2.8801740973\H,0,-2.4518472692,0.0842083317,-4.2819801
 376\O,0,-2.0119379173,-2.4938142624,-0.9603095784\C,0,-3.5084774325,-1
 .7272270579,-3.8013940918\C,0,-3.1538113419,-2.3874254105,-4.985043748
 6\H,0,-2.4076363638,-1.9468703275,-5.6439678666\C,0,-4.499207511,-2.29
 38096784,-2.9888448553\H,0,-4.7895846533,-1.789819124,-2.0699121052\C,
 0,-3.7660061289,-3.5890926725,-5.3455145398\H,0,-3.4839653055,-4.08323
 73234,-6.2711155555\C,0,-5.1157301728,-3.4918851852,-3.345821099\H,0,-
 5.8855527301,-3.9145804578,-2.7062792464\C,0,-4.7480392852,-4.14500164
 17,-4.5244723937\H,0,-5.2312542225,-5.0763775331,-4.8056492979\N,0,-2.
 5484689999,-0.425070042,-0.1914299227\C,0,-2.2419425211,1.0094334489,-
 0.069568366\H,0,-2.4882471546,1.5615636591,-0.9790750254\C,0,-0.743419
 3912,1.2890033443,0.1963661753\C,0,-3.1337648831,1.4494136804,1.109626
 5839\H,0,-2.7464176717,2.3462525365,1.5990660258\H,0,-4.1368025972,1.6
 748676823,0.7313927687\O,0,-0.2407673535,2.3530639005,-0.1148374846\C,
 0,-3.1657710462,0.2072138848,2.015078768\H,0,-2.25409034,0.1658456012,
 2.6219034757\H,0,-4.0209693666,0.1988240977,2.6953157771\C,0,-3.199739
 1433,-0.9652749896,1.0227860643\H,0,-4.2229432421,-1.270037257,0.77434
 5606\H,0,-2.6722495799,-1.8581887061,1.3706743799\N,0,-0.0558727395,0.
 2700641727,0.8275183397\H,0,-0.5536780936,-0.6086420779,0.885249635\C,
 0,1.3985188076,0.1451662845,0.6980402276\H,0,1.763144308,1.1368190689,
 0.4166299478\C,0,1.6397398852,-0.8251300503,-0.4756507795\C,0,2.058835
 9281,-0.321229668,1.9983360243\H,0,1.9816882945,0.4881201379,2.7308429
 347\H,0,3.1289770256,-0.448019594,1.7914247395\O,0,2.0735591771,-1.962
 1951622,-0.332173024\C,0,1.4598102623,-1.6199714665,2.597478926\H,0,0.
 8266762721,-1.3745144512,3.4556841224\H,0,0.8177363649,-2.1265115315,1
 .8697984601\C,0,2.5187683695,-2.6342575066,3.0701641561\H,0,2.03195145
 91,-3.4100736311,3.6777958159\H,0,3.251816337,-2.1286812248,3.71567662
 83\C,0,3.2301671661,-3.2943825678,1.8940716026\H,0,2.5513630523,-3.857
 2913397,1.2532294691\H,0,3.7704829094,-2.592449309,1.2612936617\N,0,4.
 2705489121,-4.2995978795,2.4140358351\H,0,4.7629227248,-4.7673177326,1
 .6436525303\H,0,3.8294459296,-5.0263682609,2.9904349332\H,0,4.97495272
 57,-3.8341277376,2.9988224497\O,0,1.2236560812,-0.3062249616,-1.611638
 9975\H,0,0.8001687329,-1.0013709023,-2.2538516636\\Version=ES64L-G16Re
 vC.01\HF=-1300.5903613\RMSD=9.489e-09\Dipole=6.0671946,-4.3605107,4.73
 59776\Quadrupole=15.7929776,-2.578384,-13.2145936,-50.4798665,33.94055
 69,-25.1043948\PG=C01 [X(C20H31N4O4)]\\@
 The archive entry for this job was punched.


 Other things may change us, but we start and end with family.
 -- Anthony Brandt
 Job cpu time:       0 days  0 hours  1 minutes 36.7 seconds.
 Elapsed time:       0 days  0 hours  0 minutes 24.6 seconds.
 File lengths (MBytes):  RWF=    240 Int=      0 D2E=      0 Chk=     32 Scr=     16
 Normal termination of Gaussian 16 at Thu Jun  2 02:33:23 2022.
