 Entering Gaussian System, Link 0=/opt/software/Gaussian/g16-AVX2-C.01/g16/g16
 Input=charge-conf-879.com
 Output=charge-conf-879.log
 Initial command:
 /opt/software/Gaussian/g16-AVX2-C.01/g16/l1.exe "/mnt/gs18/scratch/users/kengmith/Gau-111814.inp" -scrdir="/mnt/gs18/scratch/users/kengmith/"
 Entering Link 1 = /opt/software/Gaussian/g16-AVX2-C.01/g16/l1.exe PID=    111827.
  
 Copyright (c) 1988-2019, Gaussian, Inc.  All Rights Reserved.
  
 This is part of the Gaussian(R) 16 program.  It is based on
 the Gaussian(R) 09 system (copyright 2009, Gaussian, Inc.),
 the Gaussian(R) 03 system (copyright 2003, Gaussian, Inc.),
 the Gaussian(R) 98 system (copyright 1998, Gaussian, Inc.),
 the Gaussian(R) 94 system (copyright 1995, Gaussian, Inc.),
 the Gaussian 92(TM) system (copyright 1992, Gaussian, Inc.),
 the Gaussian 90(TM) system (copyright 1990, Gaussian, Inc.),
 the Gaussian 88(TM) system (copyright 1988, Gaussian, Inc.),
 the Gaussian 86(TM) system (copyright 1986, Carnegie Mellon
 University), and the Gaussian 82(TM) system (copyright 1983,
 Carnegie Mellon University). Gaussian is a federally registered
 trademark of Gaussian, Inc.
  
 This software contains proprietary and confidential information,
 including trade secrets, belonging to Gaussian, Inc.
  
 This software is provided under written license and may be
 used, copied, transmitted, or stored only in accord with that
 written license.
  
 The following legend is applicable only to US Government
 contracts under FAR:
  
                    RESTRICTED RIGHTS LEGEND
  
 Use, reproduction and disclosure by the US Government is
 subject to restrictions as set forth in subparagraphs (a)
 and (c) of the Commercial Computer Software - Restricted
 Rights clause in FAR 52.227-19.
  
 Gaussian, Inc.
 340 Quinnipiac St., Bldg. 40, Wallingford CT 06492
  
  
 ---------------------------------------------------------------
 Warning -- This program may not be used in any manner that
 competes with the business of Gaussian, Inc. or will provide
 assistance to any competitor of Gaussian, Inc.  The licensee
 of this program is prohibited from giving any competitor of
 Gaussian, Inc. access to this program.  By using this program,
 the user acknowledges that Gaussian, Inc. is engaged in the
 business of creating and licensing software in the field of
 computational chemistry and represents and warrants to the
 licensee that it is not a competitor of Gaussian, Inc. and that
 it will not use this program in any manner prohibited above.
 ---------------------------------------------------------------
  

 Cite this work as:
 Gaussian 16, Revision C.01,
 M. J. Frisch, G. W. Trucks, H. B. Schlegel, G. E. Scuseria, 
 M. A. Robb, J. R. Cheeseman, G. Scalmani, V. Barone, 
 G. A. Petersson, H. Nakatsuji, X. Li, M. Caricato, A. V. Marenich, 
 J. Bloino, B. G. Janesko, R. Gomperts, B. Mennucci, H. P. Hratchian, 
 J. V. Ortiz, A. F. Izmaylov, J. L. Sonnenberg, D. Williams-Young, 
 F. Ding, F. Lipparini, F. Egidi, J. Goings, B. Peng, A. Petrone, 
 T. Henderson, D. Ranasinghe, V. G. Zakrzewski, J. Gao, N. Rega, 
 G. Zheng, W. Liang, M. Hada, M. Ehara, K. Toyota, R. Fukuda, 
 J. Hasegawa, M. Ishida, T. Nakajima, Y. Honda, O. Kitao, H. Nakai, 
 T. Vreven, K. Throssell, J. A. Montgomery, Jr., J. E. Peralta, 
 F. Ogliaro, M. J. Bearpark, J. J. Heyd, E. N. Brothers, K. N. Kudin, 
 V. N. Staroverov, T. A. Keith, R. Kobayashi, J. Normand, 
 K. Raghavachari, A. P. Rendell, J. C. Burant, S. S. Iyengar, 
 J. Tomasi, M. Cossi, J. M. Millam, M. Klene, C. Adamo, R. Cammi, 
 J. W. Ochterski, R. L. Martin, K. Morokuma, O. Farkas, 
 J. B. Foresman, and D. J. Fox, Gaussian, Inc., Wallingford CT, 2019.
 
 ******************************************
 Gaussian 16:  ES64L-G16RevC.01  3-Jul-2019
                 1-Jun-2022 
 ******************************************
 %mem=8gb
 %nproc=4
 Will use up to    4 processors via shared memory.
 %chk=conf-879.chk
 ----------------------------------------------------------------------
 # B3LYP/6-31G* empiricaldispersion=gd3 guess=read geom=check nosymm in
 tegral(ultrafinegrid)
 ----------------------------------------------------------------------
 1/29=2,38=1,172=1/1;
 2/12=2,15=1,40=1/2;
 3/5=1,6=6,7=1,11=2,14=-4,25=1,30=1,74=-5,75=-5,116=-2,124=31/1,2,3;
 4/5=1/1;
 5/5=2,38=6/2;
 6/7=2,8=2,9=2,10=2,28=1/1;
 99/5=1,9=1/99;
 ------------------------------------------------------
 Candidate Structure: Conf:879 Charge calc in gas phase
 ------------------------------------------------------
 Structure from the checkpoint file:  "conf-879.chk"
 Charge =  1 Multiplicity = 1
 Redundant internal coordinates found in file.  (old form).
 N,0,-0.4298611721,-3.2574417624,3.1753586536
 H,0,0.217873545,-3.0038319001,3.9267819953
 H,0,-1.1036938279,-3.9394229232,3.5320127548
 H,0,0.1331922806,-3.6474832918,2.3680736894
 C,0,-1.0854249918,-2.0436642411,2.531692277
 H,0,-1.1814389807,-1.2377052265,3.2601691135
 C,0,-0.077807515,-1.723291227,1.3890657359
 C,0,-2.4748354324,-2.4577827016,1.9634829875
 H,0,-2.8744266392,-3.276654184,2.5801907653
 H,0,-2.3352826956,-2.8617257484,0.9541846331
 O,0,0.5890656107,-2.6762503148,0.9481646426
 C,0,-3.5148307504,-1.3156996853,1.9310268676
 H,0,-3.7967027353,-1.0479507179,2.9541299732
 H,0,-4.3956648161,-1.6745606555,1.3914850278
 C,0,-2.8829936169,-0.0989373896,1.2287274759
 O,0,-2.9640030517,-0.0246258595,-0.0114665161
 O,0,-2.1579118471,0.6186668983,2.0044338835
 N,0,-0.0627859087,-0.4677715469,0.9507725977
 H,0,-0.7966232148,0.1718690174,1.3795397583
 C,0,0.3410060942,-0.1205286454,-0.4101418585
 H,0,-0.0446349735,0.8993569925,-0.5249160913
 C,0,1.8593301955,0.0148755964,-0.6023794303
 C,0,-0.3281278794,-0.9813420507,-1.509226834
 H,0,0.2507052145,-1.8923829062,-1.6723904672
 H,0,-1.3252062707,-1.2391698537,-1.1417484415
 O,0,2.3986666808,-0.1972795482,-1.6879847688
 C,0,-0.4579394338,-0.1635687695,-2.7731248367
 C,0,-1.3744992743,0.90036072,-2.8021531233
 H,0,-2.0579800954,1.0237436986,-1.9628213677
 C,0,0.3853951691,-0.3661431064,-3.8701216437
 H,0,1.0987653209,-1.1823438138,-3.8509359649
 C,0,-1.3900816069,1.7965923211,-3.8730554085
 H,0,-2.0785908795,2.6357582565,-3.9023007323
 C,0,0.3791489826,0.5196796796,-4.9471484371
 H,0,1.0662955048,0.3844885904,-5.7803443497
 O,0,-0.3650378631,2.6501883874,-5.8606502499
 H,0,-0.2038026461,2.2735580153,-6.7423756298
 C,0,-0.4908594734,1.6079300669,-4.9186197263
 N,0,2.5205334763,0.5308603124,0.4630467738
 H,0,2.0293116883,0.6766149992,1.3382432165
 C,0,3.8663885896,1.0674069857,0.3692169109
 H,0,4.5835249693,0.2615634331,0.1666740077
 C,0,4.2100111849,1.6536842734,1.7334491076
 C,0,4.0157386275,2.116995934,-0.7643055487
 H,0,5.0311066149,2.5233645027,-0.725485838
 H,0,3.9166888062,1.5643195687,-1.7003037456
 O,0,3.4501746498,1.6983258742,2.6767902964
 C,0,2.9808921267,3.2525145677,-0.6912931348
 H,0,3.3103122044,4.0110450266,0.0274942918
 H,0,2.0261877095,2.8695986282,-0.3098638768
 C,0,2.7343915145,3.93706983,-2.0497111706
 H,0,2.2733228401,4.9204582564,-1.8833834032
 H,0,3.6969888459,4.115685585,-2.5508463173
 C,0,1.8195445355,3.1137479413,-2.9581393059
 H,0,2.189559656,2.1074712747,-3.1663849302
 H,0,0.8102495337,3.0113653934,-2.5536507289
 N,0,1.6596630195,3.8166360596,-4.3015364153
 H,0,0.9648481428,3.3593410971,-4.9466510074
 H,0,2.5598363016,3.8717305179,-4.7889797777
 H,0,1.3393573422,4.7811918403,-4.1610011214
 O,0,5.4687136803,2.1280524124,1.7598232687
 H,0,5.6274888637,2.4823872548,2.6557198242
 Recover connectivity data from disk.
                           ----------------------------
                           !    Current Parameters    !
                           ! (Angstroms and Degrees)  !
 --------------------------                            --------------------------
 ! Name  Definition              Value                                          !
 --------------------------------------------------------------------------------
 ! R1    R(1,2)                  1.024                                          !
 ! R2    R(1,3)                  1.0229                                         !
 ! R3    R(1,4)                  1.0587                                         !
 ! R4    R(1,5)                  1.5223                                         !
 ! R5    R(5,6)                  1.0906                                         !
 ! R6    R(5,7)                  1.5568                                         !
 ! R7    R(5,8)                  1.5572                                         !
 ! R8    R(7,11)                 1.2439                                         !
 ! R9    R(7,18)                 1.3299                                         !
 ! R10   R(8,9)                  1.1003                                         !
 ! R11   R(8,10)                 1.0961                                         !
 ! R12   R(8,12)                 1.545                                          !
 ! R13   R(12,13)                1.0945                                         !
 ! R14   R(12,14)                1.0935                                         !
 ! R15   R(12,15)                1.5404                                         !
 ! R16   R(15,16)                1.2451                                         !
 ! R17   R(15,17)                1.2816                                         !
 ! R18   R(18,19)                1.0637                                         !
 ! R19   R(18,20)                1.4614                                         !
 ! R20   R(20,21)                1.0964                                         !
 ! R21   R(20,22)                1.5364                                         !
 ! R22   R(20,23)                1.5481                                         !
 ! R23   R(22,26)                1.2306                                         !
 ! R24   R(22,39)                1.3559                                         !
 ! R25   R(23,24)                1.0916                                         !
 ! R26   R(23,25)                1.0935                                         !
 ! R27   R(23,27)                1.511                                          !
 ! R28   R(27,28)                1.4046                                         !
 ! R29   R(27,30)                1.3984                                         !
 ! R30   R(28,29)                1.0894                                         !
 ! R31   R(28,32)                1.3965                                         !
 ! R32   R(30,31)                1.0842                                         !
 ! R33   R(30,34)                1.3945                                         !
 ! R34   R(32,33)                1.0859                                         !
 ! R35   R(32,38)                1.3919                                         !
 ! R36   R(34,35)                1.0884                                         !
 ! R37   R(34,38)                1.3936                                         !
 ! R38   R(36,37)                0.9723                                         !
 ! R39   R(36,38)                1.4105                                         !
 ! R40   R(39,40)                1.0142                                         !
 ! R41   R(39,41)                1.4519                                         !
 ! R42   R(41,42)                1.0976                                         !
 ! R43   R(41,43)                1.5241                                         !
 ! R44   R(41,44)                1.552                                          !
 ! R45   R(43,47)                1.2121                                         !
 ! R46   R(43,61)                1.3454                                         !
 ! R47   R(44,45)                1.0944                                         !
 ! R48   R(44,46)                1.0915                                         !
 ! R49   R(44,48)                1.5381                                         !
 ! R50   R(48,49)                1.0957                                         !
 ! R51   R(48,50)                1.0971                                         !
 ! R52   R(48,51)                1.541                                          !
 ! R53   R(51,52)                1.0988                                         !
 ! R54   R(51,53)                1.0998                                         !
 ! R55   R(51,54)                1.5297                                         !
 ! R56   R(54,55)                1.0922                                         !
 ! R57   R(54,56)                1.0921                                         !
 ! R58   R(54,57)                1.5246                                         !
 ! R59   R(57,58)                1.0526                                         !
 ! R60   R(57,59)                1.0252                                         !
 ! R61   R(57,60)                1.026                                          !
 ! R62   R(61,62)                0.9764                                         !
 ! A1    A(2,1,3)              109.0239                                         !
 ! A2    A(2,1,4)              108.3237                                         !
 ! A3    A(2,1,5)              112.6575                                         !
 ! A4    A(3,1,4)              111.7512                                         !
 ! A5    A(3,1,5)              113.2869                                         !
 ! A6    A(4,1,5)              101.5583                                         !
 ! A7    A(1,5,6)              110.1642                                         !
 ! A8    A(1,5,7)              101.2856                                         !
 ! A9    A(1,5,8)              109.056                                          !
 ! A10   A(6,5,7)              113.2756                                         !
 ! A11   A(6,5,8)              111.205                                          !
 ! A12   A(7,5,8)              111.3719                                         !
 ! A13   A(5,7,11)             116.7119                                         !
 ! A14   A(5,7,18)             116.3265                                         !
 ! A15   A(11,7,18)            126.8979                                         !
 ! A16   A(5,8,9)              108.5089                                         !
 ! A17   A(5,8,10)             108.6883                                         !
 ! A18   A(5,8,12)             114.3112                                         !
 ! A19   A(9,8,10)             106.7442                                         !
 ! A20   A(9,8,12)             108.5101                                         !
 ! A21   A(10,8,12)            109.8035                                         !
 ! A22   A(8,12,13)            109.5459                                         !
 ! A23   A(8,12,14)            108.059                                          !
 ! A24   A(8,12,15)            108.504                                          !
 ! A25   A(13,12,14)           109.5154                                         !
 ! A26   A(13,12,15)           109.7903                                         !
 ! A27   A(14,12,15)           111.387                                          !
 ! A28   A(12,15,16)           118.3323                                         !
 ! A29   A(12,15,17)           113.4781                                         !
 ! A30   A(16,15,17)           127.3229                                         !
 ! A31   A(7,18,19)            115.2808                                         !
 ! A32   A(7,18,20)            122.2993                                         !
 ! A33   A(19,18,20)           115.0305                                         !
 ! A34   A(18,20,21)           102.7871                                         !
 ! A35   A(18,20,22)           114.2366                                         !
 ! A36   A(18,20,23)           114.1785                                         !
 ! A37   A(21,20,22)           104.6265                                         !
 ! A38   A(21,20,23)           106.9111                                         !
 ! A39   A(22,20,23)           112.7867                                         !
 ! A40   A(20,22,26)           121.8895                                         !
 ! A41   A(20,22,39)           114.6526                                         !
 ! A42   A(26,22,39)           123.0279                                         !
 ! A43   A(20,23,24)           109.9364                                         !
 ! A44   A(20,23,25)           106.6567                                         !
 ! A45   A(20,23,27)           109.2716                                         !
 ! A46   A(24,23,25)           109.6913                                         !
 ! A47   A(24,23,27)           111.8522                                         !
 ! A48   A(25,23,27)           109.2923                                         !
 ! A49   A(23,27,28)           118.9016                                         !
 ! A50   A(23,27,30)           121.7328                                         !
 ! A51   A(28,27,30)           119.1456                                         !
 ! A52   A(27,28,29)           118.6369                                         !
 ! A53   A(27,28,32)           120.613                                          !
 ! A54   A(29,28,32)           120.7378                                         !
 ! A55   A(27,30,31)           119.4699                                         !
 ! A56   A(27,30,34)           120.7388                                         !
 ! A57   A(31,30,34)           119.6579                                         !
 ! A58   A(28,32,33)           121.5795                                         !
 ! A59   A(28,32,38)           118.805                                          !
 ! A60   A(33,32,38)           119.6136                                         !
 ! A61   A(30,34,35)           120.6301                                         !
 ! A62   A(30,34,38)           118.8836                                         !
 ! A63   A(35,34,38)           120.4513                                         !
 ! A64   A(37,36,38)           109.5255                                         !
 ! A65   A(32,38,34)           121.6379                                         !
 ! A66   A(32,38,36)           117.3326                                         !
 ! A67   A(34,38,36)           120.5087                                         !
 ! A68   A(22,39,40)           119.7742                                         !
 ! A69   A(22,39,41)           122.8108                                         !
 ! A70   A(40,39,41)           116.8494                                         !
 ! A71   A(39,41,42)           110.2587                                         !
 ! A72   A(39,41,43)           107.0554                                         !
 ! A73   A(39,41,44)           112.7252                                         !
 ! A74   A(42,41,43)           107.475                                          !
 ! A75   A(42,41,44)           107.3894                                         !
 ! A76   A(43,41,44)           111.8327                                         !
 ! A77   A(41,43,47)           124.712                                          !
 ! A78   A(41,43,61)           111.3527                                         !
 ! A79   A(47,43,61)           123.9339                                         !
 ! A80   A(41,44,45)           108.3303                                         !
 ! A81   A(41,44,46)           105.9704                                         !
 ! A82   A(41,44,48)           113.5693                                         !
 ! A83   A(45,44,46)           107.6162                                         !
 ! A84   A(45,44,48)           110.3914                                         !
 ! A85   A(46,44,48)           110.7002                                         !
 ! A86   A(44,48,49)           109.8741                                         !
 ! A87   A(44,48,50)           110.1409                                         !
 ! A88   A(44,48,51)           113.1877                                         !
 ! A89   A(49,48,50)           105.9729                                         !
 ! A90   A(49,48,51)           108.5932                                         !
 ! A91   A(50,48,51)           108.804                                          !
 ! A92   A(48,51,52)           109.3454                                         !
 ! A93   A(48,51,53)           109.4997                                         !
 ! A94   A(48,51,54)           112.3377                                         !
 ! A95   A(52,51,53)           106.9111                                         !
 ! A96   A(52,51,54)           108.7016                                         !
 ! A97   A(53,51,54)           109.8918                                         !
 ! A98   A(51,54,55)           113.9853                                         !
 ! A99   A(51,54,56)           112.5319                                         !
 ! A100  A(51,54,57)           109.7464                                         !
 ! A101  A(55,54,56)           107.2974                                         !
 ! A102  A(55,54,57)           106.9953                                         !
 ! A103  A(56,54,57)           105.8223                                         !
 ! A104  A(54,57,58)           114.1392                                         !
 ! A105  A(54,57,59)           110.5894                                         !
 ! A106  A(54,57,60)           110.2102                                         !
 ! A107  A(58,57,59)           108.1521                                         !
 ! A108  A(58,57,60)           106.6355                                         !
 ! A109  A(59,57,60)           106.7818                                         !
 ! A110  A(43,61,62)           107.3419                                         !
 ! D1    D(2,1,5,6)            -29.9891                                         !
 ! D2    D(2,1,5,7)             90.1789                                         !
 ! D3    D(2,1,5,8)           -152.2997                                         !
 ! D4    D(3,1,5,6)             94.3586                                         !
 ! D5    D(3,1,5,7)           -145.4734                                         !
 ! D6    D(3,1,5,8)            -27.952                                          !
 ! D7    D(4,1,5,6)           -145.6536                                         !
 ! D8    D(4,1,5,7)            -25.4856                                         !
 ! D9    D(4,1,5,8)             92.0358                                         !
 ! D10   D(1,5,7,11)            27.1002                                         !
 ! D11   D(1,5,7,18)          -155.5992                                         !
 ! D12   D(6,5,7,11)           145.0368                                         !
 ! D13   D(6,5,7,18)           -37.6627                                         !
 ! D14   D(8,5,7,11)           -88.7237                                         !
 ! D15   D(8,5,7,18)            88.5769                                         !
 ! D16   D(1,5,8,9)             29.8142                                         !
 ! D17   D(1,5,8,10)           -85.905                                          !
 ! D18   D(1,5,8,12)           151.0524                                         !
 ! D19   D(6,5,8,9)            -91.8674                                         !
 ! D20   D(6,5,8,10)           152.4134                                         !
 ! D21   D(6,5,8,12)            29.3709                                         !
 ! D22   D(7,5,8,9)            140.7614                                         !
 ! D23   D(7,5,8,10)            25.0422                                         !
 ! D24   D(7,5,8,12)           -98.0004                                         !
 ! D25   D(5,7,18,19)           -4.4294                                         !
 ! D26   D(5,7,18,20)         -152.8735                                         !
 ! D27   D(11,7,18,19)         172.555                                          !
 ! D28   D(11,7,18,20)          24.1109                                         !
 ! D29   D(5,8,12,13)          -68.5466                                         !
 ! D30   D(5,8,12,14)          172.2039                                         !
 ! D31   D(5,8,12,15)           51.3003                                         !
 ! D32   D(9,8,12,13)           52.6909                                         !
 ! D33   D(9,8,12,14)          -66.5586                                         !
 ! D34   D(9,8,12,15)          172.5379                                         !
 ! D35   D(10,8,12,13)         169.0164                                         !
 ! D36   D(10,8,12,14)          49.7669                                         !
 ! D37   D(10,8,12,15)         -71.1367                                         !
 ! D38   D(8,12,15,16)          87.1312                                         !
 ! D39   D(8,12,15,17)         -82.9945                                         !
 ! D40   D(13,12,15,16)       -153.1745                                         !
 ! D41   D(13,12,15,17)         36.6997                                         !
 ! D42   D(14,12,15,16)        -31.6941                                         !
 ! D43   D(14,12,15,17)        158.1801                                         !
 ! D44   D(7,18,20,21)         163.5236                                         !
 ! D45   D(7,18,20,22)         -83.7618                                         !
 ! D46   D(7,18,20,23)          48.128                                          !
 ! D47   D(19,18,20,21)         15.0074                                         !
 ! D48   D(19,18,20,22)        127.722                                          !
 ! D49   D(19,18,20,23)       -100.3882                                         !
 ! D50   D(18,20,22,26)        152.1835                                         !
 ! D51   D(18,20,22,39)        -35.1297                                         !
 ! D52   D(21,20,22,26)        -96.2033                                         !
 ! D53   D(21,20,22,39)         76.4835                                         !
 ! D54   D(23,20,22,26)         19.6274                                         !
 ! D55   D(23,20,22,39)       -167.6859                                         !
 ! D56   D(18,20,23,24)        -86.5064                                         !
 ! D57   D(18,20,23,25)         32.3522                                         !
 ! D58   D(18,20,23,27)        150.3825                                         !
 ! D59   D(21,20,23,24)        160.5342                                         !
 ! D60   D(21,20,23,25)        -80.6071                                         !
 ! D61   D(21,20,23,27)         37.4231                                         !
 ! D62   D(22,20,23,24)         46.0782                                         !
 ! D63   D(22,20,23,25)        164.9369                                         !
 ! D64   D(22,20,23,27)        -77.0329                                         !
 ! D65   D(20,22,39,40)          8.05                                           !
 ! D66   D(20,22,39,41)       -163.0495                                         !
 ! D67   D(26,22,39,40)       -179.3568                                         !
 ! D68   D(26,22,39,41)          9.5437                                         !
 ! D69   D(20,23,27,28)        -69.9018                                         !
 ! D70   D(20,23,27,30)        104.6616                                         !
 ! D71   D(24,23,27,28)        168.1335                                         !
 ! D72   D(24,23,27,30)        -17.3031                                         !
 ! D73   D(25,23,27,28)         46.4644                                         !
 ! D74   D(25,23,27,30)       -138.9722                                         !
 ! D75   D(23,27,28,29)         -7.9984                                         !
 ! D76   D(23,27,28,32)        170.736                                          !
 ! D77   D(30,27,28,29)        177.2954                                         !
 ! D78   D(30,27,28,32)         -3.9702                                         !
 ! D79   D(23,27,30,31)          5.1027                                         !
 ! D80   D(23,27,30,34)       -170.6847                                         !
 ! D81   D(28,27,30,31)        179.6532                                         !
 ! D82   D(28,27,30,34)          3.8658                                         !
 ! D83   D(27,28,32,33)       -178.7814                                         !
 ! D84   D(27,28,32,38)          0.7094                                         !
 ! D85   D(29,28,32,33)         -0.0738                                         !
 ! D86   D(29,28,32,38)        179.4171                                         !
 ! D87   D(27,30,34,35)        177.3511                                         !
 ! D88   D(27,30,34,38)         -0.5059                                         !
 ! D89   D(31,30,34,35)          1.5716                                         !
 ! D90   D(31,30,34,38)       -176.2854                                         !
 ! D91   D(28,32,38,34)          2.7673                                         !
 ! D92   D(28,32,38,36)       -168.9917                                         !
 ! D93   D(33,32,38,34)       -177.7317                                         !
 ! D94   D(33,32,38,36)         10.5094                                         !
 ! D95   D(30,34,38,32)         -2.8762                                         !
 ! D96   D(30,34,38,36)        168.6244                                         !
 ! D97   D(35,34,38,32)        179.2628                                         !
 ! D98   D(35,34,38,36)         -9.2365                                         !
 ! D99   D(37,36,38,32)       -145.1863                                         !
 ! D100  D(37,36,38,34)         42.9568                                         !
 ! D101  D(22,39,41,42)        -68.1537                                         !
 ! D102  D(22,39,41,43)        175.2277                                         !
 ! D103  D(22,39,41,44)         51.8443                                         !
 ! D104  D(40,39,41,42)        120.5034                                         !
 ! D105  D(40,39,41,43)          3.8848                                         !
 ! D106  D(40,39,41,44)       -119.4985                                         !
 ! D107  D(39,41,43,47)         -3.0177                                         !
 ! D108  D(39,41,43,61)        177.3997                                         !
 ! D109  D(42,41,43,47)       -121.4614                                         !
 ! D110  D(42,41,43,61)         58.9559                                         !
 ! D111  D(44,41,43,47)        120.9148                                         !
 ! D112  D(44,41,43,61)        -58.6678                                         !
 ! D113  D(39,41,44,45)        176.0581                                         !
 ! D114  D(39,41,44,46)        -68.7006                                         !
 ! D115  D(39,41,44,48)         53.0337                                         !
 ! D116  D(42,41,44,45)        -62.304                                          !
 ! D117  D(42,41,44,46)         52.9373                                         !
 ! D118  D(42,41,44,48)        174.6716                                         !
 ! D119  D(43,41,44,45)         55.3711                                         !
 ! D120  D(43,41,44,46)        170.6124                                         !
 ! D121  D(43,41,44,48)        -67.6534                                         !
 ! D122  D(41,43,61,62)       -179.6733                                         !
 ! D123  D(47,43,61,62)          0.7402                                         !
 ! D124  D(41,44,48,49)         82.1353                                         !
 ! D125  D(41,44,48,50)        -34.2399                                         !
 ! D126  D(41,44,48,51)       -156.2857                                         !
 ! D127  D(45,44,48,49)        -39.7502                                         !
 ! D128  D(45,44,48,50)       -156.1254                                         !
 ! D129  D(45,44,48,51)         81.8288                                         !
 ! D130  D(46,44,48,49)       -158.8033                                         !
 ! D131  D(46,44,48,50)         84.8215                                         !
 ! D132  D(46,44,48,51)        -37.2243                                         !
 ! D133  D(44,48,51,52)       -160.9529                                         !
 ! D134  D(44,48,51,53)        -44.1209                                         !
 ! D135  D(44,48,51,54)         78.273                                          !
 ! D136  D(49,48,51,52)        -38.6569                                         !
 ! D137  D(49,48,51,53)         78.1751                                         !
 ! D138  D(49,48,51,54)       -159.4311                                         !
 ! D139  D(50,48,51,52)         76.2569                                         !
 ! D140  D(50,48,51,53)       -166.9111                                         !
 ! D141  D(50,48,51,54)        -44.5172                                         !
 ! D142  D(48,51,54,55)        -57.8345                                         !
 ! D143  D(48,51,54,56)         64.6389                                         !
 ! D144  D(48,51,54,57)       -177.8091                                         !
 ! D145  D(52,51,54,55)       -178.9787                                         !
 ! D146  D(52,51,54,56)        -56.5052                                         !
 ! D147  D(52,51,54,57)         61.0467                                         !
 ! D148  D(53,51,54,55)         64.3372                                         !
 ! D149  D(53,51,54,56)       -173.1894                                         !
 ! D150  D(53,51,54,57)        -55.6374                                         !
 ! D151  D(51,54,57,58)       -174.0983                                         !
 ! D152  D(51,54,57,59)         63.6906                                         !
 ! D153  D(51,54,57,60)        -54.1463                                         !
 ! D154  D(55,54,57,58)         61.7535                                         !
 ! D155  D(55,54,57,59)        -60.4576                                         !
 ! D156  D(55,54,57,60)       -178.2946                                         !
 ! D157  D(56,54,57,58)        -52.4368                                         !
 ! D158  D(56,54,57,59)       -174.6479                                         !
 ! D159  D(56,54,57,60)         67.5151                                         !
 --------------------------------------------------------------------------------
 Symmetry turned off by external request.
 Stoichiometry    C20H31N4O7(1+)
 Framework group  C1[X(C20H31N4O7)]
 Deg. of freedom   180
 Full point group                 C1      NOp   1
                          Input orientation:                          
 ---------------------------------------------------------------------
 Center     Atomic      Atomic             Coordinates (Angstroms)
 Number     Number       Type             X           Y           Z
 ---------------------------------------------------------------------
      1          7           0       -0.429861   -3.257442    3.175359
      2          1           0        0.217874   -3.003832    3.926782
      3          1           0       -1.103694   -3.939423    3.532013
      4          1           0        0.133192   -3.647483    2.368074
      5          6           0       -1.085425   -2.043664    2.531692
      6          1           0       -1.181439   -1.237705    3.260169
      7          6           0       -0.077808   -1.723291    1.389066
      8          6           0       -2.474835   -2.457783    1.963483
      9          1           0       -2.874427   -3.276654    2.580191
     10          1           0       -2.335283   -2.861726    0.954185
     11          8           0        0.589066   -2.676250    0.948165
     12          6           0       -3.514831   -1.315700    1.931027
     13          1           0       -3.796703   -1.047951    2.954130
     14          1           0       -4.395665   -1.674561    1.391485
     15          6           0       -2.882994   -0.098937    1.228727
     16          8           0       -2.964003   -0.024626   -0.011467
     17          8           0       -2.157912    0.618667    2.004434
     18          7           0       -0.062786   -0.467772    0.950773
     19          1           0       -0.796623    0.171869    1.379540
     20          6           0        0.341006   -0.120529   -0.410142
     21          1           0       -0.044635    0.899357   -0.524916
     22          6           0        1.859330    0.014876   -0.602379
     23          6           0       -0.328128   -0.981342   -1.509227
     24          1           0        0.250705   -1.892383   -1.672390
     25          1           0       -1.325206   -1.239170   -1.141748
     26          8           0        2.398667   -0.197280   -1.687985
     27          6           0       -0.457939   -0.163569   -2.773125
     28          6           0       -1.374499    0.900361   -2.802153
     29          1           0       -2.057980    1.023744   -1.962821
     30          6           0        0.385395   -0.366143   -3.870122
     31          1           0        1.098765   -1.182344   -3.850936
     32          6           0       -1.390082    1.796592   -3.873055
     33          1           0       -2.078591    2.635758   -3.902301
     34          6           0        0.379149    0.519680   -4.947148
     35          1           0        1.066296    0.384489   -5.780344
     36          8           0       -0.365038    2.650188   -5.860650
     37          1           0       -0.203803    2.273558   -6.742376
     38          6           0       -0.490859    1.607930   -4.918620
     39          7           0        2.520533    0.530860    0.463047
     40          1           0        2.029312    0.676615    1.338243
     41          6           0        3.866389    1.067407    0.369217
     42          1           0        4.583525    0.261563    0.166674
     43          6           0        4.210011    1.653684    1.733449
     44          6           0        4.015739    2.116996   -0.764306
     45          1           0        5.031107    2.523365   -0.725486
     46          1           0        3.916689    1.564320   -1.700304
     47          8           0        3.450175    1.698326    2.676790
     48          6           0        2.980892    3.252515   -0.691293
     49          1           0        3.310312    4.011045    0.027494
     50          1           0        2.026188    2.869599   -0.309864
     51          6           0        2.734392    3.937070   -2.049711
     52          1           0        2.273323    4.920458   -1.883383
     53          1           0        3.696989    4.115686   -2.550846
     54          6           0        1.819545    3.113748   -2.958139
     55          1           0        2.189560    2.107471   -3.166385
     56          1           0        0.810250    3.011365   -2.553651
     57          7           0        1.659663    3.816636   -4.301536
     58          1           0        0.964848    3.359341   -4.946651
     59          1           0        2.559836    3.871731   -4.788980
     60          1           0        1.339357    4.781192   -4.161001
     61          8           0        5.468714    2.128052    1.759823
     62          1           0        5.627489    2.482387    2.655720
 ---------------------------------------------------------------------
 Rotational constants (GHZ):           0.1586467           0.1160578           0.0787585
 Standard basis: 6-31G(d) (6D, 7F)
   527 basis functions,   992 primitive gaussians,   527 cartesian basis functions
   117 alpha electrons      117 beta electrons
       nuclear repulsion energy      3425.8984033270 Hartrees.
 NAtoms=   62 NActive=   62 NUniq=   62 SFac= 1.00D+00 NAtFMM=   60 NAOKFM=T Big=T
 Integral buffers will be    131072 words long.
 Raffenetti 2 integral format.
 Two-electron integral symmetry is turned off.
 Nuclear repulsion after empirical dispersion term =     3425.8112212104 Hartrees.
 One-electron integrals computed using PRISM.
 NBasis=   527 RedAO= T EigKep=  4.27D-04  NBF=   527
 NBsUse=   527 1.00D-06 EigRej= -1.00D+00 NBFU=   527
 Initial guess from the checkpoint file:  "conf-879.chk"
 B after Tr=     0.000000    0.000000    0.000000
         Rot=    1.000000    0.000000    0.000000    0.000000 Ang=   0.00 deg.
 Requested convergence on RMS density matrix=1.00D-08 within 128 cycles.
 Requested convergence on MAX density matrix=1.00D-06.
 Requested convergence on             energy=1.00D-06.
 No special actions if energy rises.
 SCF Done:  E(RB3LYP) =  -1526.25840613     A.U. after    1 cycles
            NFock=  1  Conv=0.27D-08     -V/T= 2.0093

 **********************************************************************

            Population analysis using the SCF Density.

 **********************************************************************

 Alpha  occ. eigenvalues --  -19.30288 -19.29556 -19.24147 -19.23163 -19.20516
 Alpha  occ. eigenvalues --  -19.13911 -19.13848 -14.59352 -14.56982 -14.44782
 Alpha  occ. eigenvalues --  -14.44011 -10.42089 -10.39442 -10.37643 -10.37642
 Alpha  occ. eigenvalues --  -10.36375 -10.34573 -10.33756 -10.32475 -10.31991
 Alpha  occ. eigenvalues --  -10.31969 -10.29920 -10.29863 -10.28835 -10.28715
 Alpha  occ. eigenvalues --  -10.28134 -10.27827 -10.27772 -10.27133 -10.26040
 Alpha  occ. eigenvalues --  -10.24699  -1.20607  -1.17130  -1.15412  -1.13598
 Alpha  occ. eigenvalues --   -1.12513  -1.11675  -1.10521  -1.07365  -1.02446
 Alpha  occ. eigenvalues --   -1.01166  -0.98264  -0.94605  -0.92932  -0.89761
 Alpha  occ. eigenvalues --   -0.88106  -0.86967  -0.83948  -0.83241  -0.81987
 Alpha  occ. eigenvalues --   -0.79713  -0.77176  -0.75054  -0.73125  -0.73042
 Alpha  occ. eigenvalues --   -0.72649  -0.71292  -0.70814  -0.70267  -0.69652
 Alpha  occ. eigenvalues --   -0.68442  -0.67894  -0.66282  -0.65632  -0.63904
 Alpha  occ. eigenvalues --   -0.63253  -0.62946  -0.60721  -0.59175  -0.59051
 Alpha  occ. eigenvalues --   -0.58782  -0.58078  -0.57626  -0.57250  -0.56331
 Alpha  occ. eigenvalues --   -0.55849  -0.55511  -0.54542  -0.53961  -0.53439
 Alpha  occ. eigenvalues --   -0.52168  -0.52004  -0.51968  -0.51533  -0.51427
 Alpha  occ. eigenvalues --   -0.50836  -0.50679  -0.50378  -0.49431  -0.48800
 Alpha  occ. eigenvalues --   -0.48352  -0.48010  -0.47262  -0.47141  -0.46018
 Alpha  occ. eigenvalues --   -0.45916  -0.45426  -0.45066  -0.44804  -0.44209
 Alpha  occ. eigenvalues --   -0.43710  -0.43439  -0.42774  -0.41988  -0.41735
 Alpha  occ. eigenvalues --   -0.41667  -0.40248  -0.37683  -0.37395  -0.36663
 Alpha  occ. eigenvalues --   -0.34937  -0.34283  -0.33967  -0.31437  -0.29967
 Alpha  occ. eigenvalues --   -0.28620  -0.27650
 Alpha virt. eigenvalues --   -0.10725  -0.10051  -0.09434  -0.09162  -0.08581
 Alpha virt. eigenvalues --   -0.07869  -0.06702  -0.05107  -0.04493  -0.04058
 Alpha virt. eigenvalues --   -0.03681  -0.01551  -0.00908  -0.00221   0.00764
 Alpha virt. eigenvalues --    0.00970   0.01628   0.02020   0.02364   0.02879
 Alpha virt. eigenvalues --    0.03416   0.03666   0.04384   0.04979   0.05519
 Alpha virt. eigenvalues --    0.05793   0.06022   0.06366   0.07183   0.07513
 Alpha virt. eigenvalues --    0.07812   0.08287   0.08727   0.09867   0.10307
 Alpha virt. eigenvalues --    0.10411   0.10590   0.11236   0.11847   0.12101
 Alpha virt. eigenvalues --    0.12553   0.13332   0.13647   0.13988   0.14625
 Alpha virt. eigenvalues --    0.15056   0.15890   0.16398   0.16537   0.17144
 Alpha virt. eigenvalues --    0.18095   0.18330   0.19983   0.20270   0.21189
 Alpha virt. eigenvalues --    0.22303   0.22719   0.24772   0.25655   0.26217
 Alpha virt. eigenvalues --    0.27679   0.28880   0.29445   0.30576   0.33262
 Alpha virt. eigenvalues --    0.34479   0.35087   0.36514   0.36927   0.37376
 Alpha virt. eigenvalues --    0.38624   0.40328   0.40821   0.41246   0.42557
 Alpha virt. eigenvalues --    0.42956   0.43779   0.44218   0.44916   0.45255
 Alpha virt. eigenvalues --    0.45549   0.46283   0.46462   0.47036   0.47675
 Alpha virt. eigenvalues --    0.48745   0.49334   0.49750   0.50538   0.50984
 Alpha virt. eigenvalues --    0.51948   0.52417   0.52440   0.52587   0.53083
 Alpha virt. eigenvalues --    0.53856   0.54033   0.54383   0.54571   0.55337
 Alpha virt. eigenvalues --    0.55648   0.56132   0.56639   0.57668   0.58228
 Alpha virt. eigenvalues --    0.58871   0.59652   0.60201   0.60665   0.60857
 Alpha virt. eigenvalues --    0.61863   0.62501   0.63105   0.63911   0.64113
 Alpha virt. eigenvalues --    0.64901   0.65989   0.66183   0.66877   0.67018
 Alpha virt. eigenvalues --    0.67320   0.67905   0.68378   0.68520   0.69737
 Alpha virt. eigenvalues --    0.69925   0.70429   0.70798   0.71786   0.72408
 Alpha virt. eigenvalues --    0.73350   0.73774   0.74024   0.74361   0.75151
 Alpha virt. eigenvalues --    0.75442   0.75939   0.76163   0.76862   0.77116
 Alpha virt. eigenvalues --    0.78009   0.78725   0.79118   0.79752   0.80396
 Alpha virt. eigenvalues --    0.80610   0.80767   0.81055   0.81346   0.82001
 Alpha virt. eigenvalues --    0.82568   0.83102   0.83594   0.83838   0.84534
 Alpha virt. eigenvalues --    0.85235   0.85405   0.86253   0.86477   0.87356
 Alpha virt. eigenvalues --    0.87866   0.88085   0.88642   0.89434   0.90472
 Alpha virt. eigenvalues --    0.90985   0.91449   0.92662   0.93344   0.94820
 Alpha virt. eigenvalues --    0.95285   0.96170   0.96782   0.97871   0.98598
 Alpha virt. eigenvalues --    0.98947   1.00243   1.01634   1.01822   1.02464
 Alpha virt. eigenvalues --    1.03804   1.04310   1.04963   1.05676   1.06711
 Alpha virt. eigenvalues --    1.07633   1.07940   1.09249   1.10160   1.10585
 Alpha virt. eigenvalues --    1.10772   1.11861   1.13469   1.14131   1.15753
 Alpha virt. eigenvalues --    1.16266   1.17148   1.18999   1.19822   1.21399
 Alpha virt. eigenvalues --    1.22094   1.22398   1.24594   1.24985   1.25769
 Alpha virt. eigenvalues --    1.27980   1.29557   1.29983   1.30414   1.30887
 Alpha virt. eigenvalues --    1.31540   1.32607   1.34075   1.34808   1.35231
 Alpha virt. eigenvalues --    1.36745   1.38117   1.39260   1.40066   1.41312
 Alpha virt. eigenvalues --    1.41536   1.42052   1.43957   1.44440   1.45121
 Alpha virt. eigenvalues --    1.46855   1.47229   1.48620   1.50020   1.51910
 Alpha virt. eigenvalues --    1.52782   1.53215   1.55059   1.57531   1.58851
 Alpha virt. eigenvalues --    1.59254   1.59757   1.60484   1.62165   1.62598
 Alpha virt. eigenvalues --    1.63430   1.64696   1.65332   1.66733   1.67798
 Alpha virt. eigenvalues --    1.68293   1.68761   1.68880   1.69899   1.70476
 Alpha virt. eigenvalues --    1.71488   1.71891   1.72146   1.72882   1.73153
 Alpha virt. eigenvalues --    1.74333   1.74729   1.75410   1.75677   1.76302
 Alpha virt. eigenvalues --    1.77200   1.78069   1.78443   1.78564   1.80097
 Alpha virt. eigenvalues --    1.80457   1.81941   1.82344   1.83627   1.84133
 Alpha virt. eigenvalues --    1.84368   1.85050   1.85410   1.85593   1.86437
 Alpha virt. eigenvalues --    1.87194   1.87915   1.88062   1.88380   1.89250
 Alpha virt. eigenvalues --    1.89476   1.89729   1.90856   1.91135   1.92829
 Alpha virt. eigenvalues --    1.93213   1.95057   1.95395   1.96244   1.96856
 Alpha virt. eigenvalues --    1.98322   1.99251   1.99376   2.00440   2.01276
 Alpha virt. eigenvalues --    2.02037   2.03160   2.04199   2.05885   2.06655
 Alpha virt. eigenvalues --    2.07218   2.08514   2.09602   2.12130   2.12197
 Alpha virt. eigenvalues --    2.13577   2.14187   2.15548   2.16172   2.16733
 Alpha virt. eigenvalues --    2.17092   2.17775   2.19607   2.21055   2.21929
 Alpha virt. eigenvalues --    2.22588   2.24042   2.24697   2.25440   2.26105
 Alpha virt. eigenvalues --    2.27626   2.28245   2.29045   2.30358   2.31340
 Alpha virt. eigenvalues --    2.32893   2.33696   2.34244   2.34981   2.35723
 Alpha virt. eigenvalues --    2.37810   2.38640   2.39368   2.40431   2.40674
 Alpha virt. eigenvalues --    2.42455   2.43587   2.44749   2.45963   2.46841
 Alpha virt. eigenvalues --    2.49284   2.51016   2.52303   2.53849   2.55166
 Alpha virt. eigenvalues --    2.55903   2.56405   2.57479   2.57663   2.59126
 Alpha virt. eigenvalues --    2.59930   2.62840   2.64587   2.65917   2.66190
 Alpha virt. eigenvalues --    2.66442   2.66765   2.68852   2.69932   2.72522
 Alpha virt. eigenvalues --    2.75882   2.77092   2.77305   2.80097   2.80627
 Alpha virt. eigenvalues --    2.83675   2.87298   2.88931   2.89934   2.90725
 Alpha virt. eigenvalues --    2.93141   2.95201   2.98393   3.01145   3.02499
 Alpha virt. eigenvalues --    3.06467   3.10088   3.12970   3.32796   3.66851
 Alpha virt. eigenvalues --    3.67550   3.78188   3.86665   3.93252   3.97189
 Alpha virt. eigenvalues --    4.01160   4.02891   4.04805   4.06018   4.07719
 Alpha virt. eigenvalues --    4.10329   4.12994   4.14216   4.16275   4.18427
 Alpha virt. eigenvalues --    4.19394   4.24220   4.26266   4.28177   4.29222
 Alpha virt. eigenvalues --    4.34513   4.39602   4.41584   4.42107   4.48124
 Alpha virt. eigenvalues --    4.50412   4.53834   4.57924   4.62278   4.67548
          Condensed to atoms (all electrons):
 Mulliken charges:
               1
     1  N   -0.749307
     2  H    0.408699
     3  H    0.402169
     4  H    0.420778
     5  C   -0.119357
     6  H    0.234140
     7  C    0.630078
     8  C   -0.312618
     9  H    0.143563
    10  H    0.193477
    11  O   -0.558748
    12  C   -0.306129
    13  H    0.152624
    14  H    0.164198
    15  C    0.542694
    16  O   -0.542682
    17  O   -0.615062
    18  N   -0.645602
    19  H    0.417192
    20  C   -0.056558
    21  H    0.183041
    22  C    0.637142
    23  C   -0.360460
    24  H    0.176447
    25  H    0.202560
    26  O   -0.542139
    27  C    0.130691
    28  C   -0.199971
    29  H    0.214341
    30  C   -0.146400
    31  H    0.164002
    32  C   -0.176976
    33  H    0.159257
    34  C   -0.205283
    35  H    0.133424
    36  O   -0.676178
    37  H    0.432072
    38  C    0.266974
    39  N   -0.625109
    40  H    0.364357
    41  C   -0.011945
    42  H    0.203529
    43  C    0.580258
    44  C   -0.303964
    45  H    0.176446
    46  H    0.184036
    47  O   -0.459999
    48  C   -0.279745
    49  H    0.171833
    50  H    0.161798
    51  C   -0.292376
    52  H    0.161086
    53  H    0.156914
    54  C   -0.207211
    55  H    0.243912
    56  H    0.223554
    57  N   -0.772465
    58  H    0.454588
    59  H    0.402300
    60  H    0.405310
    61  O   -0.562349
    62  H    0.429149
 Sum of Mulliken charges =   1.00000
 Mulliken charges with hydrogens summed into heavy atoms:
               1
     1  N    0.482339
     5  C    0.114783
     7  C    0.630078
     8  C    0.024422
    11  O   -0.558748
    12  C    0.010693
    15  C    0.542694
    16  O   -0.542682
    17  O   -0.615062
    18  N   -0.228409
    20  C    0.126482
    22  C    0.637142
    23  C    0.018547
    26  O   -0.542139
    27  C    0.130691
    28  C    0.014370
    30  C    0.017602
    32  C   -0.017719
    34  C   -0.071860
    36  O   -0.244106
    38  C    0.266974
    39  N   -0.260751
    41  C    0.191584
    43  C    0.580258
    44  C    0.056518
    47  O   -0.459999
    48  C    0.053887
    51  C    0.025623
    54  C    0.260254
    57  N    0.489733
    61  O   -0.133200
 Electronic spatial extent (au):  <R**2>=          14808.9563
 Charge=              1.0000 electrons
 Dipole moment (field-independent basis, Debye):
    X=             10.4044    Y=              5.2272    Z=             -6.3966  Tot=             13.2850
 Quadrupole moment (field-independent basis, Debye-Ang):
   XX=           -157.5272   YY=            -93.4413   ZZ=            -64.4979
   XY=             46.6525   XZ=            -20.0817   YZ=            -90.6025
 Traceless Quadrupole moment (field-independent basis, Debye-Ang):
   XX=            -52.3717   YY=             11.7142   ZZ=             40.6576
   XY=             46.6525   XZ=            -20.0817   YZ=            -90.6025
 Octapole moment (field-independent basis, Debye-Ang**2):
  XXX=           -164.3234  YYY=           -153.0739  ZZZ=             16.9883  XYY=            -12.0729
  XXY=             -5.0070  XXZ=            145.1819  XZZ=             29.3060  YZZ=             42.7219
  YYZ=             31.2652  XYZ=            -45.1276
 Hexadecapole moment (field-independent basis, Debye-Ang**3):
 XXXX=          -5751.5823 YYYY=          -3090.9027 ZZZZ=          -4388.9240 XXXY=           -961.9175
 XXXZ=            512.4182 YYYX=           -836.4947 YYYZ=            325.5231 ZZZX=           -270.2484
 ZZZY=           -179.1520 XXYY=          -1412.8881 XXZZ=          -1939.5890 YYZZ=           -670.2640
 XXYZ=            416.0922 YYXZ=           -294.7734 ZZXY=            113.3487
 N-N= 3.425811221210D+03 E-N=-1.038883042825D+04  KE= 1.512246047295D+03
 Unable to Open any file for archive entry.
 1\1\GINC-AMR-116\SP\RB3LYP\6-31G(d)\C20H31N4O7(1+)\KENGMITH\01-Jun-202
 2\0\\# B3LYP/6-31G* empiricaldispersion=gd3 guess=read geom=check nosy
 mm integral(ultrafinegrid)\\Candidate Structure: Conf:879 Charge calc 
 in gas phase\\1,1\N,0,-0.4298611721,-3.2574417624,3.1753586536\H,0,0.2
 17873545,-3.0038319001,3.9267819953\H,0,-1.1036938279,-3.9394229232,3.
 5320127548\H,0,0.1331922806,-3.6474832918,2.3680736894\C,0,-1.08542499
 18,-2.0436642411,2.531692277\H,0,-1.1814389807,-1.2377052265,3.2601691
 135\C,0,-0.077807515,-1.723291227,1.3890657359\C,0,-2.4748354324,-2.45
 77827016,1.9634829875\H,0,-2.8744266392,-3.276654184,2.5801907653\H,0,
 -2.3352826956,-2.8617257484,0.9541846331\O,0,0.5890656107,-2.676250314
 8,0.9481646426\C,0,-3.5148307504,-1.3156996853,1.9310268676\H,0,-3.796
 7027353,-1.0479507179,2.9541299732\H,0,-4.3956648161,-1.6745606555,1.3
 914850278\C,0,-2.8829936169,-0.0989373896,1.2287274759\O,0,-2.96400305
 17,-0.0246258595,-0.0114665161\O,0,-2.1579118471,0.6186668983,2.004433
 8835\N,0,-0.0627859087,-0.4677715469,0.9507725977\H,0,-0.7966232148,0.
 1718690174,1.3795397583\C,0,0.3410060942,-0.1205286454,-0.4101418585\H
 ,0,-0.0446349735,0.8993569925,-0.5249160913\C,0,1.8593301955,0.0148755
 964,-0.6023794303\C,0,-0.3281278794,-0.9813420507,-1.509226834\H,0,0.2
 507052145,-1.8923829062,-1.6723904672\H,0,-1.3252062707,-1.2391698537,
 -1.1417484415\O,0,2.3986666808,-0.1972795482,-1.6879847688\C,0,-0.4579
 394338,-0.1635687695,-2.7731248367\C,0,-1.3744992743,0.90036072,-2.802
 1531233\H,0,-2.0579800954,1.0237436986,-1.9628213677\C,0,0.3853951691,
 -0.3661431064,-3.8701216437\H,0,1.0987653209,-1.1823438138,-3.85093596
 49\C,0,-1.3900816069,1.7965923211,-3.8730554085\H,0,-2.0785908795,2.63
 57582565,-3.9023007323\C,0,0.3791489826,0.5196796796,-4.9471484371\H,0
 ,1.0662955048,0.3844885904,-5.7803443497\O,0,-0.3650378631,2.650188387
 4,-5.8606502499\H,0,-0.2038026461,2.2735580153,-6.7423756298\C,0,-0.49
 08594734,1.6079300669,-4.9186197263\N,0,2.5205334763,0.5308603124,0.46
 30467738\H,0,2.0293116883,0.6766149992,1.3382432165\C,0,3.8663885896,1
 .0674069857,0.3692169109\H,0,4.5835249693,0.2615634331,0.1666740077\C,
 0,4.2100111849,1.6536842734,1.7334491076\C,0,4.0157386275,2.116995934,
 -0.7643055487\H,0,5.0311066149,2.5233645027,-0.725485838\H,0,3.9166888
 062,1.5643195687,-1.7003037456\O,0,3.4501746498,1.6983258742,2.6767902
 964\C,0,2.9808921267,3.2525145677,-0.6912931348\H,0,3.3103122044,4.011
 0450266,0.0274942918\H,0,2.0261877095,2.8695986282,-0.3098638768\C,0,2
 .7343915145,3.93706983,-2.0497111706\H,0,2.2733228401,4.9204582564,-1.
 8833834032\H,0,3.6969888459,4.115685585,-2.5508463173\C,0,1.8195445355
 ,3.1137479413,-2.9581393059\H,0,2.189559656,2.1074712747,-3.1663849302
 \H,0,0.8102495337,3.0113653934,-2.5536507289\N,0,1.6596630195,3.816636
 0596,-4.3015364153\H,0,0.9648481428,3.3593410971,-4.9466510074\H,0,2.5
 598363016,3.8717305179,-4.7889797777\H,0,1.3393573422,4.7811918403,-4.
 1610011214\O,0,5.4687136803,2.1280524124,1.7598232687\H,0,5.6274888637
 ,2.4823872548,2.6557198242\\Version=ES64L-G16RevC.01\HF=-1526.2584061\
 RMSD=2.728e-09\Dipole=2.8937129,1.0502768,-1.2997764\Quadrupole=-38.93
 70984,8.7092027,30.2278957,34.6849549,-14.9302399,-67.3607174\PG=C01 [
 X(C20H31N4O7)]\\@
 The archive entry for this job was punched.


 QED = W**5 (WHICH WAS WHAT WE WANTED)
 Job cpu time:       0 days  0 hours  1 minutes  8.9 seconds.
 Elapsed time:       0 days  0 hours  0 minutes 17.7 seconds.
 File lengths (MBytes):  RWF=    264 Int=      0 D2E=      0 Chk=     40 Scr=     16
 Normal termination of Gaussian 16 at Wed Jun  1 23:37:50 2022.
