 Entering Gaussian System, Link 0=/opt/software/Gaussian/g16-AVX2-C.01/g16/g16
 Input=charge-conf-234.com
 Output=charge-conf-234.log
 Initial command:
 /opt/software/Gaussian/g16-AVX2-C.01/g16/l1.exe "/mnt/gs18/scratch/users/kengmith/Gau-9876.inp" -scrdir="/mnt/gs18/scratch/users/kengmith/"
 Entering Link 1 = /opt/software/Gaussian/g16-AVX2-C.01/g16/l1.exe PID=      9886.
  
 Copyright (c) 1988-2019, Gaussian, Inc.  All Rights Reserved.
  
 This is part of the Gaussian(R) 16 program.  It is based on
 the Gaussian(R) 09 system (copyright 2009, Gaussian, Inc.),
 the Gaussian(R) 03 system (copyright 2003, Gaussian, Inc.),
 the Gaussian(R) 98 system (copyright 1998, Gaussian, Inc.),
 the Gaussian(R) 94 system (copyright 1995, Gaussian, Inc.),
 the Gaussian 92(TM) system (copyright 1992, Gaussian, Inc.),
 the Gaussian 90(TM) system (copyright 1990, Gaussian, Inc.),
 the Gaussian 88(TM) system (copyright 1988, Gaussian, Inc.),
 the Gaussian 86(TM) system (copyright 1986, Carnegie Mellon
 University), and the Gaussian 82(TM) system (copyright 1983,
 Carnegie Mellon University). Gaussian is a federally registered
 trademark of Gaussian, Inc.
  
 This software contains proprietary and confidential information,
 including trade secrets, belonging to Gaussian, Inc.
  
 This software is provided under written license and may be
 used, copied, transmitted, or stored only in accord with that
 written license.
  
 The following legend is applicable only to US Government
 contracts under FAR:
  
                    RESTRICTED RIGHTS LEGEND
  
 Use, reproduction and disclosure by the US Government is
 subject to restrictions as set forth in subparagraphs (a)
 and (c) of the Commercial Computer Software - Restricted
 Rights clause in FAR 52.227-19.
  
 Gaussian, Inc.
 340 Quinnipiac St., Bldg. 40, Wallingford CT 06492
  
  
 ---------------------------------------------------------------
 Warning -- This program may not be used in any manner that
 competes with the business of Gaussian, Inc. or will provide
 assistance to any competitor of Gaussian, Inc.  The licensee
 of this program is prohibited from giving any competitor of
 Gaussian, Inc. access to this program.  By using this program,
 the user acknowledges that Gaussian, Inc. is engaged in the
 business of creating and licensing software in the field of
 computational chemistry and represents and warrants to the
 licensee that it is not a competitor of Gaussian, Inc. and that
 it will not use this program in any manner prohibited above.
 ---------------------------------------------------------------
  

 Cite this work as:
 Gaussian 16, Revision C.01,
 M. J. Frisch, G. W. Trucks, H. B. Schlegel, G. E. Scuseria, 
 M. A. Robb, J. R. Cheeseman, G. Scalmani, V. Barone, 
 G. A. Petersson, H. Nakatsuji, X. Li, M. Caricato, A. V. Marenich, 
 J. Bloino, B. G. Janesko, R. Gomperts, B. Mennucci, H. P. Hratchian, 
 J. V. Ortiz, A. F. Izmaylov, J. L. Sonnenberg, D. Williams-Young, 
 F. Ding, F. Lipparini, F. Egidi, J. Goings, B. Peng, A. Petrone, 
 T. Henderson, D. Ranasinghe, V. G. Zakrzewski, J. Gao, N. Rega, 
 G. Zheng, W. Liang, M. Hada, M. Ehara, K. Toyota, R. Fukuda, 
 J. Hasegawa, M. Ishida, T. Nakajima, Y. Honda, O. Kitao, H. Nakai, 
 T. Vreven, K. Throssell, J. A. Montgomery, Jr., J. E. Peralta, 
 F. Ogliaro, M. J. Bearpark, J. J. Heyd, E. N. Brothers, K. N. Kudin, 
 V. N. Staroverov, T. A. Keith, R. Kobayashi, J. Normand, 
 K. Raghavachari, A. P. Rendell, J. C. Burant, S. S. Iyengar, 
 J. Tomasi, M. Cossi, J. M. Millam, M. Klene, C. Adamo, R. Cammi, 
 J. W. Ochterski, R. L. Martin, K. Morokuma, O. Farkas, 
 J. B. Foresman, and D. J. Fox, Gaussian, Inc., Wallingford CT, 2019.
 
 ******************************************
 Gaussian 16:  ES64L-G16RevC.01  3-Jul-2019
                 1-Jun-2022 
 ******************************************
 %mem=8gb
 %nproc=4
 Will use up to    4 processors via shared memory.
 %chk=conf-234.chk
 ----------------------------------------------------------------------
 # B3LYP/6-31G* empiricaldispersion=gd3 guess=read geom=check nosymm in
 tegral(ultrafinegrid)
 ----------------------------------------------------------------------
 1/29=2,38=1,172=1/1;
 2/12=2,15=1,40=1/2;
 3/5=1,6=6,7=1,11=2,14=-4,25=1,30=1,74=-5,75=-5,116=-2,124=31/1,2,3;
 4/5=1/1;
 5/5=2,38=6/2;
 6/7=2,8=2,9=2,10=2,28=1/1;
 99/5=1,9=1/99;
 ------------------------------------------------------
 Candidate Structure: Conf:234 Charge calc in gas phase
 ------------------------------------------------------
 Structure from the checkpoint file:  "conf-234.chk"
 Charge =  1 Multiplicity = 1
 Redundant internal coordinates found in file.  (old form).
 N,0,-0.5889229159,-2.8127528115,2.2780984355
 H,0,-0.183559587,-2.6470718969,3.2872399798
 H,0,-1.3976482095,-3.4403197785,2.2676960076
 H,0,0.1086080076,-3.2142255743,1.6449373878
 C,0,-0.97462199,-1.4382548438,1.8254656813
 H,0,-0.0257405966,-0.8999404996,1.726514349
 C,0,-1.5263602639,-1.5069393331,0.4044200234
 C,0,-1.8453731173,-0.7682504312,2.9153089607
 H,0,-2.3655612403,-1.552594105,3.4767504866
 H,0,-2.6310499387,-0.1612731549,2.4531219566
 O,0,-1.6737567769,-2.5732959297,-0.1645729585
 C,0,-0.9836496275,0.093019388,3.859539474
 H,0,-1.5166230576,0.259709652,4.8022369529
 H,0,-0.7988523252,1.073888439,3.4103226094
 C,0,0.3689221231,-0.591686511,4.1687908397
 O,0,1.4149750706,0.1039762598,4.0609084273
 O,0,0.329103688,-1.8240494565,4.4617480566
 N,0,-1.7426302597,-0.2525748168,-0.1554234077
 H,0,-1.6243070417,0.4852953308,0.5349894687
 C,0,-1.0150718158,0.1218467994,-1.3920420625
 H,0,-1.3662611764,1.1248725459,-1.6609350705
 C,0,0.4745070689,0.1542494277,-0.9892789013
 C,0,-1.2459560705,-0.8133839151,-2.5879311372
 H,0,-0.9129715787,-1.8174936365,-2.3212518496
 H,0,-2.3235498172,-0.8653067597,-2.7760746123
 O,0,1.0485466212,-0.8698039756,-0.6200689835
 C,0,-0.493750891,-0.2951300374,-3.7947887608
 C,0,-1.0251666567,0.7292512674,-4.59254745
 H,0,-2.0186911072,1.1164002737,-4.3745092365
 C,0,0.7795229415,-0.7834477724,-4.10947779
 H,0,1.2153571884,-1.5690160258,-3.4976925607
 C,0,-0.3187993606,1.2486099216,-5.6725357441
 H,0,-0.7361134808,2.0288675159,-6.3008844695
 C,0,1.5003138948,-0.2748838126,-5.1900447885
 H,0,2.4843603138,-0.6752821962,-5.4272072976
 O,0,1.5993348275,1.2882415774,-7.0484556271
 H,0,2.4165905721,0.793933447,-7.2166982659
 C,0,0.9509036089,0.7428914162,-5.9772340754
 N,0,1.082088851,1.3676266589,-0.9435781206
 H,0,0.5636474629,2.200468505,-1.1845389564
 C,0,2.3983150082,1.4842502599,-0.342525413
 H,0,3.0732047359,0.7903678465,-0.8530838442
 C,0,2.453220918,1.0504284697,1.1437517201
 C,0,2.9436016236,2.9230569531,-0.5033171415
 H,0,3.1604555814,3.0997622592,-1.5636308776
 H,0,2.1803223161,3.6508107242,-0.1980232843
 O,0,3.5133373357,0.6713898373,1.6181531685
 C,0,4.1996963069,3.113807864,0.3544834068
 H,0,4.7909662808,2.195804956,0.257012709
 H,0,3.8815135051,3.1570705726,1.4043766612
 C,0,5.0876428633,4.3249783982,0.0597569988
 H,0,5.6348887079,4.1966800878,-0.8825286163
 H,0,4.5002195028,5.2453599125,-0.0401562795
 C,0,6.0622743043,4.5534104796,1.2192287907
 H,0,6.8840709519,5.2296239814,0.9743489304
 H,0,5.5473340571,4.9210354344,2.1103308545
 N,0,6.7092132016,3.2311200028,1.6568569382
 H,0,7.3587203001,3.3666667781,2.4400635168
 H,0,7.2324287126,2.7965166385,0.8872997889
 H,0,5.9925747334,2.5504754831,1.9523265944
 O,0,1.3283929992,1.2289714917,1.8089819657
 H,0,1.4263132866,0.8715430778,2.8012504517
 Recover connectivity data from disk.
                           ----------------------------
                           !    Current Parameters    !
                           ! (Angstroms and Degrees)  !
 --------------------------                            --------------------------
 ! Name  Definition              Value                                          !
 --------------------------------------------------------------------------------
 ! R1    R(1,2)                  1.1001                                         !
 ! R2    R(1,3)                  1.0237                                         !
 ! R3    R(1,4)                  1.024                                          !
 ! R4    R(1,5)                  1.4976                                         !
 ! R5    R(5,6)                  1.0954                                         !
 ! R6    R(5,7)                  1.5259                                         !
 ! R7    R(5,8)                  1.5475                                         !
 ! R8    R(7,11)                 1.2176                                         !
 ! R9    R(7,18)                 1.3905                                         !
 ! R10   R(8,9)                  1.0959                                         !
 ! R11   R(8,10)                 1.0951                                         !
 ! R12   R(8,12)                 1.5414                                         !
 ! R13   R(12,13)                1.0957                                         !
 ! R14   R(12,14)                1.0946                                         !
 ! R15   R(12,15)                1.5472                                         !
 ! R16   R(15,16)                1.2609                                         !
 ! R17   R(15,17)                1.2673                                         !
 ! R18   R(18,19)                1.0174                                         !
 ! R19   R(18,20)                1.4828                                         !
 ! R20   R(20,21)                1.0962                                         !
 ! R21   R(20,22)                1.5434                                         !
 ! R22   R(20,23)                1.5356                                         !
 ! R23   R(22,26)                1.2307                                         !
 ! R24   R(22,39)                1.3578                                         !
 ! R25   R(23,24)                1.091                                          !
 ! R26   R(23,25)                1.0951                                         !
 ! R27   R(23,27)                1.5136                                         !
 ! R28   R(27,28)                1.4029                                         !
 ! R29   R(27,30)                1.3995                                         !
 ! R30   R(28,29)                1.0884                                         !
 ! R31   R(28,32)                1.3911                                         !
 ! R32   R(30,31)                1.0869                                         !
 ! R33   R(30,34)                1.3949                                         !
 ! R34   R(32,33)                1.0853                                         !
 ! R35   R(32,38)                1.4003                                         !
 ! R36   R(34,35)                1.0885                                         !
 ! R37   R(34,38)                1.3991                                         !
 ! R38   R(36,37)                0.9698                                         !
 ! R39   R(36,38)                1.3658                                         !
 ! R40   R(39,40)                1.0102                                         !
 ! R41   R(39,41)                1.4517                                         !
 ! R42   R(41,42)                1.0944                                         !
 ! R43   R(41,43)                1.5493                                         !
 ! R44   R(41,44)                1.547                                          !
 ! R45   R(43,47)                1.2217                                         !
 ! R46   R(43,61)                1.319                                          !
 ! R47   R(44,45)                1.0966                                         !
 ! R48   R(44,46)                1.0979                                         !
 ! R49   R(44,48)                1.533                                          !
 ! R50   R(48,49)                1.0963                                         !
 ! R51   R(48,50)                1.0979                                         !
 ! R52   R(48,51)                1.5304                                         !
 ! R53   R(51,52)                1.0972                                         !
 ! R54   R(51,53)                1.0964                                         !
 ! R55   R(51,54)                1.5318                                         !
 ! R56   R(54,55)                1.0921                                         !
 ! R57   R(54,56)                1.0929                                         !
 ! R58   R(54,57)                1.5357                                         !
 ! R59   R(57,58)                1.0265                                         !
 ! R60   R(57,59)                1.0271                                         !
 ! R61   R(57,60)                1.0316                                         !
 ! R62   R(61,62)                1.0592                                         !
 ! A1    A(2,1,3)              113.1261                                         !
 ! A2    A(2,1,4)              112.0396                                         !
 ! A3    A(2,1,5)              103.5284                                         !
 ! A4    A(3,1,4)              106.9474                                         !
 ! A5    A(3,1,5)              110.8611                                         !
 ! A6    A(4,1,5)              110.388                                          !
 ! A7    A(1,5,6)              104.7874                                         !
 ! A8    A(1,5,7)              109.4671                                         !
 ! A9    A(1,5,8)              109.2334                                         !
 ! A10   A(6,5,7)              104.5485                                         !
 ! A11   A(6,5,8)              109.7704                                         !
 ! A12   A(7,5,8)              118.156                                          !
 ! A13   A(5,7,11)             121.2227                                         !
 ! A14   A(5,7,18)             112.9894                                         !
 ! A15   A(11,7,18)            125.6645                                         !
 ! A16   A(5,8,9)              108.5424                                         !
 ! A17   A(5,8,10)             110.2683                                         !
 ! A18   A(5,8,12)             111.0239                                         !
 ! A19   A(9,8,10)             105.8044                                         !
 ! A20   A(9,8,12)             110.5753                                         !
 ! A21   A(10,8,12)            110.4822                                         !
 ! A22   A(8,12,13)            109.8837                                         !
 ! A23   A(8,12,14)            110.1024                                         !
 ! A24   A(8,12,15)            111.339                                          !
 ! A25   A(13,12,14)           107.3915                                         !
 ! A26   A(13,12,15)           108.6986                                         !
 ! A27   A(14,12,15)           109.3302                                         !
 ! A28   A(12,15,16)           117.6447                                         !
 ! A29   A(12,15,17)           116.6837                                         !
 ! A30   A(16,15,17)           125.616                                          !
 ! A31   A(7,18,19)            111.2797                                         !
 ! A32   A(7,18,20)            119.1583                                         !
 ! A33   A(19,18,20)           109.0101                                         !
 ! A34   A(18,20,21)           106.1656                                         !
 ! A35   A(18,20,22)           105.1423                                         !
 ! A36   A(18,20,23)           114.9552                                         !
 ! A37   A(21,20,22)           110.7316                                         !
 ! A38   A(21,20,23)           108.5455                                         !
 ! A39   A(22,20,23)           111.169                                          !
 ! A40   A(20,22,26)           120.7305                                         !
 ! A41   A(20,22,39)           117.35                                           !
 ! A42   A(26,22,39)           121.6548                                         !
 ! A43   A(20,23,24)           108.922                                          !
 ! A44   A(20,23,25)           108.0963                                         !
 ! A45   A(20,23,27)           109.7369                                         !
 ! A46   A(24,23,25)           107.3788                                         !
 ! A47   A(24,23,27)           110.9997                                         !
 ! A48   A(25,23,27)           111.6086                                         !
 ! A49   A(23,27,28)           121.0093                                         !
 ! A50   A(23,27,30)           120.7941                                         !
 ! A51   A(28,27,30)           118.1335                                         !
 ! A52   A(27,28,29)           119.4463                                         !
 ! A53   A(27,28,32)           121.4495                                         !
 ! A54   A(29,28,32)           119.0959                                         !
 ! A55   A(27,30,31)           119.3688                                         !
 ! A56   A(27,30,34)           121.1366                                         !
 ! A57   A(31,30,34)           119.4939                                         !
 ! A58   A(28,32,33)           121.5121                                         !
 ! A59   A(28,32,38)           119.6396                                         !
 ! A60   A(33,32,38)           118.839                                          !
 ! A61   A(30,34,35)           120.1187                                         !
 ! A62   A(30,34,38)           119.8784                                         !
 ! A63   A(35,34,38)           120.0001                                         !
 ! A64   A(37,36,38)           109.4283                                         !
 ! A65   A(32,38,34)           119.7609                                         !
 ! A66   A(32,38,36)           117.1911                                         !
 ! A67   A(34,38,36)           123.0476                                         !
 ! A68   A(22,39,40)           119.9396                                         !
 ! A69   A(22,39,41)           119.4372                                         !
 ! A70   A(40,39,41)           119.8587                                         !
 ! A71   A(39,41,42)           108.3643                                         !
 ! A72   A(39,41,43)           114.007                                          !
 ! A73   A(39,41,44)           110.5649                                         !
 ! A74   A(42,41,43)           104.369                                          !
 ! A75   A(42,41,44)           108.895                                          !
 ! A76   A(43,41,44)           110.3432                                         !
 ! A77   A(41,43,47)           119.3504                                         !
 ! A78   A(41,43,61)           114.565                                          !
 ! A79   A(47,43,61)           125.8854                                         !
 ! A80   A(41,44,45)           108.6668                                         !
 ! A81   A(41,44,46)           110.0312                                         !
 ! A82   A(41,44,48)           110.2659                                         !
 ! A83   A(45,44,46)           107.4296                                         !
 ! A84   A(45,44,48)           111.0369                                         !
 ! A85   A(46,44,48)           109.3639                                         !
 ! A86   A(44,48,49)           106.7372                                         !
 ! A87   A(44,48,50)           107.6101                                         !
 ! A88   A(44,48,51)           117.7825                                         !
 ! A89   A(49,48,50)           105.9219                                         !
 ! A90   A(49,48,51)           109.4296                                         !
 ! A91   A(50,48,51)           108.7304                                         !
 ! A92   A(48,51,52)           111.2371                                         !
 ! A93   A(48,51,53)           111.7788                                         !
 ! A94   A(48,51,54)           109.9622                                         !
 ! A95   A(52,51,53)           106.6855                                         !
 ! A96   A(52,51,54)           110.4965                                         !
 ! A97   A(53,51,54)           106.5396                                         !
 ! A98   A(51,54,55)           113.6663                                         !
 ! A99   A(51,54,56)           111.5646                                         !
 ! A100  A(51,54,57)           110.8133                                         !
 ! A101  A(55,54,56)           109.2153                                         !
 ! A102  A(55,54,57)           106.2628                                         !
 ! A103  A(56,54,57)           104.819                                          !
 ! A104  A(54,57,58)           111.7331                                         !
 ! A105  A(54,57,59)           111.4336                                         !
 ! A106  A(54,57,60)           110.9208                                         !
 ! A107  A(58,57,59)           107.7726                                         !
 ! A108  A(58,57,60)           107.9485                                         !
 ! A109  A(59,57,60)           106.817                                          !
 ! A110  A(43,61,62)           110.3628                                         !
 ! D1    D(2,1,5,6)             66.8183                                         !
 ! D2    D(2,1,5,7)            178.464                                          !
 ! D3    D(2,1,5,8)            -50.7379                                         !
 ! D4    D(3,1,5,6)           -171.5811                                         !
 ! D5    D(3,1,5,7)            -59.9354                                         !
 ! D6    D(3,1,5,8)             70.8626                                         !
 ! D7    D(4,1,5,6)            -53.2593                                         !
 ! D8    D(4,1,5,7)             58.3864                                         !
 ! D9    D(4,1,5,8)           -170.8155                                         !
 ! D10   D(1,5,7,11)             4.1936                                         !
 ! D11   D(1,5,7,18)          -171.9866                                         !
 ! D12   D(6,5,7,11)           115.9962                                         !
 ! D13   D(6,5,7,18)           -60.184                                          !
 ! D14   D(8,5,7,11)          -121.6423                                         !
 ! D15   D(8,5,7,18)            62.1774                                         !
 ! D16   D(1,5,8,9)            -27.4744                                         !
 ! D17   D(1,5,8,10)          -142.9478                                         !
 ! D18   D(1,5,8,12)            94.2633                                         !
 ! D19   D(6,5,8,9)           -141.8464                                         !
 ! D20   D(6,5,8,10)           102.6803                                         !
 ! D21   D(6,5,8,12)           -20.1087                                         !
 ! D22   D(7,5,8,9)             98.4749                                         !
 ! D23   D(7,5,8,10)           -16.9984                                         !
 ! D24   D(7,5,8,12)          -139.7874                                         !
 ! D25   D(5,7,18,19)           -8.5012                                         !
 ! D26   D(5,7,18,20)          119.6394                                         !
 ! D27   D(11,7,18,19)         175.5197                                         !
 ! D28   D(11,7,18,20)         -56.3397                                         !
 ! D29   D(5,8,12,13)         -159.7367                                         !
 ! D30   D(5,8,12,14)           82.1745                                         !
 ! D31   D(5,8,12,15)          -39.2525                                         !
 ! D32   D(9,8,12,13)          -39.1945                                         !
 ! D33   D(9,8,12,14)         -157.2833                                         !
 ! D34   D(9,8,12,15)           81.2897                                         !
 ! D35   D(10,8,12,13)          77.598                                          !
 ! D36   D(10,8,12,14)         -40.4908                                         !
 ! D37   D(10,8,12,15)        -161.9178                                         !
 ! D38   D(8,12,15,16)         131.881                                          !
 ! D39   D(8,12,15,17)         -45.5597                                         !
 ! D40   D(13,12,15,16)       -106.9398                                         !
 ! D41   D(13,12,15,17)         75.6195                                         !
 ! D42   D(14,12,15,16)         10.005                                          !
 ! D43   D(14,12,15,17)       -167.4357                                         !
 ! D44   D(7,18,20,21)         178.1408                                         !
 ! D45   D(7,18,20,22)         -64.455                                          !
 ! D46   D(7,18,20,23)          58.1311                                         !
 ! D47   D(19,18,20,21)        -52.6778                                         !
 ! D48   D(19,18,20,22)         64.7264                                         !
 ! D49   D(19,18,20,23)       -172.6876                                         !
 ! D50   D(18,20,22,26)         63.9081                                         !
 ! D51   D(18,20,22,39)       -110.2773                                         !
 ! D52   D(21,20,22,26)        178.1648                                         !
 ! D53   D(21,20,22,39)          3.9793                                         !
 ! D54   D(23,20,22,26)        -61.0872                                         !
 ! D55   D(23,20,22,39)        124.7273                                         !
 ! D56   D(18,20,23,24)        -60.4239                                         !
 ! D57   D(18,20,23,25)         55.9485                                         !
 ! D58   D(18,20,23,27)        177.8762                                         !
 ! D59   D(21,20,23,24)       -179.1107                                         !
 ! D60   D(21,20,23,25)        -62.7384                                         !
 ! D61   D(21,20,23,27)         59.1894                                         !
 ! D62   D(22,20,23,24)         58.8626                                         !
 ! D63   D(22,20,23,25)        175.2349                                         !
 ! D64   D(22,20,23,27)        -62.8373                                         !
 ! D65   D(20,22,39,40)         -1.0925                                         !
 ! D66   D(20,22,39,41)        168.8805                                         !
 ! D67   D(26,22,39,40)       -175.2207                                         !
 ! D68   D(26,22,39,41)         -5.2477                                         !
 ! D69   D(20,23,27,28)        -81.526                                          !
 ! D70   D(20,23,27,30)         95.5308                                         !
 ! D71   D(24,23,27,28)        158.0265                                         !
 ! D72   D(24,23,27,30)        -24.9167                                         !
 ! D73   D(25,23,27,28)         38.2796                                         !
 ! D74   D(25,23,27,30)       -144.6635                                         !
 ! D75   D(23,27,28,29)         -3.6178                                         !
 ! D76   D(23,27,28,32)        177.443                                          !
 ! D77   D(30,27,28,29)        179.2491                                         !
 ! D78   D(30,27,28,32)          0.3099                                         !
 ! D79   D(23,27,30,31)          2.1562                                         !
 ! D80   D(23,27,30,34)       -177.5337                                         !
 ! D81   D(28,27,30,31)        179.2957                                         !
 ! D82   D(28,27,30,34)         -0.3941                                         !
 ! D83   D(27,28,32,33)        178.9072                                         !
 ! D84   D(27,28,32,38)          0.0329                                         !
 ! D85   D(29,28,32,33)         -0.0356                                         !
 ! D86   D(29,28,32,38)       -178.91                                           !
 ! D87   D(27,30,34,35)       -179.2574                                         !
 ! D88   D(27,30,34,38)          0.1362                                         !
 ! D89   D(31,30,34,35)          1.0531                                         !
 ! D90   D(31,30,34,38)       -179.5532                                         !
 ! D91   D(28,32,38,34)         -0.299                                          !
 ! D92   D(28,32,38,36)        179.9484                                         !
 ! D93   D(33,32,38,34)       -179.2035                                         !
 ! D94   D(33,32,38,36)          1.0439                                         !
 ! D95   D(30,34,38,32)          0.2162                                         !
 ! D96   D(30,34,38,36)        179.9536                                         !
 ! D97   D(35,34,38,32)        179.6106                                         !
 ! D98   D(35,34,38,36)         -0.652                                          !
 ! D99   D(37,36,38,32)       -173.8089                                         !
 ! D100  D(37,36,38,34)          6.4474                                         !
 ! D101  D(22,39,41,42)         56.0827                                         !
 ! D102  D(22,39,41,43)        -59.6448                                         !
 ! D103  D(22,39,41,44)        175.3564                                         !
 ! D104  D(40,39,41,42)       -133.9361                                         !
 ! D105  D(40,39,41,43)        110.3364                                         !
 ! D106  D(40,39,41,44)        -14.6624                                         !
 ! D107  D(39,41,43,47)        155.2697                                         !
 ! D108  D(39,41,43,61)        -29.5587                                         !
 ! D109  D(42,41,43,47)         37.2272                                         !
 ! D110  D(42,41,43,61)       -147.6012                                         !
 ! D111  D(44,41,43,47)        -79.6137                                         !
 ! D112  D(44,41,43,61)         95.558                                          !
 ! D113  D(39,41,44,45)        -68.8168                                         !
 ! D114  D(39,41,44,46)         48.5505                                         !
 ! D115  D(39,41,44,48)        169.2692                                         !
 ! D116  D(42,41,44,45)         50.1356                                         !
 ! D117  D(42,41,44,46)        167.5029                                         !
 ! D118  D(42,41,44,48)        -71.7784                                         !
 ! D119  D(43,41,44,45)        164.1305                                         !
 ! D120  D(43,41,44,46)        -78.5022                                         !
 ! D121  D(43,41,44,48)         42.2165                                         !
 ! D122  D(41,43,61,62)        177.4569                                         !
 ! D123  D(47,43,61,62)         -7.7386                                         !
 ! D124  D(41,44,48,49)         40.8828                                         !
 ! D125  D(41,44,48,50)        -72.4454                                         !
 ! D126  D(41,44,48,51)        164.3226                                         !
 ! D127  D(45,44,48,49)        -79.6185                                         !
 ! D128  D(45,44,48,50)        167.0533                                         !
 ! D129  D(45,44,48,51)         43.8213                                         !
 ! D130  D(46,44,48,49)        162.0004                                         !
 ! D131  D(46,44,48,50)         48.6721                                         !
 ! D132  D(46,44,48,51)        -74.5598                                         !
 ! D133  D(44,48,51,52)        -71.9677                                         !
 ! D134  D(44,48,51,53)         47.1749                                         !
 ! D135  D(44,48,51,54)        165.2922                                         !
 ! D136  D(49,48,51,52)         50.1055                                         !
 ! D137  D(49,48,51,53)        169.248                                          !
 ! D138  D(49,48,51,54)        -72.6347                                         !
 ! D139  D(50,48,51,52)        165.3678                                         !
 ! D140  D(50,48,51,53)        -75.4897                                         !
 ! D141  D(50,48,51,54)         42.6276                                         !
 ! D142  D(48,51,54,55)        165.3248                                         !
 ! D143  D(48,51,54,56)        -70.6475                                         !
 ! D144  D(48,51,54,57)         45.7405                                         !
 ! D145  D(52,51,54,55)         42.1492                                         !
 ! D146  D(52,51,54,56)        166.1769                                         !
 ! D147  D(52,51,54,57)        -77.435                                          !
 ! D148  D(53,51,54,55)        -73.3668                                         !
 ! D149  D(53,51,54,56)         50.6609                                         !
 ! D150  D(53,51,54,57)        167.049                                          !
 ! D151  D(51,54,57,58)       -179.4395                                         !
 ! D152  D(51,54,57,59)         59.9301                                         !
 ! D153  D(51,54,57,60)        -58.9395                                         !
 ! D154  D(55,54,57,58)         56.6276                                         !
 ! D155  D(55,54,57,59)        -64.0027                                         !
 ! D156  D(55,54,57,60)        177.1276                                         !
 ! D157  D(56,54,57,58)        -58.9549                                         !
 ! D158  D(56,54,57,59)       -179.5852                                         !
 ! D159  D(56,54,57,60)         61.5451                                         !
 --------------------------------------------------------------------------------
 Symmetry turned off by external request.
 Stoichiometry    C20H31N4O7(1+)
 Framework group  C1[X(C20H31N4O7)]
 Deg. of freedom   180
 Full point group                 C1      NOp   1
                          Input orientation:                          
 ---------------------------------------------------------------------
 Center     Atomic      Atomic             Coordinates (Angstroms)
 Number     Number       Type             X           Y           Z
 ---------------------------------------------------------------------
      1          7           0       -0.588923   -2.812753    2.278098
      2          1           0       -0.183560   -2.647072    3.287240
      3          1           0       -1.397648   -3.440320    2.267696
      4          1           0        0.108608   -3.214226    1.644937
      5          6           0       -0.974622   -1.438255    1.825466
      6          1           0       -0.025741   -0.899940    1.726514
      7          6           0       -1.526360   -1.506939    0.404420
      8          6           0       -1.845373   -0.768250    2.915309
      9          1           0       -2.365561   -1.552594    3.476750
     10          1           0       -2.631050   -0.161273    2.453122
     11          8           0       -1.673757   -2.573296   -0.164573
     12          6           0       -0.983650    0.093019    3.859539
     13          1           0       -1.516623    0.259710    4.802237
     14          1           0       -0.798852    1.073888    3.410323
     15          6           0        0.368922   -0.591687    4.168791
     16          8           0        1.414975    0.103976    4.060908
     17          8           0        0.329104   -1.824049    4.461748
     18          7           0       -1.742630   -0.252575   -0.155423
     19          1           0       -1.624307    0.485295    0.534989
     20          6           0       -1.015072    0.121847   -1.392042
     21          1           0       -1.366261    1.124873   -1.660935
     22          6           0        0.474507    0.154249   -0.989279
     23          6           0       -1.245956   -0.813384   -2.587931
     24          1           0       -0.912972   -1.817494   -2.321252
     25          1           0       -2.323550   -0.865307   -2.776075
     26          8           0        1.048547   -0.869804   -0.620069
     27          6           0       -0.493751   -0.295130   -3.794789
     28          6           0       -1.025167    0.729251   -4.592547
     29          1           0       -2.018691    1.116400   -4.374509
     30          6           0        0.779523   -0.783448   -4.109478
     31          1           0        1.215357   -1.569016   -3.497693
     32          6           0       -0.318799    1.248610   -5.672536
     33          1           0       -0.736113    2.028868   -6.300884
     34          6           0        1.500314   -0.274884   -5.190045
     35          1           0        2.484360   -0.675282   -5.427207
     36          8           0        1.599335    1.288242   -7.048456
     37          1           0        2.416591    0.793933   -7.216698
     38          6           0        0.950904    0.742891   -5.977234
     39          7           0        1.082089    1.367627   -0.943578
     40          1           0        0.563647    2.200469   -1.184539
     41          6           0        2.398315    1.484250   -0.342525
     42          1           0        3.073205    0.790368   -0.853084
     43          6           0        2.453221    1.050428    1.143752
     44          6           0        2.943602    2.923057   -0.503317
     45          1           0        3.160456    3.099762   -1.563631
     46          1           0        2.180322    3.650811   -0.198023
     47          8           0        3.513337    0.671390    1.618153
     48          6           0        4.199696    3.113808    0.354483
     49          1           0        4.790966    2.195805    0.257013
     50          1           0        3.881514    3.157071    1.404377
     51          6           0        5.087643    4.324978    0.059757
     52          1           0        5.634889    4.196680   -0.882529
     53          1           0        4.500220    5.245360   -0.040156
     54          6           0        6.062274    4.553410    1.219229
     55          1           0        6.884071    5.229624    0.974349
     56          1           0        5.547334    4.921035    2.110331
     57          7           0        6.709213    3.231120    1.656857
     58          1           0        7.358720    3.366667    2.440064
     59          1           0        7.232429    2.796517    0.887300
     60          1           0        5.992575    2.550475    1.952327
     61          8           0        1.328393    1.228971    1.808982
     62          1           0        1.426313    0.871543    2.801250
 ---------------------------------------------------------------------
 Rotational constants (GHZ):           0.1329203           0.1084717           0.0646578
 Standard basis: 6-31G(d) (6D, 7F)
   527 basis functions,   992 primitive gaussians,   527 cartesian basis functions
   117 alpha electrons      117 beta electrons
       nuclear repulsion energy      3326.5589944395 Hartrees.
 NAtoms=   62 NActive=   62 NUniq=   62 SFac= 1.00D+00 NAtFMM=   60 NAOKFM=T Big=T
 Integral buffers will be    131072 words long.
 Raffenetti 2 integral format.
 Two-electron integral symmetry is turned off.
 Nuclear repulsion after empirical dispersion term =     3326.4791412590 Hartrees.
 One-electron integrals computed using PRISM.
 NBasis=   527 RedAO= T EigKep=  4.35D-04  NBF=   527
 NBsUse=   527 1.00D-06 EigRej= -1.00D+00 NBFU=   527
 Initial guess from the checkpoint file:  "conf-234.chk"
 B after Tr=     0.000000    0.000000    0.000000
         Rot=    1.000000    0.000000    0.000000    0.000000 Ang=   0.00 deg.
 Requested convergence on RMS density matrix=1.00D-08 within 128 cycles.
 Requested convergence on MAX density matrix=1.00D-06.
 Requested convergence on             energy=1.00D-06.
 No special actions if energy rises.
 SCF Done:  E(RB3LYP) =  -1526.24643767     A.U. after    3 cycles
            NFock=  3  Conv=0.93D-09     -V/T= 2.0093

 **********************************************************************

            Population analysis using the SCF Density.

 **********************************************************************

 Alpha  occ. eigenvalues --  -19.24982 -19.24308 -19.22391 -19.21050 -19.21007
 Alpha  occ. eigenvalues --  -19.16873 -19.16485 -14.64272 -14.51983 -14.46315
 Alpha  occ. eigenvalues --  -14.45011 -10.42164 -10.39611 -10.39079 -10.37961
 Alpha  occ. eigenvalues --  -10.34971 -10.34954 -10.34266 -10.33602 -10.32890
 Alpha  occ. eigenvalues --  -10.32697 -10.31757 -10.31581 -10.29253 -10.26272
 Alpha  occ. eigenvalues --  -10.26005 -10.25878 -10.25808 -10.25763 -10.25652
 Alpha  occ. eigenvalues --  -10.25116  -1.18228  -1.16734  -1.14355  -1.12920
 Alpha  occ. eigenvalues --   -1.12366  -1.10282  -1.08013  -1.06981  -1.02527
 Alpha  occ. eigenvalues --   -1.02112  -1.01250  -0.96178  -0.92242  -0.90634
 Alpha  occ. eigenvalues --   -0.89060  -0.86407  -0.84230  -0.81424  -0.81133
 Alpha  occ. eigenvalues --   -0.79100  -0.77901  -0.76850  -0.75884  -0.73593
 Alpha  occ. eigenvalues --   -0.73114  -0.72113  -0.69453  -0.68763  -0.68047
 Alpha  occ. eigenvalues --   -0.67153  -0.66478  -0.66354  -0.65500  -0.64724
 Alpha  occ. eigenvalues --   -0.62856  -0.61855  -0.61016  -0.59723  -0.59480
 Alpha  occ. eigenvalues --   -0.59075  -0.58305  -0.57785  -0.56873  -0.56104
 Alpha  occ. eigenvalues --   -0.55040  -0.54629  -0.54544  -0.54121  -0.53514
 Alpha  occ. eigenvalues --   -0.52806  -0.51727  -0.51372  -0.50892  -0.50460
 Alpha  occ. eigenvalues --   -0.50184  -0.50062  -0.49434  -0.48762  -0.48676
 Alpha  occ. eigenvalues --   -0.48352  -0.47872  -0.47580  -0.47303  -0.47059
 Alpha  occ. eigenvalues --   -0.46266  -0.45911  -0.45308  -0.44941  -0.44577
 Alpha  occ. eigenvalues --   -0.43399  -0.43045  -0.42066  -0.41738  -0.40249
 Alpha  occ. eigenvalues --   -0.39355  -0.38451  -0.37535  -0.37074  -0.35267
 Alpha  occ. eigenvalues --   -0.33881  -0.33220  -0.32750  -0.31869  -0.30983
 Alpha  occ. eigenvalues --   -0.30674  -0.28470
 Alpha virt. eigenvalues --   -0.14462  -0.10452  -0.08177  -0.07809  -0.07237
 Alpha virt. eigenvalues --   -0.06512  -0.06061  -0.05754  -0.05610  -0.03669
 Alpha virt. eigenvalues --   -0.03361  -0.03125  -0.02714  -0.02076  -0.01309
 Alpha virt. eigenvalues --   -0.00707   0.00551   0.01033   0.01214   0.01672
 Alpha virt. eigenvalues --    0.02816   0.03103   0.03412   0.03854   0.04457
 Alpha virt. eigenvalues --    0.05094   0.05785   0.06544   0.06807   0.07531
 Alpha virt. eigenvalues --    0.07864   0.08224   0.08785   0.09399   0.09757
 Alpha virt. eigenvalues --    0.10621   0.10800   0.11090   0.11649   0.12235
 Alpha virt. eigenvalues --    0.12421   0.13588   0.14097   0.14213   0.14761
 Alpha virt. eigenvalues --    0.15131   0.15877   0.16480   0.16877   0.17664
 Alpha virt. eigenvalues --    0.18147   0.18840   0.19306   0.20418   0.21680
 Alpha virt. eigenvalues --    0.24496   0.24530   0.25633   0.27127   0.27896
 Alpha virt. eigenvalues --    0.28045   0.29688   0.30443   0.31329   0.32293
 Alpha virt. eigenvalues --    0.33806   0.35413   0.35784   0.36762   0.37620
 Alpha virt. eigenvalues --    0.38217   0.40893   0.42083   0.42256   0.42584
 Alpha virt. eigenvalues --    0.43236   0.43901   0.44597   0.45128   0.45475
 Alpha virt. eigenvalues --    0.46309   0.46535   0.47033   0.47560   0.47810
 Alpha virt. eigenvalues --    0.48777   0.49645   0.50045   0.50860   0.51221
 Alpha virt. eigenvalues --    0.51505   0.51836   0.52360   0.52501   0.52671
 Alpha virt. eigenvalues --    0.53311   0.53730   0.54491   0.54718   0.54894
 Alpha virt. eigenvalues --    0.54961   0.56087   0.56670   0.56871   0.57377
 Alpha virt. eigenvalues --    0.57988   0.58329   0.58618   0.59323   0.59474
 Alpha virt. eigenvalues --    0.60628   0.61055   0.61934   0.62276   0.62543
 Alpha virt. eigenvalues --    0.63140   0.63716   0.64123   0.64563   0.66286
 Alpha virt. eigenvalues --    0.67078   0.67733   0.68398   0.68690   0.69086
 Alpha virt. eigenvalues --    0.69504   0.70291   0.70816   0.70961   0.71492
 Alpha virt. eigenvalues --    0.73000   0.73375   0.73728   0.74273   0.75020
 Alpha virt. eigenvalues --    0.75458   0.75746   0.76124   0.76507   0.76811
 Alpha virt. eigenvalues --    0.77106   0.77458   0.78035   0.78272   0.78561
 Alpha virt. eigenvalues --    0.79078   0.79428   0.80027   0.80296   0.80597
 Alpha virt. eigenvalues --    0.81576   0.81975   0.82133   0.83003   0.83195
 Alpha virt. eigenvalues --    0.83481   0.84257   0.85037   0.86702   0.86724
 Alpha virt. eigenvalues --    0.87497   0.88107   0.88611   0.89074   0.89512
 Alpha virt. eigenvalues --    0.89943   0.90556   0.90760   0.91866   0.93282
 Alpha virt. eigenvalues --    0.93618   0.94006   0.94917   0.95296   0.97289
 Alpha virt. eigenvalues --    0.98425   0.99612   1.00477   1.01141   1.02140
 Alpha virt. eigenvalues --    1.02730   1.03091   1.04735   1.06737   1.07700
 Alpha virt. eigenvalues --    1.07976   1.09271   1.09629   1.10957   1.11834
 Alpha virt. eigenvalues --    1.12430   1.12993   1.13631   1.14788   1.15411
 Alpha virt. eigenvalues --    1.15812   1.16934   1.18581   1.19417   1.19851
 Alpha virt. eigenvalues --    1.20917   1.22344   1.24540   1.24861   1.26048
 Alpha virt. eigenvalues --    1.27450   1.28905   1.29428   1.30154   1.30875
 Alpha virt. eigenvalues --    1.32546   1.33257   1.34264   1.35089   1.36992
 Alpha virt. eigenvalues --    1.38390   1.38952   1.39560   1.39651   1.40300
 Alpha virt. eigenvalues --    1.41702   1.42508   1.44385   1.44976   1.45286
 Alpha virt. eigenvalues --    1.45788   1.46595   1.49109   1.50426   1.51740
 Alpha virt. eigenvalues --    1.53209   1.54380   1.55528   1.56087   1.57661
 Alpha virt. eigenvalues --    1.59540   1.60759   1.62259   1.63098   1.63998
 Alpha virt. eigenvalues --    1.64567   1.65231   1.66249   1.67180   1.67493
 Alpha virt. eigenvalues --    1.68242   1.68777   1.69925   1.70518   1.71003
 Alpha virt. eigenvalues --    1.71582   1.72295   1.72529   1.73494   1.74076
 Alpha virt. eigenvalues --    1.74477   1.74947   1.75300   1.76066   1.76425
 Alpha virt. eigenvalues --    1.77580   1.78451   1.79175   1.79445   1.80530
 Alpha virt. eigenvalues --    1.80861   1.81260   1.81938   1.82260   1.83558
 Alpha virt. eigenvalues --    1.83855   1.84378   1.85714   1.86533   1.86779
 Alpha virt. eigenvalues --    1.87674   1.88324   1.88779   1.89480   1.90802
 Alpha virt. eigenvalues --    1.91019   1.91873   1.91927   1.92557   1.93008
 Alpha virt. eigenvalues --    1.94014   1.95419   1.95820   1.97663   1.97876
 Alpha virt. eigenvalues --    1.98758   1.99631   2.00718   2.00944   2.01938
 Alpha virt. eigenvalues --    2.02067   2.03885   2.04317   2.05099   2.06586
 Alpha virt. eigenvalues --    2.07453   2.07880   2.08160   2.08859   2.10504
 Alpha virt. eigenvalues --    2.11219   2.12094   2.13800   2.14903   2.16878
 Alpha virt. eigenvalues --    2.18550   2.18883   2.19727   2.20116   2.21037
 Alpha virt. eigenvalues --    2.22525   2.23564   2.24540   2.25869   2.26692
 Alpha virt. eigenvalues --    2.27108   2.27660   2.28635   2.31692   2.32383
 Alpha virt. eigenvalues --    2.33903   2.34087   2.35370   2.35970   2.38442
 Alpha virt. eigenvalues --    2.39155   2.40141   2.40594   2.41527   2.42252
 Alpha virt. eigenvalues --    2.43687   2.44195   2.45803   2.48553   2.50531
 Alpha virt. eigenvalues --    2.51480   2.52914   2.53805   2.54530   2.55356
 Alpha virt. eigenvalues --    2.56432   2.56888   2.58396   2.59262   2.59989
 Alpha virt. eigenvalues --    2.60220   2.62405   2.63853   2.64330   2.66167
 Alpha virt. eigenvalues --    2.67910   2.69731   2.71963   2.73566   2.74457
 Alpha virt. eigenvalues --    2.76655   2.79244   2.81534   2.82893   2.84455
 Alpha virt. eigenvalues --    2.84630   2.85687   2.90408   2.90538   2.91244
 Alpha virt. eigenvalues --    2.91830   2.93476   2.97968   3.01881   3.04043
 Alpha virt. eigenvalues --    3.05358   3.06818   3.09610   3.34988   3.55837
 Alpha virt. eigenvalues --    3.74614   3.86058   3.87406   3.93444   3.94888
 Alpha virt. eigenvalues --    3.98422   4.01651   4.05220   4.05487   4.07521
 Alpha virt. eigenvalues --    4.09552   4.12222   4.15527   4.17008   4.19262
 Alpha virt. eigenvalues --    4.22765   4.25388   4.27225   4.31117   4.32552
 Alpha virt. eigenvalues --    4.34431   4.35860   4.38096   4.42654   4.43413
 Alpha virt. eigenvalues --    4.51736   4.58188   4.60815   4.64012   4.70145
          Condensed to atoms (all electrons):
 Mulliken charges:
               1
     1  N   -0.749748
     2  H    0.453046
     3  H    0.390623
     4  H    0.403802
     5  C   -0.137486
     6  H    0.237948
     7  C    0.608439
     8  C   -0.305608
     9  H    0.175118
    10  H    0.174897
    11  O   -0.481796
    12  C   -0.357157
    13  H    0.181712
    14  H    0.149931
    15  C    0.598375
    16  O   -0.576789
    17  O   -0.597760
    18  N   -0.583731
    19  H    0.332345
    20  C   -0.070195
    21  H    0.147976
    22  C    0.649307
    23  C   -0.354507
    24  H    0.200782
    25  H    0.172227
    26  O   -0.545461
    27  C    0.140774
    28  C   -0.197784
    29  H    0.133227
    30  C   -0.189212
    31  H    0.149960
    32  C   -0.158836
    33  H    0.151287
    34  C   -0.197684
    35  H    0.124896
    36  O   -0.636833
    37  H    0.411091
    38  C    0.349878
    39  N   -0.617051
    40  H    0.337557
    41  C    0.000856
    42  H    0.192791
    43  C    0.611678
    44  C   -0.314010
    45  H    0.175750
    46  H    0.163741
    47  O   -0.510470
    48  C   -0.322096
    49  H    0.159116
    50  H    0.171837
    51  C   -0.285768
    52  H    0.179756
    53  H    0.203351
    54  C   -0.207580
    55  H    0.227021
    56  H    0.232737
    57  N   -0.739306
    58  H    0.431260
    59  H    0.425577
    60  H    0.448469
    61  O   -0.631046
    62  H    0.468776
 Sum of Mulliken charges =   1.00000
 Mulliken charges with hydrogens summed into heavy atoms:
               1
     1  N    0.497723
     5  C    0.100463
     7  C    0.608439
     8  C    0.044407
    11  O   -0.481796
    12  C   -0.025514
    15  C    0.598375
    16  O   -0.576789
    17  O   -0.597760
    18  N   -0.251386
    20  C    0.077781
    22  C    0.649307
    23  C    0.018502
    26  O   -0.545461
    27  C    0.140774
    28  C   -0.064557
    30  C   -0.039252
    32  C   -0.007549
    34  C   -0.072788
    36  O   -0.225742
    38  C    0.349878
    39  N   -0.279494
    41  C    0.193647
    43  C    0.611678
    44  C    0.025480
    47  O   -0.510470
    48  C    0.008857
    51  C    0.097339
    54  C    0.252178
    57  N    0.566001
    61  O   -0.162270
 Electronic spatial extent (au):  <R**2>=          17370.2044
 Charge=              1.0000 electrons
 Dipole moment (field-independent basis, Debye):
    X=             22.1574    Y=             15.0437    Z=              1.4012  Tot=             26.8184
 Quadrupole moment (field-independent basis, Debye-Ang):
   XX=              6.9448   YY=           -106.6515   ZZ=           -180.3503
   XY=             99.8610   XZ=              8.3024   YZ=             15.9745
 Traceless Quadrupole moment (field-independent basis, Debye-Ang):
   XX=            100.2971   YY=            -13.2992   ZZ=            -86.9979
   XY=             99.8610   XZ=              8.3024   YZ=             15.9745
 Octapole moment (field-independent basis, Debye-Ang**2):
  XXX=            726.2756  YYY=            -69.6643  ZZZ=             51.0702  XYY=            173.4648
  XXY=            570.0083  XXZ=            287.4940  XZZ=           -109.4901  YZZ=            -53.7545
  YYZ=            181.1321  XYZ=            182.3025
 Hexadecapole moment (field-independent basis, Debye-Ang**3):
 XXXX=           1741.6792 YYYY=          -2921.0150 ZZZZ=         -11051.4238 XXXY=           2265.4590
 XXXZ=           1682.2915 YYYX=           -686.8092 YYYZ=            559.8563 ZZZX=           -772.0950
 ZZZY=            883.3445 XXYY=            478.3613 XXZZ=          -2073.0123 YYZZ=          -2402.6451
 XXYZ=           1105.7651 YYXZ=            454.0536 ZZXY=           -439.0083
 N-N= 3.326479141259D+03 E-N=-1.019060328723D+04  KE= 1.512226775185D+03
 Unable to Open any file for archive entry.
 1\1\GINC-LAC-314\SP\RB3LYP\6-31G(d)\C20H31N4O7(1+)\KENGMITH\01-Jun-202
 2\0\\# B3LYP/6-31G* empiricaldispersion=gd3 guess=read geom=check nosy
 mm integral(ultrafinegrid)\\Candidate Structure: Conf:234 Charge calc 
 in gas phase\\1,1\N,0,-0.5889229159,-2.8127528115,2.2780984355\H,0,-0.
 183559587,-2.6470718969,3.2872399798\H,0,-1.3976482095,-3.4403197785,2
 .2676960076\H,0,0.1086080076,-3.2142255743,1.6449373878\C,0,-0.9746219
 9,-1.4382548438,1.8254656813\H,0,-0.0257405966,-0.8999404996,1.7265143
 49\C,0,-1.5263602639,-1.5069393331,0.4044200234\C,0,-1.8453731173,-0.7
 682504312,2.9153089607\H,0,-2.3655612403,-1.552594105,3.4767504866\H,0
 ,-2.6310499387,-0.1612731549,2.4531219566\O,0,-1.6737567769,-2.5732959
 297,-0.1645729585\C,0,-0.9836496275,0.093019388,3.859539474\H,0,-1.516
 6230576,0.259709652,4.8022369529\H,0,-0.7988523252,1.073888439,3.41032
 26094\C,0,0.3689221231,-0.591686511,4.1687908397\O,0,1.4149750706,0.10
 39762598,4.0609084273\O,0,0.329103688,-1.8240494565,4.4617480566\N,0,-
 1.7426302597,-0.2525748168,-0.1554234077\H,0,-1.6243070417,0.485295330
 8,0.5349894687\C,0,-1.0150718158,0.1218467994,-1.3920420625\H,0,-1.366
 2611764,1.1248725459,-1.6609350705\C,0,0.4745070689,0.1542494277,-0.98
 92789013\C,0,-1.2459560705,-0.8133839151,-2.5879311372\H,0,-0.91297157
 87,-1.8174936365,-2.3212518496\H,0,-2.3235498172,-0.8653067597,-2.7760
 746123\O,0,1.0485466212,-0.8698039756,-0.6200689835\C,0,-0.493750891,-
 0.2951300374,-3.7947887608\C,0,-1.0251666567,0.7292512674,-4.59254745\
 H,0,-2.0186911072,1.1164002737,-4.3745092365\C,0,0.7795229415,-0.78344
 77724,-4.10947779\H,0,1.2153571884,-1.5690160258,-3.4976925607\C,0,-0.
 3187993606,1.2486099216,-5.6725357441\H,0,-0.7361134808,2.0288675159,-
 6.3008844695\C,0,1.5003138948,-0.2748838126,-5.1900447885\H,0,2.484360
 3138,-0.6752821962,-5.4272072976\O,0,1.5993348275,1.2882415774,-7.0484
 556271\H,0,2.4165905721,0.793933447,-7.2166982659\C,0,0.9509036089,0.7
 428914162,-5.9772340754\N,0,1.082088851,1.3676266589,-0.9435781206\H,0
 ,0.5636474629,2.200468505,-1.1845389564\C,0,2.3983150082,1.4842502599,
 -0.342525413\H,0,3.0732047359,0.7903678465,-0.8530838442\C,0,2.4532209
 18,1.0504284697,1.1437517201\C,0,2.9436016236,2.9230569531,-0.50331714
 15\H,0,3.1604555814,3.0997622592,-1.5636308776\H,0,2.1803223161,3.6508
 107242,-0.1980232843\O,0,3.5133373357,0.6713898373,1.6181531685\C,0,4.
 1996963069,3.113807864,0.3544834068\H,0,4.7909662808,2.195804956,0.257
 012709\H,0,3.8815135051,3.1570705726,1.4043766612\C,0,5.0876428633,4.3
 249783982,0.0597569988\H,0,5.6348887079,4.1966800878,-0.8825286163\H,0
 ,4.5002195028,5.2453599125,-0.0401562795\C,0,6.0622743043,4.5534104796
 ,1.2192287907\H,0,6.8840709519,5.2296239814,0.9743489304\H,0,5.5473340
 571,4.9210354344,2.1103308545\N,0,6.7092132016,3.2311200028,1.65685693
 82\H,0,7.3587203001,3.3666667781,2.4400635168\H,0,7.2324287126,2.79651
 66385,0.8872997889\H,0,5.9925747334,2.5504754831,1.9523265944\O,0,1.32
 83929992,1.2289714917,1.8089819657\H,0,1.4263132866,0.8715430778,2.801
 2504517\\Version=ES64L-G16RevC.01\HF=-1526.2464377\RMSD=9.284e-10\Dipo
 le=6.6588678,5.004689,1.0682342\Quadrupole=74.5684522,-9.887626,-64.68
 08262,74.2442018,6.1726215,11.8766745\PG=C01 [X(C20H31N4O7)]\\@
 The archive entry for this job was punched.


 TO SEE A WORLD IN A GRAIN OF SAND
 AND A HEAVEN IN A WILD FLOWER
 HOLD INFINITY IN THE PALM OF YOUR HAND
 AND ETERNITY IN AN HOUR

                       -- WILLIAM BLAKE
 Job cpu time:       0 days  0 hours  3 minutes  0.9 seconds.
 Elapsed time:       0 days  0 hours  0 minutes 45.9 seconds.
 File lengths (MBytes):  RWF=    264 Int=      0 D2E=      0 Chk=     40 Scr=     16
 Normal termination of Gaussian 16 at Wed Jun  1 23:38:18 2022.
