 Entering Gaussian System, Link 0=/opt/software/Gaussian/g16-AVX2-C.01/g16/g16
 Input=charge-conf-365.com
 Output=charge-conf-365.log
 Initial command:
 /opt/software/Gaussian/g16-AVX2-C.01/g16/l1.exe "/mnt/gs18/scratch/users/kengmith/Gau-2888.inp" -scrdir="/mnt/gs18/scratch/users/kengmith/"
 Entering Link 1 = /opt/software/Gaussian/g16-AVX2-C.01/g16/l1.exe PID=      2898.
  
 Copyright (c) 1988-2019, Gaussian, Inc.  All Rights Reserved.
  
 This is part of the Gaussian(R) 16 program.  It is based on
 the Gaussian(R) 09 system (copyright 2009, Gaussian, Inc.),
 the Gaussian(R) 03 system (copyright 2003, Gaussian, Inc.),
 the Gaussian(R) 98 system (copyright 1998, Gaussian, Inc.),
 the Gaussian(R) 94 system (copyright 1995, Gaussian, Inc.),
 the Gaussian 92(TM) system (copyright 1992, Gaussian, Inc.),
 the Gaussian 90(TM) system (copyright 1990, Gaussian, Inc.),
 the Gaussian 88(TM) system (copyright 1988, Gaussian, Inc.),
 the Gaussian 86(TM) system (copyright 1986, Carnegie Mellon
 University), and the Gaussian 82(TM) system (copyright 1983,
 Carnegie Mellon University). Gaussian is a federally registered
 trademark of Gaussian, Inc.
  
 This software contains proprietary and confidential information,
 including trade secrets, belonging to Gaussian, Inc.
  
 This software is provided under written license and may be
 used, copied, transmitted, or stored only in accord with that
 written license.
  
 The following legend is applicable only to US Government
 contracts under FAR:
  
                    RESTRICTED RIGHTS LEGEND
  
 Use, reproduction and disclosure by the US Government is
 subject to restrictions as set forth in subparagraphs (a)
 and (c) of the Commercial Computer Software - Restricted
 Rights clause in FAR 52.227-19.
  
 Gaussian, Inc.
 340 Quinnipiac St., Bldg. 40, Wallingford CT 06492
  
  
 ---------------------------------------------------------------
 Warning -- This program may not be used in any manner that
 competes with the business of Gaussian, Inc. or will provide
 assistance to any competitor of Gaussian, Inc.  The licensee
 of this program is prohibited from giving any competitor of
 Gaussian, Inc. access to this program.  By using this program,
 the user acknowledges that Gaussian, Inc. is engaged in the
 business of creating and licensing software in the field of
 computational chemistry and represents and warrants to the
 licensee that it is not a competitor of Gaussian, Inc. and that
 it will not use this program in any manner prohibited above.
 ---------------------------------------------------------------
  

 Cite this work as:
 Gaussian 16, Revision C.01,
 M. J. Frisch, G. W. Trucks, H. B. Schlegel, G. E. Scuseria, 
 M. A. Robb, J. R. Cheeseman, G. Scalmani, V. Barone, 
 G. A. Petersson, H. Nakatsuji, X. Li, M. Caricato, A. V. Marenich, 
 J. Bloino, B. G. Janesko, R. Gomperts, B. Mennucci, H. P. Hratchian, 
 J. V. Ortiz, A. F. Izmaylov, J. L. Sonnenberg, D. Williams-Young, 
 F. Ding, F. Lipparini, F. Egidi, J. Goings, B. Peng, A. Petrone, 
 T. Henderson, D. Ranasinghe, V. G. Zakrzewski, J. Gao, N. Rega, 
 G. Zheng, W. Liang, M. Hada, M. Ehara, K. Toyota, R. Fukuda, 
 J. Hasegawa, M. Ishida, T. Nakajima, Y. Honda, O. Kitao, H. Nakai, 
 T. Vreven, K. Throssell, J. A. Montgomery, Jr., J. E. Peralta, 
 F. Ogliaro, M. J. Bearpark, J. J. Heyd, E. N. Brothers, K. N. Kudin, 
 V. N. Staroverov, T. A. Keith, R. Kobayashi, J. Normand, 
 K. Raghavachari, A. P. Rendell, J. C. Burant, S. S. Iyengar, 
 J. Tomasi, M. Cossi, J. M. Millam, M. Klene, C. Adamo, R. Cammi, 
 J. W. Ochterski, R. L. Martin, K. Morokuma, O. Farkas, 
 J. B. Foresman, and D. J. Fox, Gaussian, Inc., Wallingford CT, 2019.
 
 ******************************************
 Gaussian 16:  ES64L-G16RevC.01  3-Jul-2019
                13-May-2022 
 ******************************************
 %mem=8gb
 %nproc=4
 Will use up to    4 processors via shared memory.
 %chk=conf-365.chk
 ----------------------------------------------------------------------
 # B3LYP/6-31G* empiricaldispersion=gd3 guess=read geom=check nosymm in
 tegral(ultrafinegrid)
 ----------------------------------------------------------------------
 1/29=2,38=1,172=1/1;
 2/12=2,15=1,40=1/2;
 3/5=1,6=6,7=1,11=2,14=-4,25=1,30=1,74=-5,75=-5,116=-2,124=31/1,2,3;
 4/5=1/1;
 5/5=2,38=6/2;
 6/7=2,8=2,9=2,10=2,28=1/1;
 99/5=1,9=1/99;
 ------------------------------------------------------
 Candidate Structure: Conf:365 Charge calc in gas phase
 ------------------------------------------------------
 Structure from the checkpoint file:  "conf-365.chk"
 Charge =  1 Multiplicity = 1
 Redundant internal coordinates found in file.  (old form).
 N,0,-5.9888788286,0.8505678897,3.0690565269
 H,0,-6.1981126474,1.7362549567,2.5611515342
 H,0,-6.0637768471,0.0591226937,2.38869241
 H,0,-6.6522526543,0.7383514808,3.8388255463
 C,0,-4.5429276096,0.8056629475,3.5039942931
 H,0,-4.2233782075,1.837172454,3.6675139374
 C,0,-3.852447534,0.1682474204,2.2741725186
 C,0,-4.3604505315,-0.0564553569,4.7560622207
 H,0,-4.761968698,-1.0581732472,4.5570243535
 H,0,-3.2855464363,-0.1796792489,4.9197505924
 O,0,-4.5146604583,-0.6370845787,1.6108054719
 C,0,-4.9947479505,0.5496636813,6.0200128471
 H,0,-6.0755301852,0.6969275709,5.9242008938
 H,0,-4.5377853522,1.5247555619,6.2299434004
 C,0,-4.8025316711,-0.3414729623,7.2367208729
 O,0,-5.6944407171,-0.779816341,7.9205722222
 O,0,-3.4893185555,-0.5854967015,7.450537473
 N,0,-2.596255681,0.5435071721,2.0308018995
 H,0,-2.1277131297,1.2354060236,2.6080266029
 C,0,-1.8956818389,0.225748426,0.7867049327
 H,0,-2.2875849588,-0.7219720132,0.4120643693
 C,0,-0.396043583,0.1957515456,1.0798807787
 C,0,-2.1301131487,1.3529116825,-0.2708158516
 H,0,-1.5611337648,1.0980555742,-1.1684527226
 H,0,-1.7117790199,2.2776841779,0.1428182634
 O,0,0.1009665797,1.1027476862,1.7432204311
 C,0,-3.5750639365,1.506140921,-0.6219274135
 C,0,-4.2271028521,0.8293607751,-1.6235122575
 H,0,-3.7932298867,0.2035705464,-2.3937214823
 C,0,-4.5784179139,2.2471979045,0.0942886184
 C,0,-5.8392493066,1.9345049538,-0.5029656379
 C,0,-4.5469489956,3.1508831223,1.169643641
 H,0,-3.5970675207,3.4466771324,1.6078823328
 N,0,-5.5844520117,1.0766859464,-1.5471026036
 H,0,-6.2731590766,0.7284370249,-2.1965617237
 C,0,-6.9854591679,3.3229824494,1.0719057993
 H,0,-7.9021773685,3.7618900595,1.4549893
 C,0,-7.0433227974,2.451516214,-0.016898926
 H,0,-7.9936579867,2.1986973584,-0.4787866436
 C,0,-5.7444517128,3.681613615,1.6534544601
 H,0,-5.726319294,4.4051715067,2.464249587
 N,0,0.29791688,-0.796122338,0.4705861579
 H,0,-0.1997018566,-1.5758883547,0.0585839241
 C,0,1.7162088333,-0.7045650531,0.1457921374
 H,0,2.1480222867,0.0847947567,0.7644188694
 C,0,1.9606874579,-0.3100208383,-1.3348464906
 C,0,2.4230230706,-2.0344336626,0.4356183143
 H,0,3.4416169704,-1.941165393,0.0361799732
 O,0,3.1062493225,-0.0983408932,-1.7230615494
 C,0,2.4606539515,-2.3768079697,1.9215403356
 H,0,3.0290140464,-1.6258582858,2.481042655
 H,0,2.9438745686,-3.3485314493,2.0791731275
 H,0,1.4459519654,-2.4256918947,2.3293466166
 O,0,1.6777503573,-3.0073509486,-0.3117124458
 H,0,2.0877764594,-3.8745922665,-0.1741935205
 N,0,0.8589412842,-0.242334655,-2.1080431259
 H,0,-0.0586270761,-0.4788187831,-1.752410558
 C,0,0.8224021229,0.084239869,-3.5203141421
 H,0,1.2786455741,1.0697366624,-3.6733997895
 C,0,-0.691630484,0.1816523784,-3.8969959778
 C,0,1.6117062382,-0.9662346847,-4.3676601548
 H,0,0.939732643,-1.7879337427,-4.6486672789
 H,0,2.3582771661,-1.3902116071,-3.694786972
 O,0,-0.9475223785,0.6517463537,-5.052861664
 C,0,2.358146364,-0.4185442097,-5.6128078636
 H,0,2.3998441999,0.6773483169,-5.5797695672
 H,0,3.4000085813,-0.7553435746,-5.5968324991
 C,0,1.7681694515,-0.843471784,-6.9637679983
 H,0,2.3693011289,-0.4298695762,-7.7837005312
 H,0,1.7801460099,-1.9384073405,-7.054583332
 N,0,0.388936683,-0.3616270291,-7.0493657064
 H,0,0.0620901115,0.2499407773,-6.2611703998
 N,0,-0.4065239397,-1.7563791062,-8.7490322191
 H,0,-1.1031529816,-2.4375682102,-9.0122902032
 H,0,0.5279065403,-1.8922651664,-9.1043811202
 N,0,-1.869430547,-0.7399001223,-7.24466118
 H,0,-1.9595859755,-0.1831417844,-6.3799208652
 H,0,-2.6470126366,-0.8078197022,-7.8850568552
 C,0,-0.614015918,-0.9512342431,-7.6809112536
 O,0,-1.530199474,-0.2072366333,-3.0565731762
 H,0,-3.4249019344,-1.1549557671,8.24116915
 Recover connectivity data from disk.
                           ----------------------------
                           !    Current Parameters    !
                           ! (Angstroms and Degrees)  !
 --------------------------                            --------------------------
 ! Name  Definition              Value                                          !
 --------------------------------------------------------------------------------
 ! R1    R(1,2)                  1.0422                                         !
 ! R2    R(1,3)                  1.0464                                         !
 ! R3    R(1,4)                  1.0224                                         !
 ! R4    R(1,5)                  1.5106                                         !
 ! R5    R(5,6)                  1.0922                                         !
 ! R6    R(5,7)                  1.5477                                         !
 ! R7    R(5,8)                  1.5311                                         !
 ! R8    R(7,11)                 1.2358                                         !
 ! R9    R(7,18)                 1.3334                                         !
 ! R10   R(8,9)                  1.0974                                         !
 ! R11   R(8,10)                 1.0943                                         !
 ! R12   R(8,12)                 1.5386                                         !
 ! R13   R(12,13)                1.095                                          !
 ! R14   R(12,14)                1.0971                                         !
 ! R15   R(12,15)                1.5203                                         !
 ! R16   R(15,16)                1.2064                                         !
 ! R17   R(15,17)                1.3527                                         !
 ! R18   R(17,81)                0.9765                                         !
 ! R19   R(18,19)                1.0156                                         !
 ! R20   R(18,20)                1.4627                                         !
 ! R21   R(20,21)                1.0918                                         !
 ! R22   R(20,22)                1.5283                                         !
 ! R23   R(20,23)                1.5633                                         !
 ! R24   R(22,26)                1.2287                                         !
 ! R25   R(22,42)                1.3552                                         !
 ! R26   R(23,24)                1.0929                                         !
 ! R27   R(23,25)                1.096                                          !
 ! R28   R(23,27)                1.4949                                         !
 ! R29   R(27,28)                1.3734                                         !
 ! R30   R(27,30)                1.4383                                         !
 ! R31   R(28,29)                1.0831                                         !
 ! R32   R(28,34)                1.3818                                         !
 ! R33   R(30,31)                1.4298                                         !
 ! R34   R(30,32)                1.405                                          !
 ! R35   R(31,34)                1.3751                                         !
 ! R36   R(31,38)                1.3976                                         !
 ! R37   R(32,33)                1.0871                                         !
 ! R38   R(32,40)                1.3963                                         !
 ! R39   R(34,35)                1.0087                                         !
 ! R40   R(36,37)                1.0862                                         !
 ! R41   R(36,38)                1.3958                                         !
 ! R42   R(36,40)                1.4167                                         !
 ! R43   R(38,39)                1.0865                                         !
 ! R44   R(40,41)                1.0869                                         !
 ! R45   R(42,43)                1.0126                                         !
 ! R46   R(42,44)                1.4579                                         !
 ! R47   R(44,45)                1.0919                                         !
 ! R48   R(44,46)                1.5517                                         !
 ! R49   R(44,47)                1.5337                                         !
 ! R50   R(46,49)                1.2279                                         !
 ! R51   R(46,56)                1.3477                                         !
 ! R52   R(47,48)                1.0981                                         !
 ! R53   R(47,50)                1.5253                                         !
 ! R54   R(47,54)                1.4354                                         !
 ! R55   R(50,51)                1.0954                                         !
 ! R56   R(50,52)                1.0966                                         !
 ! R57   R(50,53)                1.0947                                         !
 ! R58   R(54,55)                0.9691                                         !
 ! R59   R(56,57)                1.0121                                         !
 ! R60   R(56,58)                1.45                                           !
 ! R61   R(58,59)                1.0967                                         !
 ! R62   R(58,60)                1.5632                                         !
 ! R63   R(58,61)                1.5635                                         !
 ! R64   R(60,64)                1.2738                                         !
 ! R65   R(60,80)                1.2493                                         !
 ! R66   R(61,62)                1.098                                          !
 ! R67   R(61,63)                1.0908                                         !
 ! R68   R(61,65)                1.5516                                         !
 ! R69   R(65,66)                1.0972                                         !
 ! R70   R(65,67)                1.0951                                         !
 ! R71   R(65,68)                1.5342                                         !
 ! R72   R(68,69)                1.0976                                         !
 ! R73   R(68,70)                1.0988                                         !
 ! R74   R(68,71)                1.4635                                         !
 ! R75   R(71,72)                1.0498                                         !
 ! R76   R(71,79)                1.3238                                         !
 ! R77   R(73,74)                1.0093                                         !
 ! R78   R(73,75)                1.0089                                         !
 ! R79   R(73,79)                1.3536                                         !
 ! R80   R(76,77)                1.0324                                         !
 ! R81   R(76,78)                1.0096                                         !
 ! R82   R(76,79)                1.3457                                         !
 ! A1    A(2,1,3)              108.1519                                         !
 ! A2    A(2,1,4)              109.2656                                         !
 ! A3    A(2,1,5)              110.9617                                         !
 ! A4    A(3,1,4)              111.1066                                         !
 ! A5    A(3,1,5)              103.4879                                         !
 ! A6    A(4,1,5)              113.6435                                         !
 ! A7    A(1,5,6)              107.1627                                         !
 ! A8    A(1,5,7)              102.1508                                         !
 ! A9    A(1,5,8)              111.4857                                         !
 ! A10   A(6,5,7)              112.1724                                         !
 ! A11   A(6,5,8)              111.9929                                         !
 ! A12   A(7,5,8)              111.3905                                         !
 ! A13   A(5,7,11)             117.1203                                         !
 ! A14   A(5,7,18)             116.7051                                         !
 ! A15   A(11,7,18)            126.1746                                         !
 ! A16   A(5,8,9)              108.7874                                         !
 ! A17   A(5,8,10)             107.6265                                         !
 ! A18   A(5,8,12)             113.6305                                         !
 ! A19   A(9,8,10)             106.4843                                         !
 ! A20   A(9,8,12)             110.9625                                         !
 ! A21   A(10,8,12)            109.0529                                         !
 ! A22   A(8,12,13)            112.831                                          !
 ! A23   A(8,12,14)            109.6093                                         !
 ! A24   A(8,12,15)            111.9874                                         !
 ! A25   A(13,12,14)           107.9582                                         !
 ! A26   A(13,12,15)           105.8815                                         !
 ! A27   A(14,12,15)           108.3701                                         !
 ! A28   A(12,15,16)           124.9713                                         !
 ! A29   A(12,15,17)           110.7919                                         !
 ! A30   A(16,15,17)           124.2362                                         !
 ! A31   A(15,17,81)           107.2911                                         !
 ! A32   A(7,18,19)            121.5075                                         !
 ! A33   A(7,18,20)            123.0454                                         !
 ! A34   A(19,18,20)           114.2328                                         !
 ! A35   A(18,20,21)           107.9683                                         !
 ! A36   A(18,20,22)           108.1237                                         !
 ! A37   A(18,20,23)           110.2985                                         !
 ! A38   A(21,20,22)           113.6399                                         !
 ! A39   A(21,20,23)           109.8714                                         !
 ! A40   A(22,20,23)           106.9219                                         !
 ! A41   A(20,22,26)           119.0772                                         !
 ! A42   A(20,22,42)           115.504                                          !
 ! A43   A(26,22,42)           125.1597                                         !
 ! A44   A(20,23,24)           108.0234                                         !
 ! A45   A(20,23,25)           107.2072                                         !
 ! A46   A(20,23,27)           112.1945                                         !
 ! A47   A(24,23,25)           107.9393                                         !
 ! A48   A(24,23,27)           109.5249                                         !
 ! A49   A(25,23,27)           111.7826                                         !
 ! A50   A(23,27,28)           125.4271                                         !
 ! A51   A(23,27,30)           127.5991                                         !
 ! A52   A(28,27,30)           106.6085                                         !
 ! A53   A(27,28,29)           127.8151                                         !
 ! A54   A(27,28,34)           109.7441                                         !
 ! A55   A(29,28,34)           122.4277                                         !
 ! A56   A(27,30,31)           107.1258                                         !
 ! A57   A(27,30,32)           134.1765                                         !
 ! A58   A(31,30,32)           118.6948                                         !
 ! A59   A(30,31,34)           106.8709                                         !
 ! A60   A(30,31,38)           122.2454                                         !
 ! A61   A(34,31,38)           130.8785                                         !
 ! A62   A(30,32,33)           120.2064                                         !
 ! A63   A(30,32,40)           119.3703                                         !
 ! A64   A(33,32,40)           120.4142                                         !
 ! A65   A(28,34,31)           109.6119                                         !
 ! A66   A(28,34,35)           124.9811                                         !
 ! A67   A(31,34,35)           125.2932                                         !
 ! A68   A(37,36,38)           119.4997                                         !
 ! A69   A(37,36,40)           119.4897                                         !
 ! A70   A(38,36,40)           120.9698                                         !
 ! A71   A(31,38,36)           117.8093                                         !
 ! A72   A(31,38,39)           121.3082                                         !
 ! A73   A(36,38,39)           120.8751                                         !
 ! A74   A(32,40,36)           120.8515                                         !
 ! A75   A(32,40,41)           119.8155                                         !
 ! A76   A(36,40,41)           119.3003                                         !
 ! A77   A(22,42,43)           119.6615                                         !
 ! A78   A(22,42,44)           123.5287                                         !
 ! A79   A(43,42,44)           115.8354                                         !
 ! A80   A(42,44,45)           107.6925                                         !
 ! A81   A(42,44,46)           112.4471                                         !
 ! A82   A(42,44,47)           110.597                                          !
 ! A83   A(45,44,46)           107.1271                                         !
 ! A84   A(45,44,47)           109.7267                                         !
 ! A85   A(46,44,47)           109.159                                          !
 ! A86   A(44,46,49)           119.5048                                         !
 ! A87   A(44,46,56)           115.5576                                         !
 ! A88   A(49,46,56)           124.9335                                         !
 ! A89   A(44,47,48)           106.5655                                         !
 ! A90   A(44,47,50)           112.9606                                         !
 ! A91   A(44,47,54)           104.4805                                         !
 ! A92   A(48,47,50)           110.5206                                         !
 ! A93   A(48,47,54)           110.4748                                         !
 ! A94   A(50,47,54)           111.5833                                         !
 ! A95   A(47,50,51)           110.8847                                         !
 ! A96   A(47,50,52)           110.4748                                         !
 ! A97   A(47,50,53)           110.4915                                         !
 ! A98   A(51,50,52)           107.7822                                         !
 ! A99   A(51,50,53)           108.7399                                         !
 ! A100  A(52,50,53)           108.3808                                         !
 ! A101  A(47,54,55)           108.2398                                         !
 ! A102  A(46,56,57)           121.8587                                         !
 ! A103  A(46,56,58)           126.2071                                         !
 ! A104  A(57,56,58)           111.8403                                         !
 ! A105  A(56,58,59)           109.1385                                         !
 ! A106  A(56,58,60)           105.851                                          !
 ! A107  A(56,58,61)           111.3345                                         !
 ! A108  A(59,58,60)           108.2573                                         !
 ! A109  A(59,58,61)           108.5466                                         !
 ! A110  A(60,58,61)           113.5922                                         !
 ! A111  A(58,60,64)           115.8635                                         !
 ! A112  A(58,60,80)           117.9442                                         !
 ! A113  A(64,60,80)           126.1913                                         !
 ! A114  A(58,61,62)           109.4228                                         !
 ! A115  A(58,61,63)           105.8043                                         !
 ! A116  A(58,61,65)           116.1431                                         !
 ! A117  A(62,61,63)           106.6094                                         !
 ! A118  A(62,61,65)           110.6819                                         !
 ! A119  A(63,61,65)           107.6352                                         !
 ! A120  A(61,65,66)           110.2845                                         !
 ! A121  A(61,65,67)           109.7203                                         !
 ! A122  A(61,65,68)           115.0797                                         !
 ! A123  A(66,65,67)           105.7001                                         !
 ! A124  A(66,65,68)           108.5285                                         !
 ! A125  A(67,65,68)           107.0695                                         !
 ! A126  A(65,68,69)           110.0492                                         !
 ! A127  A(65,68,70)           110.1573                                         !
 ! A128  A(65,68,71)           108.8279                                         !
 ! A129  A(69,68,70)           107.9267                                         !
 ! A130  A(69,68,71)           110.3889                                         !
 ! A131  A(70,68,71)           109.4836                                         !
 ! A132  A(68,71,72)           116.1872                                         !
 ! A133  A(68,71,79)           126.5329                                         !
 ! A134  A(72,71,79)           112.4435                                         !
 ! A135  A(74,73,75)           117.1618                                         !
 ! A136  A(74,73,79)           120.0988                                         !
 ! A137  A(75,73,79)           120.0013                                         !
 ! A138  A(77,76,78)           120.0196                                         !
 ! A139  A(77,76,79)           115.9553                                         !
 ! A140  A(78,76,79)           120.1514                                         !
 ! A141  A(71,79,73)           121.6855                                         !
 ! A142  A(71,79,76)           118.8283                                         !
 ! A143  A(73,79,76)           119.4862                                         !
 ! D1    D(2,1,5,6)             29.5115                                         !
 ! D2    D(2,1,5,7)            -88.5573                                         !
 ! D3    D(2,1,5,8)            152.3847                                         !
 ! D4    D(3,1,5,6)            145.2947                                         !
 ! D5    D(3,1,5,7)             27.2259                                         !
 ! D6    D(3,1,5,8)            -91.8321                                         !
 ! D7    D(4,1,5,6)            -94.0908                                         !
 ! D8    D(4,1,5,7)            147.8404                                         !
 ! D9    D(4,1,5,8)             28.7824                                         !
 ! D10   D(1,5,7,11)           -31.225                                          !
 ! D11   D(1,5,7,18)           148.7023                                         !
 ! D12   D(6,5,7,11)          -145.6623                                         !
 ! D13   D(6,5,7,18)            34.265                                          !
 ! D14   D(8,5,7,11)            87.9002                                         !
 ! D15   D(8,5,7,18)           -92.1725                                         !
 ! D16   D(1,5,8,9)             55.9484                                         !
 ! D17   D(1,5,8,10)           170.9455                                         !
 ! D18   D(1,5,8,12)           -68.1983                                         !
 ! D19   D(6,5,8,9)            176.0139                                         !
 ! D20   D(6,5,8,10)           -68.989                                          !
 ! D21   D(6,5,8,12)            51.8671                                         !
 ! D22   D(7,5,8,9)            -57.4501                                         !
 ! D23   D(7,5,8,10)            57.547                                          !
 ! D24   D(7,5,8,12)           178.4031                                         !
 ! D25   D(5,7,18,19)           -1.8654                                         !
 ! D26   D(5,7,18,20)         -168.5429                                         !
 ! D27   D(11,7,18,19)         178.0544                                         !
 ! D28   D(11,7,18,20)          11.3769                                         !
 ! D29   D(5,8,12,13)           60.1357                                         !
 ! D30   D(5,8,12,14)          -60.2034                                         !
 ! D31   D(5,8,12,15)          179.4885                                         !
 ! D32   D(9,8,12,13)          -62.8255                                         !
 ! D33   D(9,8,12,14)          176.8354                                         !
 ! D34   D(9,8,12,15)           56.5274                                         !
 ! D35   D(10,8,12,13)        -179.8124                                         !
 ! D36   D(10,8,12,14)          59.8485                                         !
 ! D37   D(10,8,12,15)         -60.4595                                         !
 ! D38   D(8,12,15,16)        -122.9016                                         !
 ! D39   D(8,12,15,17)          56.826                                          !
 ! D40   D(13,12,15,16)          0.4607                                         !
 ! D41   D(13,12,15,17)       -179.8116                                         !
 ! D42   D(14,12,15,16)        116.0712                                         !
 ! D43   D(14,12,15,17)        -64.2012                                         !
 ! D44   D(12,15,17,81)        179.7274                                         !
 ! D45   D(16,15,17,81)         -0.5426                                         !
 ! D46   D(7,18,20,21)         -30.3595                                         !
 ! D47   D(7,18,20,22)        -153.7061                                         !
 ! D48   D(7,18,20,23)          89.7036                                         !
 ! D49   D(19,18,20,21)        162.082                                          !
 ! D50   D(19,18,20,22)         38.7355                                         !
 ! D51   D(19,18,20,23)        -77.8548                                         !
 ! D52   D(18,20,22,26)        -46.0004                                         !
 ! D53   D(18,20,22,42)        139.5456                                         !
 ! D54   D(21,20,22,26)       -165.8417                                         !
 ! D55   D(21,20,22,42)         19.7043                                         !
 ! D56   D(23,20,22,26)         72.7583                                         !
 ! D57   D(23,20,22,42)       -101.6957                                         !
 ! D58   D(18,20,23,24)        177.8409                                         !
 ! D59   D(18,20,23,25)         61.747                                          !
 ! D60   D(18,20,23,27)        -61.3397                                         !
 ! D61   D(21,20,23,24)        -63.2495                                         !
 ! D62   D(21,20,23,25)       -179.3434                                         !
 ! D63   D(21,20,23,27)         57.5698                                         !
 ! D64   D(22,20,23,24)         60.5047                                         !
 ! D65   D(22,20,23,25)        -55.5892                                         !
 ! D66   D(22,20,23,27)       -178.6759                                         !
 ! D67   D(20,22,42,43)        -14.8174                                         !
 ! D68   D(20,22,42,44)        153.4074                                         !
 ! D69   D(26,22,42,43)        171.1126                                         !
 ! D70   D(26,22,42,44)        -20.6625                                         !
 ! D71   D(20,23,27,28)        -89.2597                                         !
 ! D72   D(20,23,27,30)         82.8559                                         !
 ! D73   D(24,23,27,28)         30.6891                                         !
 ! D74   D(24,23,27,30)       -157.1954                                         !
 ! D75   D(25,23,27,28)        150.2691                                         !
 ! D76   D(25,23,27,30)        -37.6153                                         !
 ! D77   D(23,27,28,29)         -9.5477                                         !
 ! D78   D(23,27,28,34)        171.7587                                         !
 ! D79   D(30,27,28,29)        176.9646                                         !
 ! D80   D(30,27,28,34)         -1.7291                                         !
 ! D81   D(23,27,30,31)       -171.2901                                         !
 ! D82   D(23,27,30,32)          9.3561                                         !
 ! D83   D(28,27,30,31)          2.0114                                         !
 ! D84   D(28,27,30,32)       -177.3424                                         !
 ! D85   D(27,28,34,31)          0.7787                                         !
 ! D86   D(27,28,34,35)        177.066                                          !
 ! D87   D(29,28,34,31)       -177.9987                                         !
 ! D88   D(29,28,34,35)         -1.7113                                         !
 ! D89   D(27,30,31,34)         -1.5554                                         !
 ! D90   D(27,30,31,38)        177.7003                                         !
 ! D91   D(32,30,31,34)        177.9163                                         !
 ! D92   D(32,30,31,38)         -2.828                                          !
 ! D93   D(27,30,32,33)          2.5424                                         !
 ! D94   D(27,30,32,40)       -178.5514                                         !
 ! D95   D(31,30,32,33)       -176.7536                                         !
 ! D96   D(31,30,32,40)          2.1526                                         !
 ! D97   D(30,31,34,28)          0.5207                                         !
 ! D98   D(30,31,34,35)       -175.7524                                         !
 ! D99   D(38,31,34,28)       -178.6467                                         !
 ! D100  D(38,31,34,35)          5.0802                                         !
 ! D101  D(30,31,38,36)          1.3775                                         !
 ! D102  D(30,31,38,39)       -179.6066                                         !
 ! D103  D(34,31,38,36)       -179.5646                                         !
 ! D104  D(34,31,38,39)         -0.5488                                         !
 ! D105  D(30,32,40,36)         -0.1673                                         !
 ! D106  D(30,32,40,41)       -178.0722                                         !
 ! D107  D(33,32,40,36)        178.7365                                         !
 ! D108  D(33,32,40,41)          0.8317                                         !
 ! D109  D(37,36,38,31)        178.3633                                         !
 ! D110  D(37,36,38,39)         -0.657                                          !
 ! D111  D(40,36,38,31)          0.6983                                         !
 ! D112  D(40,36,38,39)       -178.322                                          !
 ! D113  D(37,36,40,32)       -178.9841                                         !
 ! D114  D(37,36,40,41)         -1.0685                                         !
 ! D115  D(38,36,40,32)         -1.3188                                         !
 ! D116  D(38,36,40,41)        176.5967                                         !
 ! D117  D(22,42,44,45)         19.3808                                         !
 ! D118  D(22,42,44,46)        -98.4099                                         !
 ! D119  D(22,42,44,47)        139.2729                                         !
 ! D120  D(43,42,44,45)       -171.9822                                         !
 ! D121  D(43,42,44,46)         70.2272                                         !
 ! D122  D(43,42,44,47)        -52.09                                           !
 ! D123  D(42,44,46,49)        174.5898                                         !
 ! D124  D(42,44,46,56)         -6.1067                                         !
 ! D125  D(45,44,46,49)         56.4651                                         !
 ! D126  D(45,44,46,56)       -124.2314                                         !
 ! D127  D(47,44,46,49)        -62.2838                                         !
 ! D128  D(47,44,46,56)        117.0197                                         !
 ! D129  D(42,44,47,48)        172.0005                                         !
 ! D130  D(42,44,47,50)        -66.4513                                         !
 ! D131  D(42,44,47,54)         55.0169                                         !
 ! D132  D(45,44,47,48)        -69.3361                                         !
 ! D133  D(45,44,47,50)         52.212                                          !
 ! D134  D(45,44,47,54)        173.6802                                         !
 ! D135  D(46,44,47,48)         47.779                                          !
 ! D136  D(46,44,47,50)        169.3272                                         !
 ! D137  D(46,44,47,54)        -69.2046                                         !
 ! D138  D(44,46,56,57)         -2.8999                                         !
 ! D139  D(44,46,56,58)       -179.0833                                         !
 ! D140  D(49,46,56,57)        176.3606                                         !
 ! D141  D(49,46,56,58)          0.1772                                         !
 ! D142  D(44,47,50,51)        -62.4531                                         !
 ! D143  D(44,47,50,52)        178.1152                                         !
 ! D144  D(44,47,50,53)         58.1899                                         !
 ! D145  D(48,47,50,51)         56.8348                                         !
 ! D146  D(48,47,50,52)        -62.5969                                         !
 ! D147  D(48,47,50,53)        177.4778                                         !
 ! D148  D(54,47,50,51)       -179.8171                                         !
 ! D149  D(54,47,50,52)         60.7513                                         !
 ! D150  D(54,47,50,53)        -59.1741                                         !
 ! D151  D(44,47,54,55)        179.3726                                         !
 ! D152  D(48,47,54,55)         65.1205                                         !
 ! D153  D(50,47,54,55)        -58.2537                                         !
 ! D154  D(46,56,58,59)        -57.5924                                         !
 ! D155  D(46,56,58,60)       -173.9042                                         !
 ! D156  D(46,56,58,61)         62.2093                                         !
 ! D157  D(57,56,58,59)        125.8995                                         !
 ! D158  D(57,56,58,60)          9.5877                                         !
 ! D159  D(57,56,58,61)       -114.2989                                         !
 ! D160  D(56,58,60,64)        170.1493                                         !
 ! D161  D(56,58,60,80)        -10.1925                                         !
 ! D162  D(59,58,60,64)         53.2422                                         !
 ! D163  D(59,58,60,80)       -127.0996                                         !
 ! D164  D(61,58,60,64)        -67.3922                                         !
 ! D165  D(61,58,60,80)        112.266                                          !
 ! D166  D(56,58,61,62)         88.3794                                         !
 ! D167  D(56,58,61,63)        -26.1279                                         !
 ! D168  D(56,58,61,65)       -145.4468                                         !
 ! D169  D(59,58,61,62)       -151.4688                                         !
 ! D170  D(59,58,61,63)         94.0239                                         !
 ! D171  D(59,58,61,65)        -25.295                                          !
 ! D172  D(60,58,61,62)        -30.9975                                         !
 ! D173  D(60,58,61,63)       -145.5047                                         !
 ! D174  D(60,58,61,65)         95.1764                                         !
 ! D175  D(58,61,65,66)         12.8378                                         !
 ! D176  D(58,61,65,67)        128.8749                                         !
 ! D177  D(58,61,65,68)       -110.3257                                         !
 ! D178  D(62,61,65,66)        138.3757                                         !
 ! D179  D(62,61,65,67)       -105.5872                                         !
 ! D180  D(62,61,65,68)         15.2122                                         !
 ! D181  D(63,61,65,66)       -105.4815                                         !
 ! D182  D(63,61,65,67)         10.5557                                         !
 ! D183  D(63,61,65,68)        131.3551                                         !
 ! D184  D(61,65,68,69)       -178.7938                                         !
 ! D185  D(61,65,68,70)        -59.9124                                         !
 ! D186  D(61,65,68,71)         60.124                                          !
 ! D187  D(66,65,68,69)         57.1125                                         !
 ! D188  D(66,65,68,70)        175.994                                          !
 ! D189  D(66,65,68,71)        -63.9696                                         !
 ! D190  D(67,65,68,69)        -56.5567                                         !
 ! D191  D(67,65,68,70)         62.3247                                         !
 ! D192  D(67,65,68,71)       -177.6389                                         !
 ! D193  D(65,68,71,72)          5.6756                                         !
 ! D194  D(65,68,71,79)       -147.6806                                         !
 ! D195  D(69,68,71,72)       -115.1982                                         !
 ! D196  D(69,68,71,79)         91.4457                                         !
 ! D197  D(70,68,71,72)        126.1284                                         !
 ! D198  D(70,68,71,79)        -27.2278                                         !
 ! D199  D(68,71,79,73)        -27.4381                                         !
 ! D200  D(68,71,79,76)        152.5843                                         !
 ! D201  D(72,71,79,73)        178.3722                                         !
 ! D202  D(72,71,79,76)         -1.6054                                         !
 ! D203  D(74,73,79,71)        158.4185                                         !
 ! D204  D(74,73,79,76)        -21.6041                                         !
 ! D205  D(75,73,79,71)         -2.3107                                         !
 ! D206  D(75,73,79,76)        177.6667                                         !
 ! D207  D(77,76,79,71)         -5.0364                                         !
 ! D208  D(77,76,79,73)        174.9855                                         !
 ! D209  D(78,76,79,71)        152.8187                                         !
 ! D210  D(78,76,79,73)        -27.1594                                         !
 --------------------------------------------------------------------------------
 Symmetry turned off by external request.
 Stoichiometry    C26H39N8O8(1+)
 Framework group  C1[X(C26H39N8O8)]
 Deg. of freedom   237
 Full point group                 C1      NOp   1
                          Input orientation:                          
 ---------------------------------------------------------------------
 Center     Atomic      Atomic             Coordinates (Angstroms)
 Number     Number       Type             X           Y           Z
 ---------------------------------------------------------------------
      1          7           0       -5.988879    0.850568    3.069057
      2          1           0       -6.198113    1.736255    2.561152
      3          1           0       -6.063777    0.059123    2.388692
      4          1           0       -6.652253    0.738351    3.838826
      5          6           0       -4.542928    0.805663    3.503994
      6          1           0       -4.223378    1.837172    3.667514
      7          6           0       -3.852448    0.168247    2.274173
      8          6           0       -4.360451   -0.056455    4.756062
      9          1           0       -4.761969   -1.058173    4.557024
     10          1           0       -3.285546   -0.179679    4.919751
     11          8           0       -4.514660   -0.637085    1.610805
     12          6           0       -4.994748    0.549664    6.020013
     13          1           0       -6.075530    0.696928    5.924201
     14          1           0       -4.537785    1.524756    6.229943
     15          6           0       -4.802532   -0.341473    7.236721
     16          8           0       -5.694441   -0.779816    7.920572
     17          8           0       -3.489319   -0.585497    7.450537
     18          7           0       -2.596256    0.543507    2.030802
     19          1           0       -2.127713    1.235406    2.608027
     20          6           0       -1.895682    0.225748    0.786705
     21          1           0       -2.287585   -0.721972    0.412064
     22          6           0       -0.396044    0.195752    1.079881
     23          6           0       -2.130113    1.352912   -0.270816
     24          1           0       -1.561134    1.098056   -1.168453
     25          1           0       -1.711779    2.277684    0.142818
     26          8           0        0.100967    1.102748    1.743220
     27          6           0       -3.575064    1.506141   -0.621927
     28          6           0       -4.227103    0.829361   -1.623512
     29          1           0       -3.793230    0.203571   -2.393721
     30          6           0       -4.578418    2.247198    0.094289
     31          6           0       -5.839249    1.934505   -0.502966
     32          6           0       -4.546949    3.150883    1.169644
     33          1           0       -3.597068    3.446677    1.607882
     34          7           0       -5.584452    1.076686   -1.547103
     35          1           0       -6.273159    0.728437   -2.196562
     36          6           0       -6.985459    3.322982    1.071906
     37          1           0       -7.902177    3.761890    1.454989
     38          6           0       -7.043323    2.451516   -0.016899
     39          1           0       -7.993658    2.198697   -0.478787
     40          6           0       -5.744452    3.681614    1.653454
     41          1           0       -5.726319    4.405172    2.464250
     42          7           0        0.297917   -0.796122    0.470586
     43          1           0       -0.199702   -1.575888    0.058584
     44          6           0        1.716209   -0.704565    0.145792
     45          1           0        2.148022    0.084795    0.764419
     46          6           0        1.960687   -0.310021   -1.334846
     47          6           0        2.423023   -2.034434    0.435618
     48          1           0        3.441617   -1.941165    0.036180
     49          8           0        3.106249   -0.098341   -1.723062
     50          6           0        2.460654   -2.376808    1.921540
     51          1           0        3.029014   -1.625858    2.481043
     52          1           0        2.943875   -3.348531    2.079173
     53          1           0        1.445952   -2.425692    2.329347
     54          8           0        1.677750   -3.007351   -0.311712
     55          1           0        2.087776   -3.874592   -0.174194
     56          7           0        0.858941   -0.242335   -2.108043
     57          1           0       -0.058627   -0.478819   -1.752411
     58          6           0        0.822402    0.084240   -3.520314
     59          1           0        1.278646    1.069737   -3.673400
     60          6           0       -0.691630    0.181652   -3.896996
     61          6           0        1.611706   -0.966235   -4.367660
     62          1           0        0.939733   -1.787934   -4.648667
     63          1           0        2.358277   -1.390212   -3.694787
     64          8           0       -0.947522    0.651746   -5.052862
     65          6           0        2.358146   -0.418544   -5.612808
     66          1           0        2.399844    0.677348   -5.579770
     67          1           0        3.400009   -0.755344   -5.596832
     68          6           0        1.768169   -0.843472   -6.963768
     69          1           0        2.369301   -0.429870   -7.783701
     70          1           0        1.780146   -1.938407   -7.054583
     71          7           0        0.388937   -0.361627   -7.049366
     72          1           0        0.062090    0.249941   -6.261170
     73          7           0       -0.406524   -1.756379   -8.749032
     74          1           0       -1.103153   -2.437568   -9.012290
     75          1           0        0.527907   -1.892265   -9.104381
     76          7           0       -1.869431   -0.739900   -7.244661
     77          1           0       -1.959586   -0.183142   -6.379921
     78          1           0       -2.647013   -0.807820   -7.885057
     79          6           0       -0.614016   -0.951234   -7.680911
     80          8           0       -1.530199   -0.207237   -3.056573
     81          1           0       -3.424902   -1.154956    8.241169
 ---------------------------------------------------------------------
 Rotational constants (GHZ):           0.1139191           0.0393566           0.0314029
 Standard basis: 6-31G(d) (6D, 7F)
   708 basis functions,  1332 primitive gaussians,   708 cartesian basis functions
   157 alpha electrons      157 beta electrons
       nuclear repulsion energy      5196.4700248985 Hartrees.
 NAtoms=   81 NActive=   81 NUniq=   81 SFac= 1.00D+00 NAtFMM=   60 NAOKFM=T Big=T
 Integral buffers will be    131072 words long.
 Raffenetti 2 integral format.
 Two-electron integral symmetry is turned off.
 Nuclear repulsion after empirical dispersion term =     5196.3608212753 Hartrees.
 One-electron integrals computed using PRISM.
 NBasis=   708 RedAO= T EigKep=  3.73D-04  NBF=   708
 NBsUse=   708 1.00D-06 EigRej= -1.00D+00 NBFU=   708
 Initial guess from the checkpoint file:  "conf-365.chk"
 B after Tr=     0.000000    0.000000    0.000000
         Rot=    1.000000    0.000000    0.000000    0.000000 Ang=   0.00 deg.
 Requested convergence on RMS density matrix=1.00D-08 within 128 cycles.
 Requested convergence on MAX density matrix=1.00D-06.
 Requested convergence on             energy=1.00D-06.
 No special actions if energy rises.
 SCF Done:  E(RB3LYP) =  -2054.05242374     A.U. after    1 cycles
            NFock=  1  Conv=0.35D-08     -V/T= 2.0093

 **********************************************************************

            Population analysis using the SCF Density.

 **********************************************************************

 Alpha  occ. eigenvalues --  -19.29057 -19.24367 -19.23374 -19.21563 -19.19893
 Alpha  occ. eigenvalues --  -19.16446 -19.16093 -19.16009 -14.57262 -14.48061
 Alpha  occ. eigenvalues --  -14.47593 -14.46736 -14.45203 -14.44570 -14.44112
 Alpha  occ. eigenvalues --  -14.40310 -10.42384 -10.41882 -10.41610 -10.38829
 Alpha  occ. eigenvalues --  -10.37099 -10.33997 -10.33636 -10.33113 -10.32687
 Alpha  occ. eigenvalues --  -10.32121 -10.31446 -10.31210 -10.30501 -10.29667
 Alpha  occ. eigenvalues --  -10.29470 -10.28976 -10.28740 -10.28680 -10.28536
 Alpha  occ. eigenvalues --  -10.28055 -10.27871 -10.27048 -10.26217 -10.26162
 Alpha  occ. eigenvalues --  -10.24862 -10.24115  -1.19889  -1.17000  -1.12015
 Alpha  occ. eigenvalues --   -1.11510  -1.11158  -1.11093  -1.09433  -1.09000
 Alpha  occ. eigenvalues --   -1.07760  -1.06650  -1.04493  -1.01309  -1.00663
 Alpha  occ. eigenvalues --   -0.99982  -0.99094  -0.96826  -0.93908  -0.93515
 Alpha  occ. eigenvalues --   -0.89479  -0.87189  -0.86405  -0.85175  -0.83770
 Alpha  occ. eigenvalues --   -0.83082  -0.81017  -0.80717  -0.77518  -0.77297
 Alpha  occ. eigenvalues --   -0.74871  -0.74082  -0.72725  -0.72169  -0.71589
 Alpha  occ. eigenvalues --   -0.70733  -0.70229  -0.70113  -0.68573  -0.68373
 Alpha  occ. eigenvalues --   -0.67789  -0.67526  -0.66929  -0.65323  -0.64742
 Alpha  occ. eigenvalues --   -0.63828  -0.63015  -0.62530  -0.62194  -0.60969
 Alpha  occ. eigenvalues --   -0.60048  -0.59219  -0.58670  -0.58162  -0.57909
 Alpha  occ. eigenvalues --   -0.57738  -0.57651  -0.56663  -0.56438  -0.56100
 Alpha  occ. eigenvalues --   -0.55867  -0.55333  -0.55103  -0.54503  -0.54289
 Alpha  occ. eigenvalues --   -0.54165  -0.52942  -0.52571  -0.52007  -0.51910
 Alpha  occ. eigenvalues --   -0.51369  -0.50949  -0.50566  -0.50102  -0.49631
 Alpha  occ. eigenvalues --   -0.49520  -0.49282  -0.48860  -0.48643  -0.48191
 Alpha  occ. eigenvalues --   -0.48013  -0.47776  -0.47570  -0.47123  -0.46667
 Alpha  occ. eigenvalues --   -0.46472  -0.46212  -0.45697  -0.45393  -0.44439
 Alpha  occ. eigenvalues --   -0.44001  -0.43921  -0.43326  -0.43185  -0.42389
 Alpha  occ. eigenvalues --   -0.42222  -0.41300  -0.41213  -0.40676  -0.40270
 Alpha  occ. eigenvalues --   -0.39328  -0.39163  -0.38080  -0.37702  -0.36944
 Alpha  occ. eigenvalues --   -0.36587  -0.35334  -0.34975  -0.34011  -0.33800
 Alpha  occ. eigenvalues --   -0.32168  -0.31990  -0.31340  -0.30441  -0.30026
 Alpha  occ. eigenvalues --   -0.29058  -0.28854
 Alpha virt. eigenvalues --   -0.11346  -0.10996  -0.08370  -0.08140  -0.07393
 Alpha virt. eigenvalues --   -0.07376  -0.06479  -0.03714  -0.03416  -0.02868
 Alpha virt. eigenvalues --   -0.02005  -0.01558  -0.01063  -0.00942  -0.00198
 Alpha virt. eigenvalues --   -0.00072   0.00173   0.00573   0.01115   0.01494
 Alpha virt. eigenvalues --    0.02181   0.02588   0.02932   0.03384   0.03725
 Alpha virt. eigenvalues --    0.04296   0.04415   0.04699   0.05915   0.05990
 Alpha virt. eigenvalues --    0.06291   0.06779   0.06898   0.07179   0.07768
 Alpha virt. eigenvalues --    0.08316   0.08499   0.08636   0.08782   0.09040
 Alpha virt. eigenvalues --    0.09263   0.09811   0.10024   0.10301   0.10666
 Alpha virt. eigenvalues --    0.11089   0.11366   0.12055   0.12085   0.12212
 Alpha virt. eigenvalues --    0.12552   0.12714   0.13246   0.13421   0.13807
 Alpha virt. eigenvalues --    0.14973   0.15154   0.15713   0.16164   0.16261
 Alpha virt. eigenvalues --    0.16549   0.17004   0.17366   0.18144   0.18323
 Alpha virt. eigenvalues --    0.18864   0.19363   0.20086   0.20286   0.21429
 Alpha virt. eigenvalues --    0.21521   0.23141   0.23356   0.23635   0.24194
 Alpha virt. eigenvalues --    0.25269   0.25584   0.25969   0.26107   0.27329
 Alpha virt. eigenvalues --    0.28437   0.29942   0.30369   0.30626   0.31571
 Alpha virt. eigenvalues --    0.33475   0.34214   0.34923   0.35684   0.36708
 Alpha virt. eigenvalues --    0.37308   0.38158   0.39742   0.40902   0.41485
 Alpha virt. eigenvalues --    0.41927   0.42234   0.43043   0.43373   0.43849
 Alpha virt. eigenvalues --    0.44211   0.44322   0.45059   0.45255   0.45563
 Alpha virt. eigenvalues --    0.45972   0.46462   0.46617   0.46930   0.47221
 Alpha virt. eigenvalues --    0.47377   0.47739   0.48174   0.48764   0.49359
 Alpha virt. eigenvalues --    0.49913   0.49985   0.50209   0.50796   0.51125
 Alpha virt. eigenvalues --    0.51773   0.52074   0.52303   0.52564   0.53196
 Alpha virt. eigenvalues --    0.53234   0.53285   0.54486   0.54667   0.54959
 Alpha virt. eigenvalues --    0.55601   0.56197   0.56322   0.56609   0.57032
 Alpha virt. eigenvalues --    0.57224   0.57590   0.58021   0.58207   0.58948
 Alpha virt. eigenvalues --    0.59478   0.59783   0.60277   0.60841   0.61118
 Alpha virt. eigenvalues --    0.61406   0.61767   0.62172   0.63057   0.63241
 Alpha virt. eigenvalues --    0.64047   0.64915   0.65596   0.66140   0.66260
 Alpha virt. eigenvalues --    0.66515   0.67223   0.67777   0.68212   0.68560
 Alpha virt. eigenvalues --    0.68906   0.69408   0.69629   0.70146   0.70635
 Alpha virt. eigenvalues --    0.71233   0.71822   0.71974   0.72601   0.72922
 Alpha virt. eigenvalues --    0.73083   0.73705   0.73849   0.74296   0.74822
 Alpha virt. eigenvalues --    0.75368   0.75796   0.76103   0.76253   0.76632
 Alpha virt. eigenvalues --    0.76851   0.76982   0.77226   0.77698   0.78043
 Alpha virt. eigenvalues --    0.78291   0.78646   0.78819   0.79082   0.79886
 Alpha virt. eigenvalues --    0.79951   0.80115   0.80558   0.81038   0.81426
 Alpha virt. eigenvalues --    0.81852   0.81980   0.82453   0.82633   0.82738
 Alpha virt. eigenvalues --    0.83007   0.84020   0.84521   0.84761   0.84892
 Alpha virt. eigenvalues --    0.84967   0.85338   0.85585   0.86123   0.86457
 Alpha virt. eigenvalues --    0.87224   0.87583   0.87699   0.88191   0.88837
 Alpha virt. eigenvalues --    0.89277   0.90720   0.91126   0.91411   0.91684
 Alpha virt. eigenvalues --    0.92563   0.92842   0.93321   0.94208   0.94747
 Alpha virt. eigenvalues --    0.95292   0.95978   0.96697   0.96923   0.97126
 Alpha virt. eigenvalues --    0.98073   0.98440   0.98689   0.99391   1.00456
 Alpha virt. eigenvalues --    1.00770   1.01230   1.01663   1.02623   1.03663
 Alpha virt. eigenvalues --    1.03975   1.05057   1.05745   1.06479   1.07031
 Alpha virt. eigenvalues --    1.07408   1.07856   1.08555   1.09238   1.09728
 Alpha virt. eigenvalues --    1.10953   1.11617   1.12290   1.12593   1.13104
 Alpha virt. eigenvalues --    1.13770   1.14745   1.16305   1.16493   1.18438
 Alpha virt. eigenvalues --    1.18846   1.19435   1.20128   1.20296   1.22006
 Alpha virt. eigenvalues --    1.22558   1.23127   1.23975   1.24583   1.25085
 Alpha virt. eigenvalues --    1.25817   1.26755   1.27221   1.27899   1.28702
 Alpha virt. eigenvalues --    1.29522   1.30899   1.31152   1.31499   1.31890
 Alpha virt. eigenvalues --    1.32447   1.33153   1.33724   1.36316   1.36937
 Alpha virt. eigenvalues --    1.37583   1.38595   1.39348   1.39514   1.40384
 Alpha virt. eigenvalues --    1.40751   1.41067   1.41434   1.41753   1.42144
 Alpha virt. eigenvalues --    1.42582   1.43618   1.44078   1.45365   1.45517
 Alpha virt. eigenvalues --    1.46326   1.46698   1.47669   1.48621   1.49522
 Alpha virt. eigenvalues --    1.50193   1.50401   1.52614   1.53838   1.54611
 Alpha virt. eigenvalues --    1.54813   1.55983   1.56601   1.57944   1.58827
 Alpha virt. eigenvalues --    1.59369   1.60075   1.60724   1.60935   1.61505
 Alpha virt. eigenvalues --    1.62382   1.64207   1.64525   1.65290   1.65431
 Alpha virt. eigenvalues --    1.66561   1.67389   1.67425   1.67786   1.68650
 Alpha virt. eigenvalues --    1.69315   1.69684   1.70159   1.70512   1.71398
 Alpha virt. eigenvalues --    1.71592   1.71891   1.73157   1.73572   1.74070
 Alpha virt. eigenvalues --    1.74535   1.74803   1.75608   1.76277   1.76697
 Alpha virt. eigenvalues --    1.77029   1.77525   1.78018   1.79374   1.79773
 Alpha virt. eigenvalues --    1.79889   1.80150   1.80407   1.80700   1.81243
 Alpha virt. eigenvalues --    1.82044   1.82683   1.82891   1.83331   1.83444
 Alpha virt. eigenvalues --    1.84101   1.84227   1.84828   1.85048   1.86022
 Alpha virt. eigenvalues --    1.86220   1.87009   1.87932   1.88487   1.88767
 Alpha virt. eigenvalues --    1.89283   1.89993   1.90637   1.90868   1.91307
 Alpha virt. eigenvalues --    1.92126   1.92481   1.92600   1.94071   1.94182
 Alpha virt. eigenvalues --    1.95584   1.95909   1.96550   1.97435   1.97734
 Alpha virt. eigenvalues --    1.98315   1.98510   1.98844   1.99550   2.00362
 Alpha virt. eigenvalues --    2.01326   2.02118   2.02402   2.03424   2.04333
 Alpha virt. eigenvalues --    2.04572   2.04841   2.06532   2.06823   2.07457
 Alpha virt. eigenvalues --    2.08113   2.08712   2.09689   2.10511   2.11289
 Alpha virt. eigenvalues --    2.11868   2.12300   2.13615   2.14261   2.14348
 Alpha virt. eigenvalues --    2.15349   2.16269   2.16795   2.17274   2.17856
 Alpha virt. eigenvalues --    2.18553   2.19044   2.19499   2.19814   2.21311
 Alpha virt. eigenvalues --    2.21358   2.23193   2.24273   2.25311   2.26243
 Alpha virt. eigenvalues --    2.26825   2.27262   2.27680   2.28734   2.30129
 Alpha virt. eigenvalues --    2.30493   2.31198   2.32431   2.32622   2.33106
 Alpha virt. eigenvalues --    2.34796   2.35920   2.36398   2.36727   2.37674
 Alpha virt. eigenvalues --    2.38132   2.39269   2.40211   2.40408   2.41593
 Alpha virt. eigenvalues --    2.42524   2.43047   2.43870   2.44704   2.45749
 Alpha virt. eigenvalues --    2.46681   2.48884   2.49185   2.50321   2.50886
 Alpha virt. eigenvalues --    2.51025   2.51460   2.52074   2.53704   2.54756
 Alpha virt. eigenvalues --    2.55224   2.56046   2.56629   2.56897   2.58302
 Alpha virt. eigenvalues --    2.58643   2.59477   2.59933   2.61236   2.62546
 Alpha virt. eigenvalues --    2.63135   2.63401   2.64049   2.64634   2.66597
 Alpha virt. eigenvalues --    2.67318   2.67829   2.68997   2.70002   2.71458
 Alpha virt. eigenvalues --    2.72427   2.73913   2.75422   2.76260   2.76718
 Alpha virt. eigenvalues --    2.77813   2.79414   2.82385   2.83927   2.84615
 Alpha virt. eigenvalues --    2.85656   2.87949   2.89119   2.89498   2.90799
 Alpha virt. eigenvalues --    2.93259   2.93314   2.94816   2.97237   2.98580
 Alpha virt. eigenvalues --    2.99689   3.01271   3.05457   3.05867   3.08490
 Alpha virt. eigenvalues --    3.10934   3.16584   3.18584   3.33840   3.69921
 Alpha virt. eigenvalues --    3.73307   3.75868   3.75984   3.79705   3.92435
 Alpha virt. eigenvalues --    3.94859   3.96251   3.96966   3.97521   4.00023
 Alpha virt. eigenvalues --    4.02907   4.05229   4.07487   4.09301   4.10965
 Alpha virt. eigenvalues --    4.11604   4.11904   4.16150   4.17199   4.18592
 Alpha virt. eigenvalues --    4.19911   4.22001   4.23096   4.23808   4.24918
 Alpha virt. eigenvalues --    4.27118   4.29193   4.33420   4.34271   4.36187
 Alpha virt. eigenvalues --    4.37931   4.39821   4.42387   4.47704   4.48816
 Alpha virt. eigenvalues --    4.50084   4.52859   4.60951   4.62975   4.68445
 Alpha virt. eigenvalues --    4.72895
          Condensed to atoms (all electrons):
 Mulliken charges:
               1
     1  N   -0.767926
     2  H    0.421052
     3  H    0.421565
     4  H    0.400060
     5  C   -0.104799
     6  H    0.195862
     7  C    0.668480
     8  C   -0.301624
     9  H    0.189742
    10  H    0.216974
    11  O   -0.540780
    12  C   -0.362253
    13  H    0.165779
    14  H    0.196356
    15  C    0.578052
    16  O   -0.427503
    17  O   -0.557652
    18  N   -0.595506
    19  H    0.355863
    20  C   -0.069432
    21  H    0.188269
    22  C    0.627174
    23  C   -0.374070
    24  H    0.211894
    25  H    0.167188
    26  O   -0.530138
    27  C    0.054341
    28  C    0.032685
    29  H    0.215156
    30  C    0.068548
    31  C    0.327998
    32  C   -0.233274
    33  H    0.142470
    34  N   -0.686526
    35  H    0.341798
    36  C   -0.195015
    37  H    0.152490
    38  C   -0.166871
    39  H    0.151486
    40  C   -0.212660
    41  H    0.147459
    42  N   -0.623097
    43  H    0.355330
    44  C   -0.074097
    45  H    0.207870
    46  C    0.641535
    47  C    0.126877
    48  H    0.166897
    49  O   -0.544841
    50  C   -0.464005
    51  H    0.163313
    52  H    0.147313
    53  H    0.153477
    54  O   -0.650928
    55  H    0.403251
    56  N   -0.633662
    57  H    0.342023
    58  C   -0.033503
    59  H    0.170476
    60  C    0.596553
    61  C   -0.288803
    62  H    0.136619
    63  H    0.193988
    64  O   -0.623891
    65  C   -0.303967
    66  H    0.170003
    67  H    0.170655
    68  C   -0.153510
    69  H    0.168955
    70  H    0.156118
    71  N   -0.604538
    72  H    0.416556
    73  N   -0.758222
    74  H    0.366715
    75  H    0.374226
    76  N   -0.780965
    77  H    0.408914
    78  H    0.350982
    79  C    0.767816
    80  O   -0.561459
    81  H    0.430311
 Sum of Mulliken charges =   1.00000
 Mulliken charges with hydrogens summed into heavy atoms:
               1
     1  N    0.474752
     5  C    0.091063
     7  C    0.668480
     8  C    0.105092
    11  O   -0.540780
    12  C   -0.000118
    15  C    0.578052
    16  O   -0.427503
    17  O   -0.127341
    18  N   -0.239643
    20  C    0.118838
    22  C    0.627174
    23  C    0.005013
    26  O   -0.530138
    27  C    0.054341
    28  C    0.247840
    30  C    0.068548
    31  C    0.327998
    32  C   -0.090804
    34  N   -0.344728
    36  C   -0.042525
    38  C   -0.015385
    40  C   -0.065201
    42  N   -0.267767
    44  C    0.133774
    46  C    0.641535
    47  C    0.293775
    49  O   -0.544841
    50  C    0.000098
    54  O   -0.247677
    56  N   -0.291640
    58  C    0.136973
    60  C    0.596553
    61  C    0.041804
    64  O   -0.623891
    65  C    0.036691
    68  C    0.171563
    71  N   -0.187982
    73  N   -0.017281
    76  N   -0.021069
    79  C    0.767816
    80  O   -0.561459
 Electronic spatial extent (au):  <R**2>=          36742.7371
 Charge=              1.0000 electrons
 Dipole moment (field-independent basis, Debye):
    X=            -18.6386    Y=             -3.6876    Z=             -5.1521  Tot=             19.6860
 Quadrupole moment (field-independent basis, Debye-Ang):
   XX=           -124.8111   YY=           -221.8411   ZZ=            -40.1807
   XY=            -32.7483   XZ=            -32.2250   YZ=             47.6373
 Traceless Quadrupole moment (field-independent basis, Debye-Ang):
   XX=              4.1332   YY=            -92.8968   ZZ=             88.7636
   XY=            -32.7483   XZ=            -32.2250   YZ=             47.6373
 Octapole moment (field-independent basis, Debye-Ang**2):
  XXX=            605.3378  YYY=           -190.1834  ZZZ=           -843.0374  XYY=            461.9916
  XXY=             96.4150  XXZ=            191.6979  XZZ=            256.0998  YZZ=           -349.4814
  YYZ=             85.5150  XYZ=           -115.3004
 Hexadecapole moment (field-independent basis, Debye-Ang**3):
 XXXX=         -13891.2732 YYYY=          -3187.8002 ZZZZ=         -11488.2891 XXXY=           1162.3581
 XXXZ=           3560.5164 YYYX=           2289.3403 YYYZ=           -568.2462 ZZZX=           4612.5948
 ZZZY=           2105.6692 XXYY=          -3464.1737 XXZZ=          -6308.9896 YYZZ=          -3879.2141
 XXYZ=            407.8228 YYXZ=           1130.4751 ZZXY=            594.1875
 N-N= 5.196360821275D+03 E-N=-1.515469840215D+04  KE= 2.035156254686D+03
 Unable to Open any file for archive entry.
 1\1\GINC-LAC-257\SP\RB3LYP\6-31G(d)\C26H39N8O8(1+)\KENGMITH\13-May-202
 2\0\\# B3LYP/6-31G* empiricaldispersion=gd3 guess=read geom=check nosy
 mm integral(ultrafinegrid)\\Candidate Structure: Conf:365 Charge calc 
 in gas phase\\1,1\N,0,-5.9888788286,0.8505678897,3.0690565269\H,0,-6.1
 981126474,1.7362549567,2.5611515342\H,0,-6.0637768471,0.0591226937,2.3
 8869241\H,0,-6.6522526543,0.7383514808,3.8388255463\C,0,-4.5429276096,
 0.8056629475,3.5039942931\H,0,-4.2233782075,1.837172454,3.6675139374\C
 ,0,-3.852447534,0.1682474204,2.2741725186\C,0,-4.3604505315,-0.0564553
 569,4.7560622207\H,0,-4.761968698,-1.0581732472,4.5570243535\H,0,-3.28
 55464363,-0.1796792489,4.9197505924\O,0,-4.5146604583,-0.6370845787,1.
 6108054719\C,0,-4.9947479505,0.5496636813,6.0200128471\H,0,-6.07553018
 52,0.6969275709,5.9242008938\H,0,-4.5377853522,1.5247555619,6.22994340
 04\C,0,-4.8025316711,-0.3414729623,7.2367208729\O,0,-5.6944407171,-0.7
 79816341,7.9205722222\O,0,-3.4893185555,-0.5854967015,7.450537473\N,0,
 -2.596255681,0.5435071721,2.0308018995\H,0,-2.1277131297,1.2354060236,
 2.6080266029\C,0,-1.8956818389,0.225748426,0.7867049327\H,0,-2.2875849
 588,-0.7219720132,0.4120643693\C,0,-0.396043583,0.1957515456,1.0798807
 787\C,0,-2.1301131487,1.3529116825,-0.2708158516\H,0,-1.5611337648,1.0
 980555742,-1.1684527226\H,0,-1.7117790199,2.2776841779,0.1428182634\O,
 0,0.1009665797,1.1027476862,1.7432204311\C,0,-3.5750639365,1.506140921
 ,-0.6219274135\C,0,-4.2271028521,0.8293607751,-1.6235122575\H,0,-3.793
 2298867,0.2035705464,-2.3937214823\C,0,-4.5784179139,2.2471979045,0.09
 42886184\C,0,-5.8392493066,1.9345049538,-0.5029656379\C,0,-4.546948995
 6,3.1508831223,1.169643641\H,0,-3.5970675207,3.4466771324,1.6078823328
 \N,0,-5.5844520117,1.0766859464,-1.5471026036\H,0,-6.2731590766,0.7284
 370249,-2.1965617237\C,0,-6.9854591679,3.3229824494,1.0719057993\H,0,-
 7.9021773685,3.7618900595,1.4549893\C,0,-7.0433227974,2.451516214,-0.0
 16898926\H,0,-7.9936579867,2.1986973584,-0.4787866436\C,0,-5.744451712
 8,3.681613615,1.6534544601\H,0,-5.726319294,4.4051715067,2.464249587\N
 ,0,0.29791688,-0.796122338,0.4705861579\H,0,-0.1997018566,-1.575888354
 7,0.0585839241\C,0,1.7162088333,-0.7045650531,0.1457921374\H,0,2.14802
 22867,0.0847947567,0.7644188694\C,0,1.9606874579,-0.3100208383,-1.3348
 464906\C,0,2.4230230706,-2.0344336626,0.4356183143\H,0,3.4416169704,-1
 .941165393,0.0361799732\O,0,3.1062493225,-0.0983408932,-1.7230615494\C
 ,0,2.4606539515,-2.3768079697,1.9215403356\H,0,3.0290140464,-1.6258582
 858,2.481042655\H,0,2.9438745686,-3.3485314493,2.0791731275\H,0,1.4459
 519654,-2.4256918947,2.3293466166\O,0,1.6777503573,-3.0073509486,-0.31
 17124458\H,0,2.0877764594,-3.8745922665,-0.1741935205\N,0,0.8589412842
 ,-0.242334655,-2.1080431259\H,0,-0.0586270761,-0.4788187831,-1.7524105
 58\C,0,0.8224021229,0.084239869,-3.5203141421\H,0,1.2786455741,1.06973
 66624,-3.6733997895\C,0,-0.691630484,0.1816523784,-3.8969959778\C,0,1.
 6117062382,-0.9662346847,-4.3676601548\H,0,0.939732643,-1.7879337427,-
 4.6486672789\H,0,2.3582771661,-1.3902116071,-3.694786972\O,0,-0.947522
 3785,0.6517463537,-5.052861664\C,0,2.358146364,-0.4185442097,-5.612807
 8636\H,0,2.3998441999,0.6773483169,-5.5797695672\H,0,3.4000085813,-0.7
 553435746,-5.5968324991\C,0,1.7681694515,-0.843471784,-6.9637679983\H,
 0,2.3693011289,-0.4298695762,-7.7837005312\H,0,1.7801460099,-1.9384073
 405,-7.054583332\N,0,0.388936683,-0.3616270291,-7.0493657064\H,0,0.062
 0901115,0.2499407773,-6.2611703998\N,0,-0.4065239397,-1.7563791062,-8.
 7490322191\H,0,-1.1031529816,-2.4375682102,-9.0122902032\H,0,0.5279065
 403,-1.8922651664,-9.1043811202\N,0,-1.869430547,-0.7399001223,-7.2446
 6118\H,0,-1.9595859755,-0.1831417844,-6.3799208652\H,0,-2.6470126366,-
 0.8078197022,-7.8850568552\C,0,-0.614015918,-0.9512342431,-7.680911253
 6\O,0,-1.530199474,-0.2072366333,-3.0565731762\H,0,-3.4249019344,-1.15
 49557671,8.24116915\\Version=ES64L-G16RevC.01\HF=-2054.0524237\RMSD=3.
 544e-09\Dipole=-3.7768265,-1.7007884,-1.2417097\Quadrupole=3.0729289,-
 69.0665068,65.9935779,-24.3475933,-23.9584956,35.4171881\PG=C01 [X(C26
 H39N8O8)]\\@
 The archive entry for this job was punched.


 THE MOST INCOMPREHENSIBLE THING ABOUT THE WORLD
 IS THAT IT IS COMPREHENSIBLE. -- A. EINSTEIN
 Job cpu time:       0 days  0 hours  2 minutes 10.1 seconds.
 Elapsed time:       0 days  0 hours  0 minutes 33.1 seconds.
 File lengths (MBytes):  RWF=    376 Int=      0 D2E=      0 Chk=     56 Scr=     16
 Normal termination of Gaussian 16 at Fri May 13 15:51:47 2022.
