 Entering Gaussian System, Link 0=/opt/software/Gaussian/g16-AVX2-C.01/g16/g16
 Input=charge-conf-197.com
 Output=charge-conf-197.log
 Initial command:
 /opt/software/Gaussian/g16-AVX2-C.01/g16/l1.exe "/mnt/gs18/scratch/users/kengmith/Gau-15240.inp" -scrdir="/mnt/gs18/scratch/users/kengmith/"
 Entering Link 1 = /opt/software/Gaussian/g16-AVX2-C.01/g16/l1.exe PID=     15250.
  
 Copyright (c) 1988-2019, Gaussian, Inc.  All Rights Reserved.
  
 This is part of the Gaussian(R) 16 program.  It is based on
 the Gaussian(R) 09 system (copyright 2009, Gaussian, Inc.),
 the Gaussian(R) 03 system (copyright 2003, Gaussian, Inc.),
 the Gaussian(R) 98 system (copyright 1998, Gaussian, Inc.),
 the Gaussian(R) 94 system (copyright 1995, Gaussian, Inc.),
 the Gaussian 92(TM) system (copyright 1992, Gaussian, Inc.),
 the Gaussian 90(TM) system (copyright 1990, Gaussian, Inc.),
 the Gaussian 88(TM) system (copyright 1988, Gaussian, Inc.),
 the Gaussian 86(TM) system (copyright 1986, Carnegie Mellon
 University), and the Gaussian 82(TM) system (copyright 1983,
 Carnegie Mellon University). Gaussian is a federally registered
 trademark of Gaussian, Inc.
  
 This software contains proprietary and confidential information,
 including trade secrets, belonging to Gaussian, Inc.
  
 This software is provided under written license and may be
 used, copied, transmitted, or stored only in accord with that
 written license.
  
 The following legend is applicable only to US Government
 contracts under FAR:
  
                    RESTRICTED RIGHTS LEGEND
  
 Use, reproduction and disclosure by the US Government is
 subject to restrictions as set forth in subparagraphs (a)
 and (c) of the Commercial Computer Software - Restricted
 Rights clause in FAR 52.227-19.
  
 Gaussian, Inc.
 340 Quinnipiac St., Bldg. 40, Wallingford CT 06492
  
  
 ---------------------------------------------------------------
 Warning -- This program may not be used in any manner that
 competes with the business of Gaussian, Inc. or will provide
 assistance to any competitor of Gaussian, Inc.  The licensee
 of this program is prohibited from giving any competitor of
 Gaussian, Inc. access to this program.  By using this program,
 the user acknowledges that Gaussian, Inc. is engaged in the
 business of creating and licensing software in the field of
 computational chemistry and represents and warrants to the
 licensee that it is not a competitor of Gaussian, Inc. and that
 it will not use this program in any manner prohibited above.
 ---------------------------------------------------------------
  

 Cite this work as:
 Gaussian 16, Revision C.01,
 M. J. Frisch, G. W. Trucks, H. B. Schlegel, G. E. Scuseria, 
 M. A. Robb, J. R. Cheeseman, G. Scalmani, V. Barone, 
 G. A. Petersson, H. Nakatsuji, X. Li, M. Caricato, A. V. Marenich, 
 J. Bloino, B. G. Janesko, R. Gomperts, B. Mennucci, H. P. Hratchian, 
 J. V. Ortiz, A. F. Izmaylov, J. L. Sonnenberg, D. Williams-Young, 
 F. Ding, F. Lipparini, F. Egidi, J. Goings, B. Peng, A. Petrone, 
 T. Henderson, D. Ranasinghe, V. G. Zakrzewski, J. Gao, N. Rega, 
 G. Zheng, W. Liang, M. Hada, M. Ehara, K. Toyota, R. Fukuda, 
 J. Hasegawa, M. Ishida, T. Nakajima, Y. Honda, O. Kitao, H. Nakai, 
 T. Vreven, K. Throssell, J. A. Montgomery, Jr., J. E. Peralta, 
 F. Ogliaro, M. J. Bearpark, J. J. Heyd, E. N. Brothers, K. N. Kudin, 
 V. N. Staroverov, T. A. Keith, R. Kobayashi, J. Normand, 
 K. Raghavachari, A. P. Rendell, J. C. Burant, S. S. Iyengar, 
 J. Tomasi, M. Cossi, J. M. Millam, M. Klene, C. Adamo, R. Cammi, 
 J. W. Ochterski, R. L. Martin, K. Morokuma, O. Farkas, 
 J. B. Foresman, and D. J. Fox, Gaussian, Inc., Wallingford CT, 2019.
 
 ******************************************
 Gaussian 16:  ES64L-G16RevC.01  3-Jul-2019
                13-May-2022 
 ******************************************
 %mem=8gb
 %nproc=4
 Will use up to    4 processors via shared memory.
 %chk=conf-197.chk
 ----------------------------------------------------------------------
 # B3LYP/6-31G* empiricaldispersion=gd3 guess=read geom=check nosymm in
 tegral(ultrafinegrid)
 ----------------------------------------------------------------------
 1/29=2,38=1,172=1/1;
 2/12=2,15=1,40=1/2;
 3/5=1,6=6,7=1,11=2,14=-4,25=1,30=1,74=-5,75=-5,116=-2,124=31/1,2,3;
 4/5=1/1;
 5/5=2,38=6/2;
 6/7=2,8=2,9=2,10=2,28=1/1;
 99/5=1,9=1/99;
 ------------------------------------------------------
 Candidate Structure: Conf:197 Charge calc in gas phase
 ------------------------------------------------------
 Structure from the checkpoint file:  "conf-197.chk"
 Charge =  1 Multiplicity = 1
 Redundant internal coordinates found in file.  (old form).
 N,0,-5.3922812942,1.9847136862,2.6528695763
 H,0,-5.5641633694,1.241214889,1.8992492888
 H,0,-5.904695962,1.7246581797,3.498665323
 H,0,-5.6931324964,2.9079878764,2.3230233464
 C,0,-3.8868482661,1.8949988104,2.7925739642
 H,0,-3.4808140749,2.863108567,2.5048465447
 C,0,-3.5120918824,0.8733025492,1.6921554788
 C,0,-3.4383090698,1.5285768996,4.2077059669
 H,0,-3.8979033645,0.5782507886,4.50876338
 H,0,-2.3595552453,1.3465654069,4.1684510247
 O,0,-4.4295082219,0.2498052606,1.1313627487
 C,0,-3.715651986,2.6083754774,5.2617744214
 H,0,-3.4644988096,2.2335198227,6.259200567
 H,0,-4.7803104219,2.8791248427,5.3194134443
 C,0,-2.9365001719,3.8921484917,5.0209574562
 O,0,-2.4175075623,4.204751594,3.9679616382
 O,0,-2.9070209639,4.6520517934,6.1248692665
 N,0,-2.2234660192,0.8247996649,1.3920086669
 H,0,-1.5286760424,1.3470152857,1.928989787
 C,0,-1.6247321278,0.1545624643,0.2474526092
 H,0,-2.1268493905,-0.8057737187,0.0988771077
 C,0,-0.1393557401,0.0057653699,0.6248266491
 C,0,-1.6896211324,1.0328049719,-1.0561941096
 H,0,-1.410623598,0.3860111327,-1.8955010989
 H,0,-0.9113393177,1.7999710591,-0.9642784615
 O,0,0.3025598763,0.6556016511,1.5812012204
 C,0,-3.0232345977,1.6754327963,-1.2875807947
 C,0,-4.0969160969,1.1660231872,-1.9795157646
 H,0,-4.1667203444,0.2648744154,-2.5737036421
 C,0,-3.5024920445,2.8693954083,-0.6245279282
 C,0,-4.8866646284,2.9995520042,-0.9349253293
 C,0,-2.891137239,3.8200880008,0.2206285315
 H,0,-1.8264705015,3.7590533347,0.4436217892
 N,0,-5.2109984743,1.9579695364,-1.7784098755
 H,0,-6.1226363876,1.7860045568,-2.1746211895
 C,0,-5.0571508364,4.9273252211,0.467840672
 H,0,-5.6382908864,5.744339104,0.8872507886
 C,0,-5.6779472554,4.0210060868,-0.3931153047
 H,0,-6.7317855872,4.1134593131,-0.6428113868
 C,0,-3.6755753118,4.8359320761,0.7590780454
 H,0,-3.2173507528,5.5634382899,1.4216734208
 N,0,0.6318583616,-0.7129633738,-0.2022818358
 H,0,0.205748262,-1.3833615106,-0.8286704731
 C,0,2.090979938,-0.7970059693,-0.0314940042
 H,0,2.2897055541,-0.7522557399,1.0447460641
 C,0,2.7732096393,0.4141919453,-0.7438085493
 C,0,2.6036634684,-2.127082294,-0.6038081278
 H,0,2.6306891716,-2.0368709349,-1.6993495366
 O,0,3.6201331072,0.2325651384,-1.6165919453
 C,0,4.0022455186,-2.4569494897,-0.093777844
 H,0,4.7074393344,-1.6791609769,-0.3952204438
 H,0,4.3455633854,-3.4082306599,-0.5183550012
 H,0,3.9975706552,-2.5502549037,0.9978458629
 O,0,1.6417395014,-3.1192008303,-0.215130385
 H,0,1.9764215375,-3.9774825024,-0.517588635
 N,0,2.3330825595,1.6217567032,-0.3282997914
 H,0,1.6294146418,1.6500016115,0.4015136558
 C,0,2.6083706686,2.9054616248,-0.9765158704
 H,0,3.625785573,3.2350711289,-0.7442008876
 C,0,1.596289711,3.970726606,-0.4825280754
 C,0,2.4254972438,2.8106147766,-2.5092229533
 H,0,1.4019774103,2.4547648094,-2.6914239395
 H,0,3.0965328881,2.0373571061,-2.8860431523
 O,0,1.9863926821,5.1368335782,-0.3939261168
 C,0,2.6938592883,4.1275535652,-3.263874045
 H,0,3.4012979334,4.744620476,-2.6993588864
 H,0,3.1654823158,3.9041239911,-4.2296996071
 C,0,1.4725145515,5.0284688944,-3.5131186585
 H,0,1.1097342939,5.4631680503,-2.5820427596
 H,0,1.7590213026,5.8526336279,-4.1761386085
 N,0,0.3541899635,4.3231837237,-4.1646896754
 H,0,0.5528097287,3.8891551555,-5.0573815508
 N,0,-1.1365343401,4.3216336533,-2.3653418656
 H,0,-2.1105487096,4.2560488863,-2.1031643516
 H,0,-0.4649245154,4.1648361306,-1.5565788398
 N,0,-1.8028587017,3.5324047091,-4.4402268136
 H,0,-1.8123999031,3.7090342613,-5.4339133403
 H,0,-2.6365628329,3.1474084582,-4.018397538
 C,0,-0.8427929695,4.0618008015,-3.6326675087
 O,0,0.3798076292,3.5431944395,-0.372931711
 H,0,-2.3996039087,5.4611109955,5.918984996
 Recover connectivity data from disk.
                           ----------------------------
                           !    Current Parameters    !
                           ! (Angstroms and Degrees)  !
 --------------------------                            --------------------------
 ! Name  Definition              Value                                          !
 --------------------------------------------------------------------------------
 ! R1    R(1,2)                  1.0725                                         !
 ! R2    R(1,3)                  1.0225                                         !
 ! R3    R(1,4)                  1.0255                                         !
 ! R4    R(1,5)                  1.5146                                         !
 ! R5    R(5,6)                  1.0885                                         !
 ! R6    R(5,7)                  1.5477                                         !
 ! R7    R(5,8)                  1.5291                                         !
 ! R8    R(7,11)                 1.2429                                         !
 ! R9    R(7,18)                 1.324                                          !
 ! R10   R(8,9)                  1.0977                                         !
 ! R11   R(8,10)                 1.0947                                         !
 ! R12   R(8,12)                 1.5343                                         !
 ! R13   R(12,13)                1.0947                                         !
 ! R14   R(12,14)                1.1001                                         !
 ! R15   R(12,15)                1.5209                                         !
 ! R16   R(15,16)                1.2149                                         !
 ! R17   R(15,17)                1.3405                                         !
 ! R18   R(17,81)                0.977                                          !
 ! R19   R(18,19)                1.0217                                         !
 ! R20   R(18,20)                1.4552                                         !
 ! R21   R(20,21)                1.0938                                         !
 ! R22   R(20,22)                1.5398                                         !
 ! R23   R(20,23)                1.5732                                         !
 ! R24   R(22,26)                1.2378                                         !
 ! R25   R(22,42)                1.3399                                         !
 ! R26   R(23,24)                1.0957                                         !
 ! R27   R(23,25)                1.0967                                         !
 ! R28   R(23,27)                1.4983                                         !
 ! R29   R(27,28)                1.3752                                         !
 ! R30   R(27,30)                1.4474                                         !
 ! R31   R(28,29)                1.0817                                         !
 ! R32   R(28,34)                1.3816                                         !
 ! R33   R(30,31)                1.4245                                         !
 ! R34   R(30,32)                1.4113                                         !
 ! R35   R(31,34)                1.379                                          !
 ! R36   R(31,38)                1.4011                                         !
 ! R37   R(32,33)                1.0895                                         !
 ! R38   R(32,40)                1.3918                                         !
 ! R39   R(34,35)                1.0088                                         !
 ! R40   R(36,37)                1.0868                                         !
 ! R41   R(36,38)                1.3957                                         !
 ! R42   R(36,40)                1.4149                                         !
 ! R43   R(38,39)                1.087                                          !
 ! R44   R(40,41)                1.0855                                         !
 ! R45   R(42,43)                1.0116                                         !
 ! R46   R(42,44)                1.4715                                         !
 ! R47   R(44,45)                1.0953                                         !
 ! R48   R(44,46)                1.562                                          !
 ! R49   R(44,47)                1.5361                                         !
 ! R50   R(46,49)                1.2296                                         !
 ! R51   R(46,56)                1.3508                                         !
 ! R52   R(47,48)                1.0996                                         !
 ! R53   R(47,50)                1.5248                                         !
 ! R54   R(47,54)                1.4355                                         !
 ! R55   R(50,51)                1.0923                                         !
 ! R56   R(50,52)                1.0968                                         !
 ! R57   R(50,53)                1.0956                                         !
 ! R58   R(54,55)                0.9696                                         !
 ! R59   R(56,57)                1.0142                                         !
 ! R60   R(56,58)                1.4642                                         !
 ! R61   R(58,59)                1.0944                                         !
 ! R62   R(58,60)                1.5502                                         !
 ! R63   R(58,61)                1.5465                                         !
 ! R64   R(60,64)                1.2328                                         !
 ! R65   R(60,80)                1.2941                                         !
 ! R66   R(61,62)                1.0988                                         !
 ! R67   R(61,63)                1.091                                          !
 ! R68   R(61,65)                1.5414                                         !
 ! R69   R(65,66)                1.0954                                         !
 ! R70   R(65,67)                1.0978                                         !
 ! R71   R(65,68)                1.538                                          !
 ! R72   R(68,69)                1.0897                                         !
 ! R73   R(68,70)                1.0959                                         !
 ! R74   R(68,71)                1.474                                          !
 ! R75   R(71,72)                1.0123                                         !
 ! R76   R(71,79)                1.3357                                         !
 ! R77   R(73,74)                1.0108                                         !
 ! R78   R(73,75)                1.0629                                         !
 ! R79   R(73,79)                1.3266                                         !
 ! R80   R(76,77)                1.0093                                         !
 ! R81   R(76,78)                1.0106                                         !
 ! R82   R(76,79)                1.3617                                         !
 ! A1    A(2,1,3)              108.9415                                         !
 ! A2    A(2,1,4)              110.5538                                         !
 ! A3    A(2,1,5)              100.5473                                         !
 ! A4    A(3,1,4)              110.3647                                         !
 ! A5    A(3,1,5)              114.0003                                         !
 ! A6    A(4,1,5)              111.9986                                         !
 ! A7    A(1,5,6)              107.0797                                         !
 ! A8    A(1,5,7)              102.3689                                         !
 ! A9    A(1,5,8)              113.0252                                         !
 ! A10   A(6,5,7)              107.9908                                         !
 ! A11   A(6,5,8)              110.3858                                         !
 ! A12   A(7,5,8)              115.3923                                         !
 ! A13   A(5,7,11)             118.2443                                         !
 ! A14   A(5,7,18)             114.9005                                         !
 ! A15   A(11,7,18)            126.7069                                         !
 ! A16   A(5,8,9)              109.7835                                         !
 ! A17   A(5,8,10)             107.2009                                         !
 ! A18   A(5,8,12)             114.4657                                         !
 ! A19   A(9,8,10)             106.1692                                         !
 ! A20   A(9,8,12)             110.1933                                         !
 ! A21   A(10,8,12)            108.6499                                         !
 ! A22   A(8,12,13)            110.0897                                         !
 ! A23   A(8,12,14)            112.592                                          !
 ! A24   A(8,12,15)            113.121                                          !
 ! A25   A(13,12,14)           104.9854                                         !
 ! A26   A(13,12,15)           108.4068                                         !
 ! A27   A(14,12,15)           107.239                                          !
 ! A28   A(12,15,16)           124.9804                                         !
 ! A29   A(12,15,17)           111.0615                                         !
 ! A30   A(16,15,17)           123.9539                                         !
 ! A31   A(15,17,81)           107.8987                                         !
 ! A32   A(7,18,19)            121.6016                                         !
 ! A33   A(7,18,20)            126.5561                                         !
 ! A34   A(19,18,20)           111.6542                                         !
 ! A35   A(18,20,21)           108.8038                                         !
 ! A36   A(18,20,22)           104.3974                                         !
 ! A37   A(18,20,23)           112.1888                                         !
 ! A38   A(21,20,22)           113.0342                                         !
 ! A39   A(21,20,23)           111.0161                                         !
 ! A40   A(22,20,23)           107.267                                          !
 ! A41   A(20,22,26)           118.8829                                         !
 ! A42   A(20,22,42)           117.1148                                         !
 ! A43   A(26,22,42)           123.5751                                         !
 ! A44   A(20,23,24)           107.1397                                         !
 ! A45   A(20,23,25)           106.9651                                         !
 ! A46   A(20,23,27)           113.8351                                         !
 ! A47   A(24,23,25)           107.2431                                         !
 ! A48   A(24,23,27)           111.1929                                         !
 ! A49   A(25,23,27)           110.1553                                         !
 ! A50   A(23,27,28)           127.8615                                         !
 ! A51   A(23,27,30)           125.2942                                         !
 ! A52   A(28,27,30)           106.1144                                         !
 ! A53   A(27,28,29)           129.45                                           !
 ! A54   A(27,28,34)           110.1215                                         !
 ! A55   A(29,28,34)           120.3627                                         !
 ! A56   A(27,30,31)           107.2955                                         !
 ! A57   A(27,30,32)           133.3596                                         !
 ! A58   A(31,30,32)           119.3306                                         !
 ! A59   A(30,31,34)           107.0262                                         !
 ! A60   A(30,31,38)           122.0812                                         !
 ! A61   A(34,31,38)           130.8725                                         !
 ! A62   A(30,32,33)           120.5401                                         !
 ! A63   A(30,32,40)           118.6313                                         !
 ! A64   A(33,32,40)           120.8284                                         !
 ! A65   A(28,34,31)           109.4111                                         !
 ! A66   A(28,34,35)           125.0183                                         !
 ! A67   A(31,34,35)           125.5601                                         !
 ! A68   A(37,36,38)           119.2336                                         !
 ! A69   A(37,36,40)           119.4232                                         !
 ! A70   A(38,36,40)           121.2878                                         !
 ! A71   A(31,38,36)           117.4355                                         !
 ! A72   A(31,38,39)           121.3813                                         !
 ! A73   A(36,38,39)           121.1784                                         !
 ! A74   A(32,40,36)           121.1876                                         !
 ! A75   A(32,40,41)           119.1693                                         !
 ! A76   A(36,40,41)           119.6403                                         !
 ! A77   A(22,42,43)           119.6857                                         !
 ! A78   A(22,42,44)           121.9861                                         !
 ! A79   A(43,42,44)           116.8525                                         !
 ! A80   A(42,44,45)           106.9543                                         !
 ! A81   A(42,44,46)           109.6262                                         !
 ! A82   A(42,44,47)           109.7046                                         !
 ! A83   A(45,44,46)           109.7035                                         !
 ! A84   A(45,44,47)           109.9322                                         !
 ! A85   A(46,44,47)           110.8392                                         !
 ! A86   A(44,46,49)           120.6622                                         !
 ! A87   A(44,46,56)           114.2436                                         !
 ! A88   A(49,46,56)           125.086                                          !
 ! A89   A(44,47,48)           107.9616                                         !
 ! A90   A(44,47,50)           111.644                                          !
 ! A91   A(44,47,54)           105.8973                                         !
 ! A92   A(48,47,50)           109.1758                                         !
 ! A93   A(48,47,54)           110.0559                                         !
 ! A94   A(50,47,54)           111.9964                                         !
 ! A95   A(47,50,51)           110.2314                                         !
 ! A96   A(47,50,52)           110.1968                                         !
 ! A97   A(47,50,53)           110.3519                                         !
 ! A98   A(51,50,52)           107.9787                                         !
 ! A99   A(51,50,53)           109.7771                                         !
 ! A100  A(52,50,53)           108.2494                                         !
 ! A101  A(47,54,55)           107.2186                                         !
 ! A102  A(46,56,57)           118.1855                                         !
 ! A103  A(46,56,58)           125.8977                                         !
 ! A104  A(57,56,58)           115.1259                                         !
 ! A105  A(56,58,59)           110.1731                                         !
 ! A106  A(56,58,60)           109.7945                                         !
 ! A107  A(56,58,61)           111.27                                           !
 ! A108  A(59,58,60)           109.4104                                         !
 ! A109  A(59,58,61)           109.8028                                         !
 ! A110  A(60,58,61)           106.3058                                         !
 ! A111  A(58,60,64)           117.7949                                         !
 ! A112  A(58,60,80)           114.4366                                         !
 ! A113  A(64,60,80)           127.1478                                         !
 ! A114  A(58,61,62)           107.1182                                         !
 ! A115  A(58,61,63)           108.2436                                         !
 ! A116  A(58,61,65)           114.3459                                         !
 ! A117  A(62,61,63)           106.6259                                         !
 ! A118  A(62,61,65)           110.9579                                         !
 ! A119  A(63,61,65)           109.2312                                         !
 ! A120  A(61,65,66)           109.9638                                         !
 ! A121  A(61,65,67)           109.3686                                         !
 ! A122  A(61,65,68)           116.2034                                         !
 ! A123  A(66,65,67)           106.8935                                         !
 ! A124  A(66,65,68)           105.4498                                         !
 ! A125  A(67,65,68)           108.5299                                         !
 ! A126  A(65,68,69)           111.0741                                         !
 ! A127  A(65,68,70)           109.3277                                         !
 ! A128  A(65,68,71)           113.1944                                         !
 ! A129  A(69,68,70)           107.6963                                         !
 ! A130  A(69,68,71)           108.4204                                         !
 ! A131  A(70,68,71)           106.9039                                         !
 ! A132  A(68,71,72)           116.4946                                         !
 ! A133  A(68,71,79)           126.689                                          !
 ! A134  A(72,71,79)           116.3065                                         !
 ! A135  A(74,73,75)           113.6993                                         !
 ! A136  A(74,73,79)           116.6432                                         !
 ! A137  A(75,73,79)           123.9243                                         !
 ! A138  A(77,76,78)           118.0235                                         !
 ! A139  A(77,76,79)           121.5011                                         !
 ! A140  A(78,76,79)           118.8314                                         !
 ! A141  A(71,79,73)           122.7245                                         !
 ! A142  A(71,79,76)           118.1443                                         !
 ! A143  A(73,79,76)           119.1168                                         !
 ! D1    D(2,1,5,6)            117.6997                                         !
 ! D2    D(2,1,5,7)              4.2358                                         !
 ! D3    D(2,1,5,8)           -120.5287                                         !
 ! D4    D(3,1,5,6)           -125.92                                           !
 ! D5    D(3,1,5,7)            120.6162                                         !
 ! D6    D(3,1,5,8)             -4.1483                                         !
 ! D7    D(4,1,5,6)              0.2877                                         !
 ! D8    D(4,1,5,7)           -113.1762                                         !
 ! D9    D(4,1,5,8)            122.0594                                         !
 ! D10   D(1,5,7,11)           -10.1861                                         !
 ! D11   D(1,5,7,18)           165.6857                                         !
 ! D12   D(6,5,7,11)          -122.9759                                         !
 ! D13   D(6,5,7,18)            52.8959                                         !
 ! D14   D(8,5,7,11)           112.9989                                         !
 ! D15   D(8,5,7,18)           -71.1292                                         !
 ! D16   D(1,5,8,9)             56.9762                                         !
 ! D17   D(1,5,8,10)           171.8834                                         !
 ! D18   D(1,5,8,12)           -67.5436                                         !
 ! D19   D(6,5,8,9)            176.8692                                         !
 ! D20   D(6,5,8,10)           -68.2236                                         !
 ! D21   D(6,5,8,12)            52.3494                                         !
 ! D22   D(7,5,8,9)            -60.3701                                         !
 ! D23   D(7,5,8,10)            54.537                                          !
 ! D24   D(7,5,8,12)           175.11                                           !
 ! D25   D(5,7,18,19)            6.7975                                         !
 ! D26   D(5,7,18,20)         -167.7921                                         !
 ! D27   D(11,7,18,19)        -177.7395                                         !
 ! D28   D(11,7,18,20)           7.6709                                         !
 ! D29   D(5,8,12,13)          174.1099                                         !
 ! D30   D(5,8,12,14)           57.341                                          !
 ! D31   D(5,8,12,15)          -64.4407                                         !
 ! D32   D(9,8,12,13)           49.8078                                         !
 ! D33   D(9,8,12,14)          -66.9612                                         !
 ! D34   D(9,8,12,15)          171.2571                                         !
 ! D35   D(10,8,12,13)         -66.1234                                         !
 ! D36   D(10,8,12,14)         177.1076                                         !
 ! D37   D(10,8,12,15)          55.3259                                         !
 ! D38   D(8,12,15,16)          17.9812                                         !
 ! D39   D(8,12,15,17)        -162.7517                                         !
 ! D40   D(13,12,15,16)        140.3739                                         !
 ! D41   D(13,12,15,17)        -40.359                                          !
 ! D42   D(14,12,15,16)       -106.7589                                         !
 ! D43   D(14,12,15,17)         72.5082                                         !
 ! D44   D(12,15,17,81)       -179.8775                                         !
 ! D45   D(16,15,17,81)         -0.6015                                         !
 ! D46   D(7,18,20,21)         -40.7782                                         !
 ! D47   D(7,18,20,22)        -161.7191                                         !
 ! D48   D(7,18,20,23)          82.4536                                         !
 ! D49   D(19,18,20,21)        144.1786                                         !
 ! D50   D(19,18,20,22)         23.2377                                         !
 ! D51   D(19,18,20,23)        -92.5896                                         !
 ! D52   D(18,20,22,26)        -14.0663                                         !
 ! D53   D(18,20,22,42)        173.163                                          !
 ! D54   D(21,20,22,26)       -132.1498                                         !
 ! D55   D(21,20,22,42)         55.0796                                         !
 ! D56   D(23,20,22,26)        105.1495                                         !
 ! D57   D(23,20,22,42)        -67.6212                                         !
 ! D58   D(18,20,23,24)       -168.7377                                         !
 ! D59   D(18,20,23,25)         76.5288                                         !
 ! D60   D(18,20,23,27)        -45.3823                                         !
 ! D61   D(21,20,23,24)        -46.7586                                         !
 ! D62   D(21,20,23,25)       -161.4921                                         !
 ! D63   D(21,20,23,27)         76.5968                                         !
 ! D64   D(22,20,23,24)         77.184                                          !
 ! D65   D(22,20,23,25)        -37.5494                                         !
 ! D66   D(22,20,23,27)       -159.4606                                         !
 ! D67   D(20,22,42,43)        -21.4388                                         !
 ! D68   D(20,22,42,44)        172.8599                                         !
 ! D69   D(26,22,42,43)        166.1609                                         !
 ! D70   D(26,22,42,44)          0.4597                                         !
 ! D71   D(20,23,27,28)        -89.5506                                         !
 ! D72   D(20,23,27,30)         79.2755                                         !
 ! D73   D(24,23,27,28)         31.5702                                         !
 ! D74   D(24,23,27,30)       -159.6036                                         !
 ! D75   D(25,23,27,28)        150.3198                                         !
 ! D76   D(25,23,27,30)        -40.8541                                         !
 ! D77   D(23,27,28,29)         -7.0472                                         !
 ! D78   D(23,27,28,34)        169.9561                                         !
 ! D79   D(30,27,28,29)       -177.5711                                         !
 ! D80   D(30,27,28,34)         -0.5678                                         !
 ! D81   D(23,27,30,31)       -169.3716                                         !
 ! D82   D(23,27,30,32)          9.1888                                         !
 ! D83   D(28,27,30,31)          1.465                                          !
 ! D84   D(28,27,30,32)       -179.9746                                         !
 ! D85   D(27,28,34,31)         -0.5823                                         !
 ! D86   D(27,28,34,35)       -179.4519                                         !
 ! D87   D(29,28,34,31)        176.7361                                         !
 ! D88   D(29,28,34,35)         -2.1335                                         !
 ! D89   D(27,30,31,34)         -1.8168                                         !
 ! D90   D(27,30,31,38)        176.7192                                         !
 ! D91   D(32,30,31,34)        179.3837                                         !
 ! D92   D(32,30,31,38)         -2.0803                                         !
 ! D93   D(27,30,32,33)          3.6773                                         !
 ! D94   D(27,30,32,40)       -176.4545                                         !
 ! D95   D(31,30,32,33)       -177.8993                                         !
 ! D96   D(31,30,32,40)          1.9689                                         !
 ! D97   D(30,31,34,28)          1.4976                                         !
 ! D98   D(30,31,34,35)       -179.6404                                         !
 ! D99   D(38,31,34,28)       -176.8619                                         !
 ! D100  D(38,31,34,35)          2.0                                            !
 ! D101  D(30,31,38,36)          0.3912                                         !
 ! D102  D(30,31,38,39)        179.6012                                         !
 ! D103  D(34,31,38,36)        178.5398                                         !
 ! D104  D(34,31,38,39)         -2.2501                                         !
 ! D105  D(30,32,40,36)         -0.2696                                         !
 ! D106  D(30,32,40,41)        179.1237                                         !
 ! D107  D(33,32,40,36)        179.5982                                         !
 ! D108  D(33,32,40,41)         -1.0085                                         !
 ! D109  D(37,36,38,31)        178.6434                                         !
 ! D110  D(37,36,38,39)         -0.5683                                         !
 ! D111  D(40,36,38,31)          1.3659                                         !
 ! D112  D(40,36,38,39)       -177.8458                                         !
 ! D113  D(37,36,40,32)       -178.7299                                         !
 ! D114  D(37,36,40,41)          1.8796                                         !
 ! D115  D(38,36,40,32)         -1.4575                                         !
 ! D116  D(38,36,40,41)        179.152                                          !
 ! D117  D(22,42,44,45)         33.2533                                         !
 ! D118  D(22,42,44,46)        -85.6233                                         !
 ! D119  D(22,42,44,47)        152.446                                          !
 ! D120  D(43,42,44,45)       -132.8309                                         !
 ! D121  D(43,42,44,46)        108.2925                                         !
 ! D122  D(43,42,44,47)        -13.6382                                         !
 ! D123  D(42,44,46,49)       -122.7018                                         !
 ! D124  D(42,44,46,56)         56.3118                                         !
 ! D125  D(45,44,46,49)        120.1331                                         !
 ! D126  D(45,44,46,56)        -60.8533                                         !
 ! D127  D(47,44,46,49)         -1.4525                                         !
 ! D128  D(47,44,46,56)        177.5611                                         !
 ! D129  D(42,44,47,48)         77.1003                                         !
 ! D130  D(42,44,47,50)       -162.8912                                         !
 ! D131  D(42,44,47,54)        -40.7505                                         !
 ! D132  D(45,44,47,48)       -165.554                                          !
 ! D133  D(45,44,47,50)        -45.5455                                         !
 ! D134  D(45,44,47,54)         76.5952                                         !
 ! D135  D(46,44,47,48)        -44.1027                                         !
 ! D136  D(46,44,47,50)         75.9058                                         !
 ! D137  D(46,44,47,54)       -161.9536                                         !
 ! D138  D(44,46,56,57)          1.0576                                         !
 ! D139  D(44,46,56,58)       -168.2242                                         !
 ! D140  D(49,46,56,57)       -179.9793                                         !
 ! D141  D(49,46,56,58)         10.7389                                         !
 ! D142  D(44,47,50,51)        -60.7746                                         !
 ! D143  D(44,47,50,52)       -179.8583                                         !
 ! D144  D(44,47,50,53)         60.6469                                         !
 ! D145  D(48,47,50,51)         58.5173                                         !
 ! D146  D(48,47,50,52)        -60.5664                                         !
 ! D147  D(48,47,50,53)        179.9388                                         !
 ! D148  D(54,47,50,51)       -179.3374                                         !
 ! D149  D(54,47,50,52)         61.5789                                         !
 ! D150  D(54,47,50,53)        -57.9159                                         !
 ! D151  D(44,47,54,55)       -176.3887                                         !
 ! D152  D(48,47,54,55)         67.1676                                         !
 ! D153  D(50,47,54,55)        -54.4737                                         !
 ! D154  D(46,56,58,59)        -77.0367                                         !
 ! D155  D(46,56,58,60)        162.3982                                         !
 ! D156  D(46,56,58,61)         44.9909                                         !
 ! D157  D(57,56,58,59)        113.3947                                         !
 ! D158  D(57,56,58,60)         -7.1704                                         !
 ! D159  D(57,56,58,61)       -124.5777                                         !
 ! D160  D(56,58,60,64)        147.1243                                         !
 ! D161  D(56,58,60,80)        -41.2567                                         !
 ! D162  D(59,58,60,64)         26.0987                                         !
 ! D163  D(59,58,60,80)       -162.2823                                         !
 ! D164  D(61,58,60,64)        -92.4124                                         !
 ! D165  D(61,58,60,80)         79.2067                                         !
 ! D166  D(56,58,61,62)         56.4329                                         !
 ! D167  D(56,58,61,63)        -58.1967                                         !
 ! D168  D(56,58,61,65)        179.8104                                         !
 ! D169  D(59,58,61,62)        178.675                                          !
 ! D170  D(59,58,61,63)         64.0453                                         !
 ! D171  D(59,58,61,65)        -57.9476                                         !
 ! D172  D(60,58,61,62)        -63.0726                                         !
 ! D173  D(60,58,61,63)       -177.7022                                         !
 ! D174  D(60,58,61,65)         60.3048                                         !
 ! D175  D(58,61,65,66)         27.0837                                         !
 ! D176  D(58,61,65,67)        144.1756                                         !
 ! D177  D(58,61,65,68)        -92.5635                                         !
 ! D178  D(62,61,65,66)        148.3672                                         !
 ! D179  D(62,61,65,67)        -94.541                                          !
 ! D180  D(62,61,65,68)         28.7199                                         !
 ! D181  D(63,61,65,66)        -94.3672                                         !
 ! D182  D(63,61,65,67)         22.7246                                         !
 ! D183  D(63,61,65,68)        145.9855                                         !
 ! D184  D(61,65,68,69)         69.4248                                         !
 ! D185  D(61,65,68,70)       -171.8656                                         !
 ! D186  D(61,65,68,71)        -52.8194                                         !
 ! D187  D(66,65,68,69)        -52.6359                                         !
 ! D188  D(66,65,68,70)         66.0738                                         !
 ! D189  D(66,65,68,71)       -174.8801                                         !
 ! D190  D(67,65,68,69)       -166.8789                                         !
 ! D191  D(67,65,68,70)        -48.1692                                         !
 ! D192  D(67,65,68,71)         70.8769                                         !
 ! D193  D(65,68,71,72)        -57.6853                                         !
 ! D194  D(65,68,71,79)        113.7742                                         !
 ! D195  D(69,68,71,72)        178.6022                                         !
 ! D196  D(69,68,71,79)         -9.9384                                         !
 ! D197  D(70,68,71,72)         62.7489                                         !
 ! D198  D(70,68,71,79)       -125.7916                                         !
 ! D199  D(68,71,79,73)         -5.9272                                         !
 ! D200  D(68,71,79,76)        172.678                                          !
 ! D201  D(72,71,79,73)        165.5463                                         !
 ! D202  D(72,71,79,76)        -15.8485                                         !
 ! D203  D(74,73,79,71)        168.5927                                         !
 ! D204  D(74,73,79,76)         -9.9995                                         !
 ! D205  D(75,73,79,71)        -39.84                                           !
 ! D206  D(75,73,79,76)        141.5678                                         !
 ! D207  D(77,76,79,71)        -27.9079                                         !
 ! D208  D(77,76,79,73)        150.749                                          !
 ! D209  D(78,76,79,71)        166.9971                                         !
 ! D210  D(78,76,79,73)        -14.3461                                         !
 --------------------------------------------------------------------------------
 Symmetry turned off by external request.
 Stoichiometry    C26H39N8O8(1+)
 Framework group  C1[X(C26H39N8O8)]
 Deg. of freedom   237
 Full point group                 C1      NOp   1
                          Input orientation:                          
 ---------------------------------------------------------------------
 Center     Atomic      Atomic             Coordinates (Angstroms)
 Number     Number       Type             X           Y           Z
 ---------------------------------------------------------------------
      1          7           0       -5.392281    1.984714    2.652870
      2          1           0       -5.564163    1.241215    1.899249
      3          1           0       -5.904696    1.724658    3.498665
      4          1           0       -5.693132    2.907988    2.323023
      5          6           0       -3.886848    1.894999    2.792574
      6          1           0       -3.480814    2.863109    2.504847
      7          6           0       -3.512092    0.873303    1.692155
      8          6           0       -3.438309    1.528577    4.207706
      9          1           0       -3.897903    0.578251    4.508763
     10          1           0       -2.359555    1.346565    4.168451
     11          8           0       -4.429508    0.249805    1.131363
     12          6           0       -3.715652    2.608375    5.261774
     13          1           0       -3.464499    2.233520    6.259201
     14          1           0       -4.780310    2.879125    5.319413
     15          6           0       -2.936500    3.892148    5.020957
     16          8           0       -2.417508    4.204752    3.967962
     17          8           0       -2.907021    4.652052    6.124869
     18          7           0       -2.223466    0.824800    1.392009
     19          1           0       -1.528676    1.347015    1.928990
     20          6           0       -1.624732    0.154562    0.247453
     21          1           0       -2.126849   -0.805774    0.098877
     22          6           0       -0.139356    0.005765    0.624827
     23          6           0       -1.689621    1.032805   -1.056194
     24          1           0       -1.410624    0.386011   -1.895501
     25          1           0       -0.911339    1.799971   -0.964278
     26          8           0        0.302560    0.655602    1.581201
     27          6           0       -3.023235    1.675433   -1.287581
     28          6           0       -4.096916    1.166023   -1.979516
     29          1           0       -4.166720    0.264874   -2.573704
     30          6           0       -3.502492    2.869395   -0.624528
     31          6           0       -4.886665    2.999552   -0.934925
     32          6           0       -2.891137    3.820088    0.220629
     33          1           0       -1.826471    3.759053    0.443622
     34          7           0       -5.210998    1.957970   -1.778410
     35          1           0       -6.122636    1.786005   -2.174621
     36          6           0       -5.057151    4.927325    0.467841
     37          1           0       -5.638291    5.744339    0.887251
     38          6           0       -5.677947    4.021006   -0.393115
     39          1           0       -6.731786    4.113459   -0.642811
     40          6           0       -3.675575    4.835932    0.759078
     41          1           0       -3.217351    5.563438    1.421673
     42          7           0        0.631858   -0.712963   -0.202282
     43          1           0        0.205748   -1.383362   -0.828670
     44          6           0        2.090980   -0.797006   -0.031494
     45          1           0        2.289706   -0.752256    1.044746
     46          6           0        2.773210    0.414192   -0.743809
     47          6           0        2.603663   -2.127082   -0.603808
     48          1           0        2.630689   -2.036871   -1.699350
     49          8           0        3.620133    0.232565   -1.616592
     50          6           0        4.002246   -2.456949   -0.093778
     51          1           0        4.707439   -1.679161   -0.395220
     52          1           0        4.345563   -3.408231   -0.518355
     53          1           0        3.997571   -2.550255    0.997846
     54          8           0        1.641740   -3.119201   -0.215130
     55          1           0        1.976422   -3.977483   -0.517589
     56          7           0        2.333083    1.621757   -0.328300
     57          1           0        1.629415    1.650002    0.401514
     58          6           0        2.608371    2.905462   -0.976516
     59          1           0        3.625786    3.235071   -0.744201
     60          6           0        1.596290    3.970727   -0.482528
     61          6           0        2.425497    2.810615   -2.509223
     62          1           0        1.401977    2.454765   -2.691424
     63          1           0        3.096533    2.037357   -2.886043
     64          8           0        1.986393    5.136834   -0.393926
     65          6           0        2.693859    4.127554   -3.263874
     66          1           0        3.401298    4.744620   -2.699359
     67          1           0        3.165482    3.904124   -4.229700
     68          6           0        1.472515    5.028469   -3.513119
     69          1           0        1.109734    5.463168   -2.582043
     70          1           0        1.759021    5.852634   -4.176139
     71          7           0        0.354190    4.323184   -4.164690
     72          1           0        0.552810    3.889155   -5.057382
     73          7           0       -1.136534    4.321634   -2.365342
     74          1           0       -2.110549    4.256049   -2.103164
     75          1           0       -0.464925    4.164836   -1.556579
     76          7           0       -1.802859    3.532405   -4.440227
     77          1           0       -1.812400    3.709034   -5.433913
     78          1           0       -2.636563    3.147408   -4.018398
     79          6           0       -0.842793    4.061801   -3.632668
     80          8           0        0.379808    3.543194   -0.372932
     81          1           0       -2.399604    5.461111    5.918985
 ---------------------------------------------------------------------
 Rotational constants (GHZ):           0.0977514           0.0623629           0.0528800
 Standard basis: 6-31G(d) (6D, 7F)
   708 basis functions,  1332 primitive gaussians,   708 cartesian basis functions
   157 alpha electrons      157 beta electrons
       nuclear repulsion energy      5609.5280113444 Hartrees.
 NAtoms=   81 NActive=   81 NUniq=   81 SFac= 1.00D+00 NAtFMM=   60 NAOKFM=T Big=T
 Integral buffers will be    131072 words long.
 Raffenetti 2 integral format.
 Two-electron integral symmetry is turned off.
 Nuclear repulsion after empirical dispersion term =     5609.4046924906 Hartrees.
 One-electron integrals computed using PRISM.
 NBasis=   708 RedAO= T EigKep=  3.71D-04  NBF=   708
 NBsUse=   708 1.00D-06 EigRej= -1.00D+00 NBFU=   708
 Initial guess from the checkpoint file:  "conf-197.chk"
 B after Tr=     0.000000    0.000000    0.000000
         Rot=    1.000000    0.000000    0.000000    0.000000 Ang=   0.00 deg.
 Requested convergence on RMS density matrix=1.00D-08 within 128 cycles.
 Requested convergence on MAX density matrix=1.00D-06.
 Requested convergence on             energy=1.00D-06.
 No special actions if energy rises.
 SCF Done:  E(RB3LYP) =  -2054.04237036     A.U. after    1 cycles
            NFock=  1  Conv=0.82D-08     -V/T= 2.0093

 **********************************************************************

            Population analysis using the SCF Density.

 **********************************************************************

 Alpha  occ. eigenvalues --  -19.30375 -19.25635 -19.25207 -19.21594 -19.21392
 Alpha  occ. eigenvalues --  -19.16783 -19.14436 -19.13010 -14.58183 -14.48901
 Alpha  occ. eigenvalues --  -14.48094 -14.47828 -14.47535 -14.45311 -14.44196
 Alpha  occ. eigenvalues --  -14.40249 -10.43529 -10.43081 -10.42192 -10.38378
 Alpha  occ. eigenvalues --  -10.38206 -10.34334 -10.34163 -10.33697 -10.32983
 Alpha  occ. eigenvalues --  -10.32970 -10.32642 -10.31514 -10.30664 -10.30214
 Alpha  occ. eigenvalues --  -10.30195 -10.29921 -10.29558 -10.29152 -10.29022
 Alpha  occ. eigenvalues --  -10.28823 -10.28545 -10.28473 -10.26494 -10.25003
 Alpha  occ. eigenvalues --  -10.23619 -10.23347  -1.21555  -1.17944  -1.13617
 Alpha  occ. eigenvalues --   -1.12678  -1.12086  -1.11614  -1.09144  -1.08729
 Alpha  occ. eigenvalues --   -1.08395  -1.06918  -1.05170  -1.01387  -1.01362
 Alpha  occ. eigenvalues --   -0.99271  -0.98059  -0.96493  -0.94614  -0.94099
 Alpha  occ. eigenvalues --   -0.91021  -0.88241  -0.86066  -0.85638  -0.84250
 Alpha  occ. eigenvalues --   -0.84006  -0.82375  -0.80515  -0.78992  -0.77699
 Alpha  occ. eigenvalues --   -0.76377  -0.74335  -0.72872  -0.72711  -0.72314
 Alpha  occ. eigenvalues --   -0.71624  -0.70613  -0.70104  -0.69714  -0.69026
 Alpha  occ. eigenvalues --   -0.68375  -0.67450  -0.66942  -0.66221  -0.64864
 Alpha  occ. eigenvalues --   -0.64323  -0.63872  -0.63097  -0.61615  -0.61285
 Alpha  occ. eigenvalues --   -0.60649  -0.60251  -0.59866  -0.59422  -0.59199
 Alpha  occ. eigenvalues --   -0.58763  -0.58363  -0.58013  -0.57125  -0.57011
 Alpha  occ. eigenvalues --   -0.56134  -0.55551  -0.54945  -0.54663  -0.54382
 Alpha  occ. eigenvalues --   -0.53805  -0.53358  -0.53209  -0.52819  -0.52366
 Alpha  occ. eigenvalues --   -0.52260  -0.51787  -0.51265  -0.51106  -0.50492
 Alpha  occ. eigenvalues --   -0.49863  -0.49720  -0.49351  -0.49005  -0.48742
 Alpha  occ. eigenvalues --   -0.48600  -0.48320  -0.48151  -0.47146  -0.47103
 Alpha  occ. eigenvalues --   -0.46187  -0.45625  -0.45019  -0.44693  -0.44341
 Alpha  occ. eigenvalues --   -0.44244  -0.44018  -0.43598  -0.42811  -0.42794
 Alpha  occ. eigenvalues --   -0.42705  -0.42558  -0.41002  -0.40520  -0.39913
 Alpha  occ. eigenvalues --   -0.39522  -0.39274  -0.38689  -0.38610  -0.38103
 Alpha  occ. eigenvalues --   -0.37828  -0.35792  -0.35515  -0.35353  -0.33936
 Alpha  occ. eigenvalues --   -0.33332  -0.30968  -0.30271  -0.30004  -0.29890
 Alpha  occ. eigenvalues --   -0.28953  -0.26638
 Alpha virt. eigenvalues --   -0.12409  -0.11023  -0.10884  -0.09133  -0.08372
 Alpha virt. eigenvalues --   -0.08003  -0.07857  -0.04648  -0.04182  -0.04145
 Alpha virt. eigenvalues --   -0.03353  -0.02119  -0.01938  -0.01739  -0.00776
 Alpha virt. eigenvalues --   -0.00724  -0.00443   0.00016   0.00220   0.00800
 Alpha virt. eigenvalues --    0.01107   0.01338   0.01488   0.02909   0.03160
 Alpha virt. eigenvalues --    0.04675   0.04735   0.04977   0.05281   0.05590
 Alpha virt. eigenvalues --    0.05854   0.06307   0.06717   0.07213   0.07753
 Alpha virt. eigenvalues --    0.07824   0.08044   0.08131   0.08366   0.08777
 Alpha virt. eigenvalues --    0.09132   0.09444   0.09859   0.10204   0.10913
 Alpha virt. eigenvalues --    0.11434   0.11693   0.11872   0.12535   0.12763
 Alpha virt. eigenvalues --    0.12966   0.13164   0.13369   0.13806   0.14042
 Alpha virt. eigenvalues --    0.14343   0.14820   0.15366   0.15768   0.16530
 Alpha virt. eigenvalues --    0.16706   0.17042   0.17366   0.17576   0.18393
 Alpha virt. eigenvalues --    0.19563   0.19682   0.20091   0.20490   0.21125
 Alpha virt. eigenvalues --    0.21177   0.21758   0.22846   0.23251   0.23821
 Alpha virt. eigenvalues --    0.23930   0.24894   0.25359   0.26534   0.27221
 Alpha virt. eigenvalues --    0.28017   0.29191   0.29875   0.30163   0.31305
 Alpha virt. eigenvalues --    0.32594   0.33593   0.34335   0.35675   0.37516
 Alpha virt. eigenvalues --    0.38041   0.38591   0.38783   0.39623   0.40220
 Alpha virt. eigenvalues --    0.40875   0.40988   0.41615   0.42209   0.42810
 Alpha virt. eigenvalues --    0.43427   0.43730   0.44326   0.45074   0.45535
 Alpha virt. eigenvalues --    0.45721   0.46035   0.46264   0.46634   0.47124
 Alpha virt. eigenvalues --    0.47269   0.47965   0.48459   0.48775   0.49262
 Alpha virt. eigenvalues --    0.49351   0.49796   0.50312   0.50423   0.50766
 Alpha virt. eigenvalues --    0.51048   0.51130   0.51725   0.52036   0.52390
 Alpha virt. eigenvalues --    0.52829   0.52890   0.53035   0.54018   0.54232
 Alpha virt. eigenvalues --    0.54669   0.55253   0.55567   0.56745   0.56942
 Alpha virt. eigenvalues --    0.57176   0.57437   0.57784   0.58205   0.58882
 Alpha virt. eigenvalues --    0.59108   0.59609   0.59878   0.60569   0.61083
 Alpha virt. eigenvalues --    0.61344   0.61737   0.61819   0.62238   0.62779
 Alpha virt. eigenvalues --    0.63750   0.64123   0.64958   0.65142   0.65736
 Alpha virt. eigenvalues --    0.66849   0.67420   0.67623   0.68957   0.69363
 Alpha virt. eigenvalues --    0.69914   0.70143   0.70397   0.70818   0.70989
 Alpha virt. eigenvalues --    0.71541   0.72030   0.72148   0.72455   0.73032
 Alpha virt. eigenvalues --    0.73147   0.73800   0.73945   0.74505   0.74953
 Alpha virt. eigenvalues --    0.75198   0.75573   0.75665   0.76191   0.76643
 Alpha virt. eigenvalues --    0.76761   0.77125   0.77521   0.77693   0.78039
 Alpha virt. eigenvalues --    0.78259   0.78823   0.79385   0.79483   0.79770
 Alpha virt. eigenvalues --    0.80112   0.80351   0.80937   0.81002   0.81096
 Alpha virt. eigenvalues --    0.82087   0.82429   0.82733   0.82842   0.83120
 Alpha virt. eigenvalues --    0.83428   0.83968   0.84107   0.84719   0.84770
 Alpha virt. eigenvalues --    0.85443   0.85930   0.86124   0.86539   0.86975
 Alpha virt. eigenvalues --    0.87483   0.87788   0.88461   0.89215   0.89503
 Alpha virt. eigenvalues --    0.90044   0.90610   0.90868   0.91546   0.92498
 Alpha virt. eigenvalues --    0.93490   0.94070   0.94815   0.95066   0.95543
 Alpha virt. eigenvalues --    0.96059   0.96437   0.97408   0.97920   0.98373
 Alpha virt. eigenvalues --    0.99149   0.99275   0.99802   1.00520   1.00677
 Alpha virt. eigenvalues --    1.01339   1.02127   1.02557   1.03319   1.04761
 Alpha virt. eigenvalues --    1.05438   1.05550   1.06196   1.06819   1.07518
 Alpha virt. eigenvalues --    1.08270   1.08607   1.10578   1.10739   1.11376
 Alpha virt. eigenvalues --    1.12594   1.13115   1.13728   1.13747   1.15247
 Alpha virt. eigenvalues --    1.15491   1.16555   1.17371   1.17814   1.18426
 Alpha virt. eigenvalues --    1.19064   1.20193   1.20423   1.21797   1.21994
 Alpha virt. eigenvalues --    1.22774   1.23596   1.23821   1.25074   1.25524
 Alpha virt. eigenvalues --    1.26322   1.26623   1.27532   1.28029   1.28511
 Alpha virt. eigenvalues --    1.29749   1.30144   1.31108   1.31776   1.32154
 Alpha virt. eigenvalues --    1.32603   1.33368   1.33597   1.34034   1.35515
 Alpha virt. eigenvalues --    1.36378   1.37678   1.38171   1.38363   1.38742
 Alpha virt. eigenvalues --    1.39597   1.40088   1.40793   1.41233   1.42311
 Alpha virt. eigenvalues --    1.42825   1.43679   1.44260   1.45186   1.45339
 Alpha virt. eigenvalues --    1.46536   1.46825   1.48309   1.50013   1.50779
 Alpha virt. eigenvalues --    1.50988   1.52253   1.53072   1.53212   1.54469
 Alpha virt. eigenvalues --    1.55140   1.56057   1.56835   1.57530   1.58543
 Alpha virt. eigenvalues --    1.59545   1.60237   1.60586   1.60977   1.62134
 Alpha virt. eigenvalues --    1.62868   1.63368   1.64117   1.66031   1.66483
 Alpha virt. eigenvalues --    1.67055   1.67438   1.67683   1.68308   1.68378
 Alpha virt. eigenvalues --    1.68757   1.69848   1.70031   1.70410   1.71415
 Alpha virt. eigenvalues --    1.72178   1.72257   1.72887   1.73690   1.73975
 Alpha virt. eigenvalues --    1.74447   1.75208   1.75682   1.76021   1.77002
 Alpha virt. eigenvalues --    1.77548   1.78086   1.78704   1.78946   1.79443
 Alpha virt. eigenvalues --    1.79523   1.80300   1.80840   1.81426   1.81645
 Alpha virt. eigenvalues --    1.82016   1.82346   1.82510   1.83440   1.83963
 Alpha virt. eigenvalues --    1.84560   1.84945   1.85258   1.85803   1.86398
 Alpha virt. eigenvalues --    1.86673   1.86976   1.87206   1.87966   1.88526
 Alpha virt. eigenvalues --    1.88879   1.89698   1.89816   1.90593   1.91209
 Alpha virt. eigenvalues --    1.91645   1.92705   1.93508   1.94049   1.94416
 Alpha virt. eigenvalues --    1.94865   1.94986   1.95515   1.97119   1.97625
 Alpha virt. eigenvalues --    1.98053   1.98818   1.99629   2.00159   2.00971
 Alpha virt. eigenvalues --    2.01122   2.01771   2.02413   2.02971   2.03470
 Alpha virt. eigenvalues --    2.04660   2.05369   2.06478   2.07338   2.07593
 Alpha virt. eigenvalues --    2.08471   2.08856   2.10207   2.11316   2.12083
 Alpha virt. eigenvalues --    2.12248   2.13270   2.13717   2.14529   2.15083
 Alpha virt. eigenvalues --    2.15816   2.16341   2.17462   2.17948   2.18403
 Alpha virt. eigenvalues --    2.18999   2.19451   2.19783   2.20678   2.20838
 Alpha virt. eigenvalues --    2.22854   2.23395   2.24181   2.25557   2.25919
 Alpha virt. eigenvalues --    2.26022   2.27056   2.27647   2.27871   2.28796
 Alpha virt. eigenvalues --    2.30986   2.32045   2.32365   2.32731   2.33677
 Alpha virt. eigenvalues --    2.34290   2.35528   2.36205   2.36681   2.37076
 Alpha virt. eigenvalues --    2.37949   2.38732   2.40483   2.40611   2.41434
 Alpha virt. eigenvalues --    2.42064   2.42470   2.42915   2.45835   2.46602
 Alpha virt. eigenvalues --    2.46867   2.47365   2.48366   2.48946   2.49742
 Alpha virt. eigenvalues --    2.50379   2.51663   2.52445   2.53070   2.53595
 Alpha virt. eigenvalues --    2.54815   2.55526   2.55931   2.56588   2.57198
 Alpha virt. eigenvalues --    2.57828   2.59561   2.59708   2.60594   2.60943
 Alpha virt. eigenvalues --    2.62195   2.63123   2.63526   2.63999   2.64493
 Alpha virt. eigenvalues --    2.67015   2.67596   2.68898   2.69921   2.72470
 Alpha virt. eigenvalues --    2.72508   2.74810   2.74940   2.75912   2.77250
 Alpha virt. eigenvalues --    2.79022   2.80275   2.82667   2.84052   2.84838
 Alpha virt. eigenvalues --    2.87003   2.88537   2.89459   2.90972   2.91351
 Alpha virt. eigenvalues --    2.91570   2.94720   2.95685   2.97188   2.99977
 Alpha virt. eigenvalues --    3.00222   3.02058   3.03398   3.07586   3.10880
 Alpha virt. eigenvalues --    3.12030   3.14068   3.16191   3.32771   3.67807
 Alpha virt. eigenvalues --    3.70381   3.74046   3.74646   3.89502   3.90654
 Alpha virt. eigenvalues --    3.93144   3.94836   3.97744   3.99389   4.00362
 Alpha virt. eigenvalues --    4.01385   4.03764   4.05637   4.07600   4.09339
 Alpha virt. eigenvalues --    4.10713   4.11642   4.13576   4.14548   4.17540
 Alpha virt. eigenvalues --    4.18873   4.21635   4.23684   4.23921   4.29495
 Alpha virt. eigenvalues --    4.30804   4.31956   4.35440   4.36368   4.37911
 Alpha virt. eigenvalues --    4.39489   4.42788   4.44932   4.46983   4.52136
 Alpha virt. eigenvalues --    4.54956   4.56443   4.57051   4.63667   4.70310
 Alpha virt. eigenvalues --    4.71000
          Condensed to atoms (all electrons):
 Mulliken charges:
               1
     1  N   -0.772090
     2  H    0.428433
     3  H    0.400075
     4  H    0.408582
     5  C   -0.121221
     6  H    0.270595
     7  C    0.659714
     8  C   -0.305363
     9  H    0.176577
    10  H    0.214269
    11  O   -0.558179
    12  C   -0.374143
    13  H    0.221531
    14  H    0.169844
    15  C    0.591367
    16  O   -0.451522
    17  O   -0.544471
    18  N   -0.602216
    19  H    0.386405
    20  C   -0.052340
    21  H    0.186605
    22  C    0.637728
    23  C   -0.395178
    24  H    0.150617
    25  H    0.229114
    26  O   -0.549842
    27  C    0.057817
    28  C    0.013652
    29  H    0.172954
    30  C   -0.002149
    31  C    0.320438
    32  C   -0.272016
    33  H    0.218303
    34  N   -0.682193
    35  H    0.342977
    36  C   -0.192243
    37  H    0.152796
    38  C   -0.197693
    39  H    0.148285
    40  C   -0.153756
    41  H    0.170878
    42  N   -0.596597
    43  H    0.350101
    44  C   -0.073563
    45  H    0.195831
    46  C    0.633757
    47  C    0.126412
    48  H    0.146210
    49  O   -0.532918
    50  C   -0.480515
    51  H    0.195556
    52  H    0.145263
    53  H    0.156645
    54  O   -0.652811
    55  H    0.402672
    56  N   -0.657056
    57  H    0.382519
    58  C    0.032745
    59  H    0.164023
    60  C    0.537038
    61  C   -0.306802
    62  H    0.114641
    63  H    0.195588
    64  O   -0.534013
    65  C   -0.284588
    66  H    0.192465
    67  H    0.135219
    68  C   -0.177238
    69  H    0.228691
    70  H    0.171549
    71  N   -0.584490
    72  H    0.345686
    73  N   -0.788383
    74  H    0.354634
    75  H    0.446440
    76  N   -0.777959
    77  H    0.361506
    78  H    0.361330
    79  C    0.770460
    80  O   -0.636274
    81  H    0.433287
 Sum of Mulliken charges =   1.00000
 Mulliken charges with hydrogens summed into heavy atoms:
               1
     1  N    0.465000
     5  C    0.149374
     7  C    0.659714
     8  C    0.085483
    11  O   -0.558179
    12  C    0.017232
    15  C    0.591367
    16  O   -0.451522
    17  O   -0.111184
    18  N   -0.215811
    20  C    0.134265
    22  C    0.637728
    23  C   -0.015447
    26  O   -0.549842
    27  C    0.057817
    28  C    0.186606
    30  C   -0.002149
    31  C    0.320438
    32  C   -0.053713
    34  N   -0.339216
    36  C   -0.039448
    38  C   -0.049407
    40  C    0.017122
    42  N   -0.246495
    44  C    0.122268
    46  C    0.633757
    47  C    0.272622
    49  O   -0.532918
    50  C    0.016949
    54  O   -0.250139
    56  N   -0.274537
    58  C    0.196768
    60  C    0.537038
    61  C    0.003428
    64  O   -0.534013
    65  C    0.043096
    68  C    0.223001
    71  N   -0.238805
    73  N    0.012691
    76  N   -0.055122
    79  C    0.770460
    80  O   -0.636274
 Electronic spatial extent (au):  <R**2>=          28831.2154
 Charge=              1.0000 electrons
 Dipole moment (field-independent basis, Debye):
    X=            -23.9312    Y=              8.0437    Z=             -0.4026  Tot=             25.2501
 Quadrupole moment (field-independent basis, Debye-Ang):
   XX=           -127.9136   YY=           -205.5797   ZZ=           -132.2409
   XY=            -69.7794   XZ=            -32.7180   YZ=             -4.2851
 Traceless Quadrupole moment (field-independent basis, Debye-Ang):
   XX=             27.3311   YY=            -50.3350   ZZ=             23.0039
   XY=            -69.7794   XZ=            -32.7180   YZ=             -4.2851
 Octapole moment (field-independent basis, Debye-Ang**2):
  XXX=             69.1066  YYY=          -1499.8988  ZZZ=            -25.6054  XYY=             83.4891
  XXY=           -247.9224  XXZ=            186.0388  XZZ=            -25.0683  YZZ=           -141.6630
  YYZ=            -28.6527  XYZ=           -104.8691
 Hexadecapole moment (field-independent basis, Debye-Ang**3):
 XXXX=         -10089.9867 YYYY=         -13113.9504 ZZZZ=          -6639.4061 XXXY=           1285.5419
 XXXZ=           1205.8569 YYYX=           2017.6631 YYYZ=            564.2666 ZZZX=           1470.4090
 ZZZY=             -1.8683 XXYY=          -3779.5499 XXZZ=          -2609.9188 YYZZ=          -2239.0239
 XXYZ=            471.8787 YYXZ=            201.3512 ZZXY=            447.8173
 N-N= 5.609404692491D+03 E-N=-1.597942956976D+04  KE= 2.035171595510D+03
 Unable to Open any file for archive entry.
 1\1\GINC-LAC-304\SP\RB3LYP\6-31G(d)\C26H39N8O8(1+)\KENGMITH\13-May-202
 2\0\\# B3LYP/6-31G* empiricaldispersion=gd3 guess=read geom=check nosy
 mm integral(ultrafinegrid)\\Candidate Structure: Conf:197 Charge calc 
 in gas phase\\1,1\N,0,-5.3922812942,1.9847136862,2.6528695763\H,0,-5.5
 641633694,1.241214889,1.8992492888\H,0,-5.904695962,1.7246581797,3.498
 665323\H,0,-5.6931324964,2.9079878764,2.3230233464\C,0,-3.8868482661,1
 .8949988104,2.7925739642\H,0,-3.4808140749,2.863108567,2.5048465447\C,
 0,-3.5120918824,0.8733025492,1.6921554788\C,0,-3.4383090698,1.52857689
 96,4.2077059669\H,0,-3.8979033645,0.5782507886,4.50876338\H,0,-2.35955
 52453,1.3465654069,4.1684510247\O,0,-4.4295082219,0.2498052606,1.13136
 27487\C,0,-3.715651986,2.6083754774,5.2617744214\H,0,-3.4644988096,2.2
 335198227,6.259200567\H,0,-4.7803104219,2.8791248427,5.3194134443\C,0,
 -2.9365001719,3.8921484917,5.0209574562\O,0,-2.4175075623,4.204751594,
 3.9679616382\O,0,-2.9070209639,4.6520517934,6.1248692665\N,0,-2.223466
 0192,0.8247996649,1.3920086669\H,0,-1.5286760424,1.3470152857,1.928989
 787\C,0,-1.6247321278,0.1545624643,0.2474526092\H,0,-2.1268493905,-0.8
 057737187,0.0988771077\C,0,-0.1393557401,0.0057653699,0.6248266491\C,0
 ,-1.6896211324,1.0328049719,-1.0561941096\H,0,-1.410623598,0.386011132
 7,-1.8955010989\H,0,-0.9113393177,1.7999710591,-0.9642784615\O,0,0.302
 5598763,0.6556016511,1.5812012204\C,0,-3.0232345977,1.6754327963,-1.28
 75807947\C,0,-4.0969160969,1.1660231872,-1.9795157646\H,0,-4.166720344
 4,0.2648744154,-2.5737036421\C,0,-3.5024920445,2.8693954083,-0.6245279
 282\C,0,-4.8866646284,2.9995520042,-0.9349253293\C,0,-2.891137239,3.82
 00880008,0.2206285315\H,0,-1.8264705015,3.7590533347,0.4436217892\N,0,
 -5.2109984743,1.9579695364,-1.7784098755\H,0,-6.1226363876,1.786004556
 8,-2.1746211895\C,0,-5.0571508364,4.9273252211,0.467840672\H,0,-5.6382
 908864,5.744339104,0.8872507886\C,0,-5.6779472554,4.0210060868,-0.3931
 153047\H,0,-6.7317855872,4.1134593131,-0.6428113868\C,0,-3.6755753118,
 4.8359320761,0.7590780454\H,0,-3.2173507528,5.5634382899,1.4216734208\
 N,0,0.6318583616,-0.7129633738,-0.2022818358\H,0,0.205748262,-1.383361
 5106,-0.8286704731\C,0,2.090979938,-0.7970059693,-0.0314940042\H,0,2.2
 897055541,-0.7522557399,1.0447460641\C,0,2.7732096393,0.4141919453,-0.
 7438085493\C,0,2.6036634684,-2.127082294,-0.6038081278\H,0,2.630689171
 6,-2.0368709349,-1.6993495366\O,0,3.6201331072,0.2325651384,-1.6165919
 453\C,0,4.0022455186,-2.4569494897,-0.093777844\H,0,4.7074393344,-1.67
 91609769,-0.3952204438\H,0,4.3455633854,-3.4082306599,-0.5183550012\H,
 0,3.9975706552,-2.5502549037,0.9978458629\O,0,1.6417395014,-3.11920083
 03,-0.215130385\H,0,1.9764215375,-3.9774825024,-0.517588635\N,0,2.3330
 825595,1.6217567032,-0.3282997914\H,0,1.6294146418,1.6500016115,0.4015
 136558\C,0,2.6083706686,2.9054616248,-0.9765158704\H,0,3.625785573,3.2
 350711289,-0.7442008876\C,0,1.596289711,3.970726606,-0.4825280754\C,0,
 2.4254972438,2.8106147766,-2.5092229533\H,0,1.4019774103,2.4547648094,
 -2.6914239395\H,0,3.0965328881,2.0373571061,-2.8860431523\O,0,1.986392
 6821,5.1368335782,-0.3939261168\C,0,2.6938592883,4.1275535652,-3.26387
 4045\H,0,3.4012979334,4.744620476,-2.6993588864\H,0,3.1654823158,3.904
 1239911,-4.2296996071\C,0,1.4725145515,5.0284688944,-3.5131186585\H,0,
 1.1097342939,5.4631680503,-2.5820427596\H,0,1.7590213026,5.8526336279,
 -4.1761386085\N,0,0.3541899635,4.3231837237,-4.1646896754\H,0,0.552809
 7287,3.8891551555,-5.0573815508\N,0,-1.1365343401,4.3216336533,-2.3653
 418656\H,0,-2.1105487096,4.2560488863,-2.1031643516\H,0,-0.4649245154,
 4.1648361306,-1.5565788398\N,0,-1.8028587017,3.5324047091,-4.440226813
 6\H,0,-1.8123999031,3.7090342613,-5.4339133403\H,0,-2.6365628329,3.147
 4084582,-4.018397538\C,0,-0.8427929695,4.0618008015,-3.6326675087\O,0,
 0.3798076292,3.5431944395,-0.372931711\H,0,-2.3996039087,5.4611109955,
 5.918984996\\Version=ES64L-G16RevC.01\HF=-2054.0423704\RMSD=8.196e-09\
 Dipole=-7.4112456,-0.8235481,-0.1899594\Quadrupole=20.3199999,-37.4228
 162,17.1028163,-51.8792547,-24.3250122,-3.1858497\PG=C01 [X(C26H39N8O8
 )]\\@
 The archive entry for this job was punched.


 GOD DOES NOT PLAY WITH DICE.
               -- A. EINSTEIN
 Job cpu time:       0 days  0 hours  2 minutes 42.9 seconds.
 Elapsed time:       0 days  0 hours  0 minutes 41.4 seconds.
 File lengths (MBytes):  RWF=    376 Int=      0 D2E=      0 Chk=     56 Scr=     16
 Normal termination of Gaussian 16 at Fri May 13 15:51:55 2022.
