 Entering Gaussian System, Link 0=/opt/software/Gaussian/g16-AVX2-C.01/g16/g16
 Input=charge-conf-126.com
 Output=charge-conf-126.log
 Initial command:
 /opt/software/Gaussian/g16-AVX2-C.01/g16/l1.exe "/mnt/gs18/scratch/users/kengmith/Gau-27033.inp" -scrdir="/mnt/gs18/scratch/users/kengmith/"
 Entering Link 1 = /opt/software/Gaussian/g16-AVX2-C.01/g16/l1.exe PID=     27043.
  
 Copyright (c) 1988-2019, Gaussian, Inc.  All Rights Reserved.
  
 This is part of the Gaussian(R) 16 program.  It is based on
 the Gaussian(R) 09 system (copyright 2009, Gaussian, Inc.),
 the Gaussian(R) 03 system (copyright 2003, Gaussian, Inc.),
 the Gaussian(R) 98 system (copyright 1998, Gaussian, Inc.),
 the Gaussian(R) 94 system (copyright 1995, Gaussian, Inc.),
 the Gaussian 92(TM) system (copyright 1992, Gaussian, Inc.),
 the Gaussian 90(TM) system (copyright 1990, Gaussian, Inc.),
 the Gaussian 88(TM) system (copyright 1988, Gaussian, Inc.),
 the Gaussian 86(TM) system (copyright 1986, Carnegie Mellon
 University), and the Gaussian 82(TM) system (copyright 1983,
 Carnegie Mellon University). Gaussian is a federally registered
 trademark of Gaussian, Inc.
  
 This software contains proprietary and confidential information,
 including trade secrets, belonging to Gaussian, Inc.
  
 This software is provided under written license and may be
 used, copied, transmitted, or stored only in accord with that
 written license.
  
 The following legend is applicable only to US Government
 contracts under FAR:
  
                    RESTRICTED RIGHTS LEGEND
  
 Use, reproduction and disclosure by the US Government is
 subject to restrictions as set forth in subparagraphs (a)
 and (c) of the Commercial Computer Software - Restricted
 Rights clause in FAR 52.227-19.
  
 Gaussian, Inc.
 340 Quinnipiac St., Bldg. 40, Wallingford CT 06492
  
  
 ---------------------------------------------------------------
 Warning -- This program may not be used in any manner that
 competes with the business of Gaussian, Inc. or will provide
 assistance to any competitor of Gaussian, Inc.  The licensee
 of this program is prohibited from giving any competitor of
 Gaussian, Inc. access to this program.  By using this program,
 the user acknowledges that Gaussian, Inc. is engaged in the
 business of creating and licensing software in the field of
 computational chemistry and represents and warrants to the
 licensee that it is not a competitor of Gaussian, Inc. and that
 it will not use this program in any manner prohibited above.
 ---------------------------------------------------------------
  

 Cite this work as:
 Gaussian 16, Revision C.01,
 M. J. Frisch, G. W. Trucks, H. B. Schlegel, G. E. Scuseria, 
 M. A. Robb, J. R. Cheeseman, G. Scalmani, V. Barone, 
 G. A. Petersson, H. Nakatsuji, X. Li, M. Caricato, A. V. Marenich, 
 J. Bloino, B. G. Janesko, R. Gomperts, B. Mennucci, H. P. Hratchian, 
 J. V. Ortiz, A. F. Izmaylov, J. L. Sonnenberg, D. Williams-Young, 
 F. Ding, F. Lipparini, F. Egidi, J. Goings, B. Peng, A. Petrone, 
 T. Henderson, D. Ranasinghe, V. G. Zakrzewski, J. Gao, N. Rega, 
 G. Zheng, W. Liang, M. Hada, M. Ehara, K. Toyota, R. Fukuda, 
 J. Hasegawa, M. Ishida, T. Nakajima, Y. Honda, O. Kitao, H. Nakai, 
 T. Vreven, K. Throssell, J. A. Montgomery, Jr., J. E. Peralta, 
 F. Ogliaro, M. J. Bearpark, J. J. Heyd, E. N. Brothers, K. N. Kudin, 
 V. N. Staroverov, T. A. Keith, R. Kobayashi, J. Normand, 
 K. Raghavachari, A. P. Rendell, J. C. Burant, S. S. Iyengar, 
 J. Tomasi, M. Cossi, J. M. Millam, M. Klene, C. Adamo, R. Cammi, 
 J. W. Ochterski, R. L. Martin, K. Morokuma, O. Farkas, 
 J. B. Foresman, and D. J. Fox, Gaussian, Inc., Wallingford CT, 2019.
 
 ******************************************
 Gaussian 16:  ES64L-G16RevC.01  3-Jul-2019
                13-May-2022 
 ******************************************
 %mem=8gb
 %nproc=4
 Will use up to    4 processors via shared memory.
 %chk=conf-126.chk
 ----------------------------------------------------------------------
 # B3LYP/6-31G* empiricaldispersion=gd3 guess=read geom=check nosymm in
 tegral(ultrafinegrid)
 ----------------------------------------------------------------------
 1/29=2,38=1,172=1/1;
 2/12=2,15=1,40=1/2;
 3/5=1,6=6,7=1,11=2,14=-4,25=1,30=1,74=-5,75=-5,116=-2,124=31/1,2,3;
 4/5=1/1;
 5/5=2,38=6/2;
 6/7=2,8=2,9=2,10=2,28=1/1;
 99/5=1,9=1/99;
 ------------------------------------------------------
 Candidate Structure: Conf:126 Charge calc in gas phase
 ------------------------------------------------------
 Structure from the checkpoint file:  "conf-126.chk"
 Charge =  1 Multiplicity = 1
 Redundant internal coordinates found in file.  (old form).
 N,0,-0.7588003847,-0.4515502879,2.9695285175
 H,0,-0.3060920146,-0.6220681755,3.8694824227
 H,0,-0.4980523016,-1.1744121546,2.2803639094
 H,0,-0.4436633894,0.4803903226,2.5380633204
 C,0,-2.2700223356,-0.467322635,3.043303341
 H,0,-2.5552332323,-1.4115019123,3.5194681457
 C,0,-2.6441182776,-0.5023871996,1.5362376257
 C,0,-2.7956558164,0.7330179878,3.831183881
 H,0,-2.5895054798,1.6580007593,3.2820386514
 H,0,-3.8859518231,0.6265415801,3.8918204659
 O,0,-1.8828585079,-1.1064584746,0.7789689099
 C,0,-2.2387521053,0.8308252763,5.2633401806
 H,0,-1.1630600546,1.0492475668,5.2430391369
 H,0,-2.4016753919,-0.0953366677,5.8213771679
 C,0,-2.9095367426,1.9504685837,6.043029314
 O,0,-3.5445867362,1.8078942093,7.0580475762
 O,0,-2.7097109961,3.142076647,5.4314988027
 N,0,-3.6963581516,0.2251516785,1.1234067309
 H,0,-4.2639093279,0.7235184017,1.7962620859
 C,0,-3.6895696645,0.7990623315,-0.2349308578
 H,0,-3.584680183,-0.0213807591,-0.9471475029
 C,0,-2.4541958305,1.7196238284,-0.221438301
 C,0,-4.9861350676,1.5946181082,-0.4809129878
 H,0,-5.0085155474,1.8534964157,-1.5471637901
 H,0,-4.9118460922,2.537739477,0.072220112
 O,0,-2.4445283872,2.7182687104,0.523354205
 C,0,-6.2152246841,0.8451418178,-0.0710238429
 C,0,-7.0812461048,1.2008051941,0.9362886137
 H,0,-7.0843473943,2.0854686246,1.5596008559
 C,0,-6.6940537088,-0.4053332255,-0.6056944426
 C,0,-7.8620159045,-0.750414313,0.1263501869
 C,0,-6.2553674092,-1.2616503728,-1.6309274627
 H,0,-5.3746184052,-1.0176172133,-2.219539559
 N,0,-8.0673505853,0.2438618527,1.0645596955
 H,0,-8.8684865385,0.3116202765,1.6732131948
 C,0,-8.1330932988,-2.740445248,-1.1542088952
 H,0,-8.6777095906,-3.6507625983,-1.3868441082
 C,0,-8.5927128023,-1.9136565388,-0.1360610803
 H,0,-9.4861888822,-2.1599022024,0.4308315885
 C,0,-6.9764918591,-2.418323786,-1.8953234018
 H,0,-6.6511125597,-3.0859837002,-2.6876546313
 N,0,-1.3862528496,1.3109100851,-0.9138955339
 H,0,-1.3705219363,0.4179497356,-1.4021959804
 C,0,-0.0933252317,1.9796512461,-0.8608098633
 H,0,-0.2533525366,3.0617539952,-0.919259482
 C,0,0.697588988,1.4401088624,-2.0753274594
 C,0,0.6874611776,1.6450822794,0.4440632013
 H,0,0.9506813061,0.5806805628,0.3998360924
 O,0,0.4671918406,0.296710278,-2.4704529611
 C,0,1.9311542914,2.5035857249,0.6413922559
 H,0,2.6727848971,2.3693495014,-0.1503773856
 H,0,2.3976206402,2.2472645705,1.5971433684
 H,0,1.6542436013,3.5637951112,0.6777054874
 O,0,-0.1645882255,1.7907140773,1.6129599972
 H,0,-0.9105241482,2.4006666109,1.3928830408
 N,0,1.6158612779,2.2722365979,-2.592179767
 H,0,1.8443423528,3.1424977933,-2.1176310549
 C,0,2.7013090685,1.8310383747,-3.466995439
 H,0,2.6960366102,0.7407245145,-3.5087813868
 C,0,4.0348696671,2.343594387,-2.880376006
 C,0,2.5070656672,2.4193119621,-4.8906693834
 H,0,2.4400424455,3.5117333818,-4.7908800524
 H,0,1.5273751909,2.0810118064,-5.2445514679
 O,0,5.0750977358,1.7536907164,-3.2563283252
 C,0,3.5983104477,2.0400539664,-5.9242611024
 H,0,4.1933683136,1.2013561107,-5.5490352031
 H,0,3.12625807,1.7037721967,-6.8544367489
 C,0,4.5536202442,3.1849871204,-6.3140498375
 H,0,5.2279215127,2.8427546909,-7.1086357168
 H,0,3.9833619259,4.0370356883,-6.7015194945
 N,0,5.340766953,3.6350439987,-5.1586446607
 H,0,5.5165197829,2.9075511471,-4.4381056057
 N,0,5.4518978108,5.9065817453,-5.6479901225
 H,0,5.4729713207,6.8659366486,-5.33611764
 H,0,5.7134943713,5.7316155403,-6.6072511831
 N,0,5.6565296837,5.1376227127,-3.4458600055
 H,0,5.2086168636,4.4820824742,-2.7639831237
 H,0,5.9551487947,6.0501872425,-3.1339190731
 C,0,5.4852487327,4.8921948729,-4.7483021484
 O,0,3.9569724786,3.4096179089,-2.1932886251
 H,0,-3.1576944779,3.8225601855,5.9699790913
 Recover connectivity data from disk.
                           ----------------------------
                           !    Current Parameters    !
                           ! (Angstroms and Degrees)  !
 --------------------------                            --------------------------
 ! Name  Definition              Value                                          !
 --------------------------------------------------------------------------------
 ! R1    R(1,2)                  1.0217                                         !
 ! R2    R(1,3)                  1.0322                                         !
 ! R3    R(1,4)                  1.0742                                         !
 ! R4    R(1,5)                  1.5131                                         !
 ! R5    R(5,6)                  1.0952                                         !
 ! R6    R(5,7)                  1.5532                                         !
 ! R7    R(5,8)                  1.529                                          !
 ! R8    R(7,11)                 1.232                                          !
 ! R9    R(7,18)                 1.3442                                         !
 ! R10   R(8,9)                  1.0953                                         !
 ! R11   R(8,10)                 1.0972                                         !
 ! R12   R(8,12)                 1.5397                                         !
 ! R13   R(12,13)                1.0978                                         !
 ! R14   R(12,14)                1.0935                                         !
 ! R15   R(12,15)                1.5204                                         !
 ! R16   R(15,16)                1.2058                                         !
 ! R17   R(15,17)                1.3542                                         !
 ! R18   R(17,81)                0.9766                                         !
 ! R19   R(18,19)                1.0115                                         !
 ! R20   R(18,20)                1.4746                                         !
 ! R21   R(20,21)                1.0915                                         !
 ! R22   R(20,22)                1.5407                                         !
 ! R23   R(20,23)                1.5409                                         !
 ! R24   R(22,26)                1.2458                                         !
 ! R25   R(22,42)                1.3368                                         !
 ! R26   R(23,24)                1.0975                                         !
 ! R27   R(23,25)                1.0959                                         !
 ! R28   R(23,27)                1.4968                                         !
 ! R29   R(27,28)                1.3752                                         !
 ! R30   R(27,30)                1.4418                                         !
 ! R31   R(28,29)                1.0822                                         !
 ! R32   R(28,34)                1.3801                                         !
 ! R33   R(30,31)                1.421                                          !
 ! R34   R(30,32)                1.406                                          !
 ! R35   R(31,34)                1.3824                                         !
 ! R36   R(31,38)                1.3985                                         !
 ! R37   R(32,33)                1.0871                                         !
 ! R38   R(32,40)                1.3885                                         !
 ! R39   R(34,35)                1.0084                                         !
 ! R40   R(36,37)                1.086                                          !
 ! R41   R(36,38)                1.3898                                         !
 ! R42   R(36,40)                1.4109                                         !
 ! R43   R(38,39)                1.0864                                         !
 ! R44   R(40,41)                1.086                                          !
 ! R45   R(42,43)                1.0179                                         !
 ! R46   R(42,44)                1.4566                                         !
 ! R47   R(44,45)                1.0954                                         !
 ! R48   R(44,46)                1.5465                                         !
 ! R49   R(44,47)                1.557                                          !
 ! R50   R(46,49)                1.2315                                         !
 ! R51   R(46,56)                1.3427                                         !
 ! R52   R(47,48)                1.0974                                         !
 ! R53   R(47,50)                1.5241                                         !
 ! R54   R(47,54)                1.4538                                         !
 ! R55   R(50,51)                1.0931                                         !
 ! R56   R(50,52)                1.094                                          !
 ! R57   R(50,53)                1.0964                                         !
 ! R58   R(54,55)                0.9884                                         !
 ! R59   R(56,57)                1.0172                                         !
 ! R60   R(56,58)                1.4622                                         !
 ! R61   R(58,59)                1.0911                                         !
 ! R62   R(58,60)                1.5444                                         !
 ! R63   R(58,61)                1.5526                                         !
 ! R64   R(60,64)                1.2536                                         !
 ! R65   R(60,80)                1.2707                                         !
 ! R66   R(61,62)                1.099                                          !
 ! R67   R(61,63)                1.0952                                         !
 ! R68   R(61,65)                1.5501                                         !
 ! R69   R(65,66)                1.0947                                         !
 ! R70   R(65,67)                1.096                                          !
 ! R71   R(65,68)                1.5412                                         !
 ! R72   R(68,69)                1.0969                                         !
 ! R73   R(68,70)                1.096                                          !
 ! R74   R(68,71)                1.4687                                         !
 ! R75   R(71,72)                1.0389                                         !
 ! R76   R(71,79)                1.3303                                         !
 ! R77   R(73,74)                1.009                                          !
 ! R78   R(73,75)                1.0096                                         !
 ! R79   R(73,79)                1.3563                                         !
 ! R80   R(76,77)                1.0466                                         !
 ! R81   R(76,78)                1.0096                                         !
 ! R82   R(76,79)                1.3364                                         !
 ! A1    A(2,1,3)              111.0559                                         !
 ! A2    A(2,1,4)              111.628                                          !
 ! A3    A(2,1,5)              113.4434                                         !
 ! A4    A(3,1,4)              105.383                                          !
 ! A5    A(3,1,5)              106.114                                          !
 ! A6    A(4,1,5)              108.7609                                         !
 ! A7    A(1,5,6)              106.8741                                         !
 ! A8    A(1,5,7)              101.1561                                         !
 ! A9    A(1,5,8)              111.1179                                         !
 ! A10   A(6,5,7)              109.8563                                         !
 ! A11   A(6,5,8)              111.2981                                         !
 ! A12   A(7,5,8)              115.7794                                         !
 ! A13   A(5,7,11)             117.2997                                         !
 ! A14   A(5,7,18)             118.3145                                         !
 ! A15   A(11,7,18)            124.0752                                         !
 ! A16   A(5,8,9)              109.8724                                         !
 ! A17   A(5,8,10)             107.0925                                         !
 ! A18   A(5,8,12)             113.8796                                         !
 ! A19   A(9,8,10)             107.2598                                         !
 ! A20   A(9,8,12)             110.1587                                         !
 ! A21   A(10,8,12)            108.3116                                         !
 ! A22   A(8,12,13)            110.4771                                         !
 ! A23   A(8,12,14)            111.5294                                         !
 ! A24   A(8,12,15)            111.3587                                         !
 ! A25   A(13,12,14)           108.9013                                         !
 ! A26   A(13,12,15)           107.1737                                         !
 ! A27   A(14,12,15)           107.2352                                         !
 ! A28   A(12,15,16)           125.2397                                         !
 ! A29   A(12,15,17)           110.5686                                         !
 ! A30   A(16,15,17)           124.1879                                         !
 ! A31   A(15,17,81)           107.2448                                         !
 ! A32   A(7,18,19)            120.1039                                         !
 ! A33   A(7,18,20)            119.3364                                         !
 ! A34   A(19,18,20)           115.0596                                         !
 ! A35   A(18,20,21)           107.9964                                         !
 ! A36   A(18,20,22)           103.1891                                         !
 ! A37   A(18,20,23)           110.127                                          !
 ! A38   A(21,20,22)           112.196                                          !
 ! A39   A(21,20,23)           111.393                                          !
 ! A40   A(22,20,23)           111.567                                          !
 ! A41   A(20,22,26)           119.367                                          !
 ! A42   A(20,22,42)           116.9586                                         !
 ! A43   A(26,22,42)           123.2675                                         !
 ! A44   A(20,23,24)           107.0997                                         !
 ! A45   A(20,23,25)           107.8606                                         !
 ! A46   A(20,23,27)           112.8735                                         !
 ! A47   A(24,23,25)           106.7838                                         !
 ! A48   A(24,23,27)           111.5571                                         !
 ! A49   A(25,23,27)           110.3876                                         !
 ! A50   A(23,27,28)           126.0294                                         !
 ! A51   A(23,27,30)           127.2595                                         !
 ! A52   A(28,27,30)           106.6662                                         !
 ! A53   A(27,28,29)           129.4283                                         !
 ! A54   A(27,28,34)           109.7989                                         !
 ! A55   A(29,28,34)           120.7473                                         !
 ! A56   A(27,30,31)           107.0108                                         !
 ! A57   A(27,30,32)           134.0277                                         !
 ! A58   A(31,30,32)           118.9609                                         !
 ! A59   A(30,31,34)           107.2815                                         !
 ! A60   A(30,31,38)           122.3289                                         !
 ! A61   A(34,31,38)           130.3892                                         !
 ! A62   A(30,32,33)           120.7236                                         !
 ! A63   A(30,32,40)           118.9587                                         !
 ! A64   A(33,32,40)           120.3112                                         !
 ! A65   A(28,34,31)           109.2392                                         !
 ! A66   A(28,34,35)           125.2522                                         !
 ! A67   A(31,34,35)           125.1684                                         !
 ! A68   A(37,36,38)           119.3244                                         !
 ! A69   A(37,36,40)           119.3367                                         !
 ! A70   A(38,36,40)           121.3384                                         !
 ! A71   A(31,38,36)           117.3543                                         !
 ! A72   A(31,38,39)           121.3525                                         !
 ! A73   A(36,38,39)           121.2929                                         !
 ! A74   A(32,40,36)           121.0588                                         !
 ! A75   A(32,40,41)           119.7008                                         !
 ! A76   A(36,40,41)           119.2398                                         !
 ! A77   A(22,42,43)           121.9421                                         !
 ! A78   A(22,42,44)           123.3576                                         !
 ! A79   A(43,42,44)           113.9873                                         !
 ! A80   A(42,44,45)           108.7784                                         !
 ! A81   A(42,44,46)           105.3763                                         !
 ! A82   A(42,44,47)           112.1485                                         !
 ! A83   A(45,44,46)           112.1752                                         !
 ! A84   A(45,44,47)           109.2833                                         !
 ! A85   A(46,44,47)           109.0704                                         !
 ! A86   A(44,46,49)           118.6994                                         !
 ! A87   A(44,46,56)           115.8394                                         !
 ! A88   A(49,46,56)           125.4407                                         !
 ! A89   A(44,47,48)           107.1537                                         !
 ! A90   A(44,47,50)           113.3712                                         !
 ! A91   A(44,47,54)           111.0022                                         !
 ! A92   A(48,47,50)           110.8463                                         !
 ! A93   A(48,47,54)           105.6734                                         !
 ! A94   A(50,47,54)           108.5263                                         !
 ! A95   A(47,50,51)           112.9972                                         !
 ! A96   A(47,50,52)           109.2139                                         !
 ! A97   A(47,50,53)           110.0538                                         !
 ! A98   A(51,50,52)           108.3452                                         !
 ! A99   A(51,50,53)           108.3061                                         !
 ! A100  A(52,50,53)           107.7783                                         !
 ! A101  A(47,54,55)           108.9724                                         !
 ! A102  A(46,56,57)           120.2812                                         !
 ! A103  A(46,56,58)           123.4342                                         !
 ! A104  A(57,56,58)           111.7465                                         !
 ! A105  A(56,58,59)           108.7129                                         !
 ! A106  A(56,58,60)           108.2758                                         !
 ! A107  A(56,58,61)           109.9617                                         !
 ! A108  A(59,58,60)           110.5086                                         !
 ! A109  A(59,58,61)           110.0529                                         !
 ! A110  A(60,58,61)           109.3032                                         !
 ! A111  A(58,60,64)           116.5153                                         !
 ! A112  A(58,60,80)           115.5237                                         !
 ! A113  A(64,60,80)           127.4337                                         !
 ! A114  A(58,61,62)           107.517                                          !
 ! A115  A(58,61,63)           106.9273                                         !
 ! A116  A(58,61,65)           115.5071                                         !
 ! A117  A(62,61,63)           106.3692                                         !
 ! A118  A(62,61,65)           110.2834                                         !
 ! A119  A(63,61,65)           109.7973                                         !
 ! A120  A(61,65,66)           109.9724                                         !
 ! A121  A(61,65,67)           109.7408                                         !
 ! A122  A(61,65,68)           115.038                                          !
 ! A123  A(66,65,67)           106.8563                                         !
 ! A124  A(66,65,68)           108.597                                          !
 ! A125  A(67,65,68)           106.2758                                         !
 ! A126  A(65,68,69)           109.4184                                         !
 ! A127  A(65,68,70)           110.1456                                         !
 ! A128  A(65,68,71)           111.1539                                         !
 ! A129  A(69,68,70)           107.8364                                         !
 ! A130  A(69,68,71)           109.634                                          !
 ! A131  A(70,68,71)           108.5864                                         !
 ! A132  A(68,71,72)           114.9418                                         !
 ! A133  A(68,71,79)           126.1889                                         !
 ! A134  A(72,71,79)           115.4322                                         !
 ! A135  A(74,73,75)           116.9402                                         !
 ! A136  A(74,73,79)           120.3691                                         !
 ! A137  A(75,73,79)           119.6235                                         !
 ! A138  A(77,76,78)           119.4363                                         !
 ! A139  A(77,76,79)           117.7166                                         !
 ! A140  A(78,76,79)           120.3343                                         !
 ! A141  A(71,79,73)           119.9671                                         !
 ! A142  A(71,79,76)           119.2156                                         !
 ! A143  A(73,79,76)           120.8166                                         !
 ! D1    D(2,1,5,6)            -53.1187                                         !
 ! D2    D(2,1,5,7)           -168.0543                                         !
 ! D3    D(2,1,5,8)             68.485                                          !
 ! D4    D(3,1,5,6)             69.0827                                         !
 ! D5    D(3,1,5,7)            -45.8529                                         !
 ! D6    D(3,1,5,8)           -169.3136                                         !
 ! D7    D(4,1,5,6)           -177.9789                                         !
 ! D8    D(4,1,5,7)             67.0855                                         !
 ! D9    D(4,1,5,8)            -56.3751                                         !
 ! D10   D(1,5,7,11)            33.0545                                         !
 ! D11   D(1,5,7,18)          -140.8091                                         !
 ! D12   D(6,5,7,11)           -79.6377                                         !
 ! D13   D(6,5,7,18)           106.4987                                         !
 ! D14   D(8,5,7,11)           153.2572                                         !
 ! D15   D(8,5,7,18)           -20.6064                                         !
 ! D16   D(1,5,8,9)             66.935                                          !
 ! D17   D(1,5,8,10)          -176.8835                                         !
 ! D18   D(1,5,8,12)           -57.1737                                         !
 ! D19   D(6,5,8,9)           -174.0824                                         !
 ! D20   D(6,5,8,10)           -57.9009                                         !
 ! D21   D(6,5,8,12)            61.8089                                         !
 ! D22   D(7,5,8,9)            -47.7023                                         !
 ! D23   D(7,5,8,10)            68.4791                                         !
 ! D24   D(7,5,8,12)          -171.811                                          !
 ! D25   D(5,7,18,19)           -4.4615                                         !
 ! D26   D(5,7,18,20)          148.094                                          !
 ! D27   D(11,7,18,19)        -177.8763                                         !
 ! D28   D(11,7,18,20)         -25.3208                                         !
 ! D29   D(5,8,12,13)           67.2114                                         !
 ! D30   D(5,8,12,14)          -54.0567                                         !
 ! D31   D(5,8,12,15)         -173.8113                                         !
 ! D32   D(9,8,12,13)          -56.7429                                         !
 ! D33   D(9,8,12,14)         -178.011                                          !
 ! D34   D(9,8,12,15)           62.2345                                         !
 ! D35   D(10,8,12,13)        -173.7704                                         !
 ! D36   D(10,8,12,14)          64.9615                                         !
 ! D37   D(10,8,12,15)         -54.793                                          !
 ! D38   D(8,12,15,16)         119.5238                                         !
 ! D39   D(8,12,15,17)         -59.7913                                         !
 ! D40   D(13,12,15,16)       -119.5443                                         !
 ! D41   D(13,12,15,17)         61.1407                                         !
 ! D42   D(14,12,15,16)         -2.7447                                         !
 ! D43   D(14,12,15,17)        177.9402                                         !
 ! D44   D(12,15,17,81)       -179.9662                                         !
 ! D45   D(16,15,17,81)          0.7101                                         !
 ! D46   D(7,18,20,21)          58.5152                                         !
 ! D47   D(7,18,20,22)         -60.4382                                         !
 ! D48   D(7,18,20,23)        -179.6465                                         !
 ! D49   D(19,18,20,21)       -147.5987                                         !
 ! D50   D(19,18,20,22)         93.448                                          !
 ! D51   D(19,18,20,23)        -25.7604                                         !
 ! D52   D(18,20,22,26)        -65.5965                                         !
 ! D53   D(18,20,22,42)        107.3227                                         !
 ! D54   D(21,20,22,26)        178.4055                                         !
 ! D55   D(21,20,22,42)         -8.6753                                         !
 ! D56   D(23,20,22,26)         52.6105                                         !
 ! D57   D(23,20,22,42)       -134.4703                                         !
 ! D58   D(18,20,23,24)       -170.6437                                         !
 ! D59   D(18,20,23,25)         74.7397                                         !
 ! D60   D(18,20,23,27)        -47.4813                                         !
 ! D61   D(21,20,23,24)        -50.8438                                         !
 ! D62   D(21,20,23,25)       -165.4604                                         !
 ! D63   D(21,20,23,27)         72.3185                                         !
 ! D64   D(22,20,23,24)         75.3928                                         !
 ! D65   D(22,20,23,25)        -39.2238                                         !
 ! D66   D(22,20,23,27)       -161.4449                                         !
 ! D67   D(20,22,42,43)         -2.1715                                         !
 ! D68   D(20,22,42,44)       -171.9096                                         !
 ! D69   D(26,22,42,43)        170.4464                                         !
 ! D70   D(26,22,42,44)          0.7083                                         !
 ! D71   D(20,23,27,28)        115.2493                                         !
 ! D72   D(20,23,27,30)        -61.9831                                         !
 ! D73   D(24,23,27,28)       -124.1004                                         !
 ! D74   D(24,23,27,30)         58.6673                                         !
 ! D75   D(25,23,27,28)         -5.5421                                         !
 ! D76   D(25,23,27,30)        177.2256                                         !
 ! D77   D(23,27,28,29)          4.4101                                         !
 ! D78   D(23,27,28,34)       -177.4495                                         !
 ! D79   D(30,27,28,29)       -177.889                                          !
 ! D80   D(30,27,28,34)          0.2514                                         !
 ! D81   D(23,27,30,31)        177.7844                                         !
 ! D82   D(23,27,30,32)         -2.5203                                         !
 ! D83   D(28,27,30,31)          0.1205                                         !
 ! D84   D(28,27,30,32)        179.8158                                         !
 ! D85   D(27,28,34,31)         -0.5432                                         !
 ! D86   D(27,28,34,35)       -174.1179                                         !
 ! D87   D(29,28,34,31)        177.7855                                         !
 ! D88   D(29,28,34,35)          4.2108                                         !
 ! D89   D(27,30,31,34)         -0.4424                                         !
 ! D90   D(27,30,31,38)        179.7665                                         !
 ! D91   D(32,30,31,34)        179.808                                          !
 ! D92   D(32,30,31,38)          0.017                                          !
 ! D93   D(27,30,32,33)         -0.6471                                         !
 ! D94   D(27,30,32,40)       -179.7198                                         !
 ! D95   D(31,30,32,33)        179.0199                                         !
 ! D96   D(31,30,32,40)         -0.0528                                         !
 ! D97   D(30,31,34,28)          0.6053                                         !
 ! D98   D(30,31,34,35)        174.1866                                         !
 ! D99   D(38,31,34,28)       -179.6266                                         !
 ! D100  D(38,31,34,35)         -6.0453                                         !
 ! D101  D(30,31,38,36)          0.0582                                         !
 ! D102  D(30,31,38,39)       -179.7314                                         !
 ! D103  D(34,31,38,36)       -179.6798                                         !
 ! D104  D(34,31,38,39)          0.5306                                         !
 ! D105  D(30,32,40,36)          0.0136                                         !
 ! D106  D(30,32,40,41)        179.7129                                         !
 ! D107  D(33,32,40,36)       -179.063                                          !
 ! D108  D(33,32,40,41)          0.6362                                         !
 ! D109  D(37,36,38,31)       -179.8335                                         !
 ! D110  D(37,36,38,39)         -0.0438                                         !
 ! D111  D(40,36,38,31)         -0.0984                                         !
 ! D112  D(40,36,38,39)        179.6913                                         !
 ! D113  D(37,36,40,32)        179.8                                            !
 ! D114  D(37,36,40,41)          0.0994                                         !
 ! D115  D(38,36,40,32)          0.0649                                         !
 ! D116  D(38,36,40,41)       -179.6356                                         !
 ! D117  D(22,42,44,45)        -44.0792                                         !
 ! D118  D(22,42,44,46)       -164.5408                                         !
 ! D119  D(22,42,44,47)         76.9178                                         !
 ! D120  D(43,42,44,45)        145.4449                                         !
 ! D121  D(43,42,44,46)         24.9833                                         !
 ! D122  D(43,42,44,47)        -93.5581                                         !
 ! D123  D(42,44,46,49)        -30.1467                                         !
 ! D124  D(42,44,46,56)        151.4108                                         !
 ! D125  D(45,44,46,49)       -148.3507                                         !
 ! D126  D(45,44,46,56)         33.2068                                         !
 ! D127  D(47,44,46,49)         90.4357                                         !
 ! D128  D(47,44,46,56)        -88.0068                                         !
 ! D129  D(42,44,47,48)         67.0514                                         !
 ! D130  D(42,44,47,50)       -170.326                                          !
 ! D131  D(42,44,47,54)        -47.8684                                         !
 ! D132  D(45,44,47,48)       -172.2432                                         !
 ! D133  D(45,44,47,50)        -49.6206                                         !
 ! D134  D(45,44,47,54)         72.837                                          !
 ! D135  D(46,44,47,48)        -49.2838                                         !
 ! D136  D(46,44,47,50)         73.3388                                         !
 ! D137  D(46,44,47,54)       -164.2036                                         !
 ! D138  D(44,46,56,57)          7.9565                                         !
 ! D139  D(44,46,56,58)        162.0666                                         !
 ! D140  D(49,46,56,57)       -170.3666                                         !
 ! D141  D(49,46,56,58)        -16.2565                                         !
 ! D142  D(44,47,50,51)        -62.1002                                         !
 ! D143  D(44,47,50,52)        177.2361                                         !
 ! D144  D(44,47,50,53)         59.1088                                         !
 ! D145  D(48,47,50,51)         58.4543                                         !
 ! D146  D(48,47,50,52)        -62.2094                                         !
 ! D147  D(48,47,50,53)        179.6633                                         !
 ! D148  D(54,47,50,51)        174.0795                                         !
 ! D149  D(54,47,50,52)         53.4158                                         !
 ! D150  D(54,47,50,53)        -64.7116                                         !
 ! D151  D(44,47,54,55)        -22.7448                                         !
 ! D152  D(48,47,54,55)       -138.5838                                         !
 ! D153  D(50,47,54,55)        102.4803                                         !
 ! D154  D(46,56,58,59)         -6.9359                                         !
 ! D155  D(46,56,58,60)       -127.0298                                         !
 ! D156  D(46,56,58,61)        113.6079                                         !
 ! D157  D(57,56,58,59)        149.1128                                         !
 ! D158  D(57,56,58,60)         29.0189                                         !
 ! D159  D(57,56,58,61)        -90.3434                                         !
 ! D160  D(56,58,60,64)        159.7978                                         !
 ! D161  D(56,58,60,80)        -27.9026                                         !
 ! D162  D(59,58,60,64)         40.8335                                         !
 ! D163  D(59,58,60,80)       -146.8669                                         !
 ! D164  D(61,58,60,64)        -80.4258                                         !
 ! D165  D(61,58,60,80)         91.8737                                         !
 ! D166  D(56,58,61,62)         55.9198                                         !
 ! D167  D(56,58,61,63)        -57.9696                                         !
 ! D168  D(56,58,61,65)        179.5185                                         !
 ! D169  D(59,58,61,62)        175.6516                                         !
 ! D170  D(59,58,61,63)         61.7622                                         !
 ! D171  D(59,58,61,65)        -60.7498                                         !
 ! D172  D(60,58,61,62)        -62.8131                                         !
 ! D173  D(60,58,61,63)       -176.7025                                         !
 ! D174  D(60,58,61,65)         60.7855                                         !
 ! D175  D(58,61,65,66)         14.9098                                         !
 ! D176  D(58,61,65,67)        132.1813                                         !
 ! D177  D(58,61,65,68)       -108.0651                                         !
 ! D178  D(62,61,65,66)        137.0422                                         !
 ! D179  D(62,61,65,67)       -105.6863                                         !
 ! D180  D(62,61,65,68)         14.0674                                         !
 ! D181  D(63,61,65,66)       -106.0621                                         !
 ! D182  D(63,61,65,67)         11.2095                                         !
 ! D183  D(63,61,65,68)        130.9631                                         !
 ! D184  D(61,65,68,69)       -175.1161                                         !
 ! D185  D(61,65,68,70)        -56.7399                                         !
 ! D186  D(61,65,68,71)         63.6572                                         !
 ! D187  D(66,65,68,69)         61.1775                                         !
 ! D188  D(66,65,68,70)        179.5537                                         !
 ! D189  D(66,65,68,71)        -60.0492                                         !
 ! D190  D(67,65,68,69)        -53.4652                                         !
 ! D191  D(67,65,68,70)         64.911                                          !
 ! D192  D(67,65,68,71)       -174.6919                                         !
 ! D193  D(65,68,71,72)         28.5338                                         !
 ! D194  D(65,68,71,79)       -129.4487                                         !
 ! D195  D(69,68,71,72)        -92.5665                                         !
 ! D196  D(69,68,71,79)        109.4511                                         !
 ! D197  D(70,68,71,72)        149.8482                                         !
 ! D198  D(70,68,71,79)         -8.1343                                         !
 ! D199  D(68,71,79,73)        -30.7681                                         !
 ! D200  D(68,71,79,76)        148.9485                                         !
 ! D201  D(72,71,79,73)        171.3429                                         !
 ! D202  D(72,71,79,76)         -8.9404                                         !
 ! D203  D(74,73,79,71)        174.1897                                         !
 ! D204  D(74,73,79,76)         -5.5223                                         !
 ! D205  D(75,73,79,71)        -26.2132                                         !
 ! D206  D(75,73,79,76)        154.0747                                         !
 ! D207  D(77,76,79,71)        -30.6865                                         !
 ! D208  D(77,76,79,73)        149.0276                                         !
 ! D209  D(78,76,79,71)        167.3894                                         !
 ! D210  D(78,76,79,73)        -12.8964                                         !
 --------------------------------------------------------------------------------
 Symmetry turned off by external request.
 Stoichiometry    C26H39N8O8(1+)
 Framework group  C1[X(C26H39N8O8)]
 Deg. of freedom   237
 Full point group                 C1      NOp   1
                          Input orientation:                          
 ---------------------------------------------------------------------
 Center     Atomic      Atomic             Coordinates (Angstroms)
 Number     Number       Type             X           Y           Z
 ---------------------------------------------------------------------
      1          7           0       -0.758800   -0.451550    2.969529
      2          1           0       -0.306092   -0.622068    3.869482
      3          1           0       -0.498052   -1.174412    2.280364
      4          1           0       -0.443663    0.480390    2.538063
      5          6           0       -2.270022   -0.467323    3.043303
      6          1           0       -2.555233   -1.411502    3.519468
      7          6           0       -2.644118   -0.502387    1.536238
      8          6           0       -2.795656    0.733018    3.831184
      9          1           0       -2.589505    1.658001    3.282039
     10          1           0       -3.885952    0.626542    3.891820
     11          8           0       -1.882859   -1.106458    0.778969
     12          6           0       -2.238752    0.830825    5.263340
     13          1           0       -1.163060    1.049248    5.243039
     14          1           0       -2.401675   -0.095337    5.821377
     15          6           0       -2.909537    1.950469    6.043029
     16          8           0       -3.544587    1.807894    7.058048
     17          8           0       -2.709711    3.142077    5.431499
     18          7           0       -3.696358    0.225152    1.123407
     19          1           0       -4.263909    0.723518    1.796262
     20          6           0       -3.689570    0.799062   -0.234931
     21          1           0       -3.584680   -0.021381   -0.947148
     22          6           0       -2.454196    1.719624   -0.221438
     23          6           0       -4.986135    1.594618   -0.480913
     24          1           0       -5.008516    1.853496   -1.547164
     25          1           0       -4.911846    2.537739    0.072220
     26          8           0       -2.444528    2.718269    0.523354
     27          6           0       -6.215225    0.845142   -0.071024
     28          6           0       -7.081246    1.200805    0.936289
     29          1           0       -7.084347    2.085469    1.559601
     30          6           0       -6.694054   -0.405333   -0.605694
     31          6           0       -7.862016   -0.750414    0.126350
     32          6           0       -6.255367   -1.261650   -1.630927
     33          1           0       -5.374618   -1.017617   -2.219540
     34          7           0       -8.067351    0.243862    1.064560
     35          1           0       -8.868487    0.311620    1.673213
     36          6           0       -8.133093   -2.740445   -1.154209
     37          1           0       -8.677710   -3.650763   -1.386844
     38          6           0       -8.592713   -1.913657   -0.136061
     39          1           0       -9.486189   -2.159902    0.430832
     40          6           0       -6.976492   -2.418324   -1.895323
     41          1           0       -6.651113   -3.085984   -2.687655
     42          7           0       -1.386253    1.310910   -0.913896
     43          1           0       -1.370522    0.417950   -1.402196
     44          6           0       -0.093325    1.979651   -0.860810
     45          1           0       -0.253353    3.061754   -0.919259
     46          6           0        0.697589    1.440109   -2.075327
     47          6           0        0.687461    1.645082    0.444063
     48          1           0        0.950681    0.580681    0.399836
     49          8           0        0.467192    0.296710   -2.470453
     50          6           0        1.931154    2.503586    0.641392
     51          1           0        2.672785    2.369350   -0.150377
     52          1           0        2.397621    2.247265    1.597143
     53          1           0        1.654244    3.563795    0.677705
     54          8           0       -0.164588    1.790714    1.612960
     55          1           0       -0.910524    2.400667    1.392883
     56          7           0        1.615861    2.272237   -2.592180
     57          1           0        1.844342    3.142498   -2.117631
     58          6           0        2.701309    1.831038   -3.466995
     59          1           0        2.696037    0.740725   -3.508781
     60          6           0        4.034870    2.343594   -2.880376
     61          6           0        2.507066    2.419312   -4.890669
     62          1           0        2.440042    3.511733   -4.790880
     63          1           0        1.527375    2.081012   -5.244551
     64          8           0        5.075098    1.753691   -3.256328
     65          6           0        3.598310    2.040054   -5.924261
     66          1           0        4.193368    1.201356   -5.549035
     67          1           0        3.126258    1.703772   -6.854437
     68          6           0        4.553620    3.184987   -6.314050
     69          1           0        5.227922    2.842755   -7.108636
     70          1           0        3.983362    4.037036   -6.701519
     71          7           0        5.340767    3.635044   -5.158645
     72          1           0        5.516520    2.907551   -4.438106
     73          7           0        5.451898    5.906582   -5.647990
     74          1           0        5.472971    6.865937   -5.336118
     75          1           0        5.713494    5.731616   -6.607251
     76          7           0        5.656530    5.137623   -3.445860
     77          1           0        5.208617    4.482082   -2.763983
     78          1           0        5.955149    6.050187   -3.133919
     79          6           0        5.485249    4.892195   -4.748302
     80          8           0        3.956972    3.409618   -2.193289
     81          1           0       -3.157694    3.822560    5.969979
 ---------------------------------------------------------------------
 Rotational constants (GHZ):           0.1126379           0.0324753           0.0273143
 Standard basis: 6-31G(d) (6D, 7F)
   708 basis functions,  1332 primitive gaussians,   708 cartesian basis functions
   157 alpha electrons      157 beta electrons
       nuclear repulsion energy      5087.8714837409 Hartrees.
 NAtoms=   81 NActive=   81 NUniq=   81 SFac= 1.00D+00 NAtFMM=   60 NAOKFM=T Big=T
 Integral buffers will be    131072 words long.
 Raffenetti 2 integral format.
 Two-electron integral symmetry is turned off.
 Nuclear repulsion after empirical dispersion term =     5087.7646426347 Hartrees.
 One-electron integrals computed using PRISM.
 NBasis=   708 RedAO= T EigKep=  3.73D-04  NBF=   708
 NBsUse=   708 1.00D-06 EigRej= -1.00D+00 NBFU=   708
 Initial guess from the checkpoint file:  "conf-126.chk"
 B after Tr=     0.000000    0.000000    0.000000
         Rot=    1.000000    0.000000    0.000000    0.000000 Ang=   0.00 deg.
 Requested convergence on RMS density matrix=1.00D-08 within 128 cycles.
 Requested convergence on MAX density matrix=1.00D-06.
 Requested convergence on             energy=1.00D-06.
 No special actions if energy rises.
 SCF Done:  E(RB3LYP) =  -2054.05361585     A.U. after    1 cycles
            NFock=  1  Conv=0.38D-08     -V/T= 2.0093

 **********************************************************************

            Population analysis using the SCF Density.

 **********************************************************************

 Alpha  occ. eigenvalues --  -19.29357 -19.26572 -19.24983 -19.23693 -19.22370
 Alpha  occ. eigenvalues --  -19.19719 -19.16321 -19.15121 -14.56737 -14.48448
 Alpha  occ. eigenvalues --  -14.47347 -14.46461 -14.45299 -14.44597 -14.44496
 Alpha  occ. eigenvalues --  -14.43302 -10.42188 -10.42163 -10.42116 -10.39366
 Alpha  occ. eigenvalues --  -10.39321 -10.37090 -10.34814 -10.34140 -10.33517
 Alpha  occ. eigenvalues --  -10.33484 -10.33222 -10.32383 -10.30965 -10.29716
 Alpha  occ. eigenvalues --  -10.28869 -10.28626 -10.28473 -10.26172 -10.26072
 Alpha  occ. eigenvalues --  -10.25997 -10.25826 -10.25507 -10.25448 -10.25391
 Alpha  occ. eigenvalues --  -10.24956 -10.24594  -1.20177  -1.17639  -1.14783
 Alpha  occ. eigenvalues --   -1.12766  -1.11690  -1.11395  -1.11013  -1.10787
 Alpha  occ. eigenvalues --   -1.09010  -1.05298  -1.04963  -1.02662  -1.01016
 Alpha  occ. eigenvalues --   -0.99936  -0.99496  -0.98404  -0.93937  -0.90752
 Alpha  occ. eigenvalues --   -0.89676  -0.87967  -0.86603  -0.86315  -0.84117
 Alpha  occ. eigenvalues --   -0.81846  -0.80426  -0.80161  -0.78863  -0.77345
 Alpha  occ. eigenvalues --   -0.75249  -0.74358  -0.72692  -0.72446  -0.71853
 Alpha  occ. eigenvalues --   -0.70885  -0.70674  -0.69428  -0.69147  -0.68733
 Alpha  occ. eigenvalues --   -0.68126  -0.66902  -0.66500  -0.65880  -0.65121
 Alpha  occ. eigenvalues --   -0.64393  -0.63441  -0.63242  -0.61847  -0.61362
 Alpha  occ. eigenvalues --   -0.60851  -0.60311  -0.60161  -0.59810  -0.59246
 Alpha  occ. eigenvalues --   -0.58924  -0.57750  -0.57478  -0.57133  -0.56161
 Alpha  occ. eigenvalues --   -0.55440  -0.55162  -0.54620  -0.54142  -0.53985
 Alpha  occ. eigenvalues --   -0.53663  -0.53302  -0.52746  -0.52620  -0.52029
 Alpha  occ. eigenvalues --   -0.51764  -0.51645  -0.50555  -0.50204  -0.50048
 Alpha  occ. eigenvalues --   -0.49741  -0.49651  -0.49376  -0.49044  -0.48799
 Alpha  occ. eigenvalues --   -0.48511  -0.48350  -0.48254  -0.47939  -0.47569
 Alpha  occ. eigenvalues --   -0.47312  -0.47094  -0.46622  -0.46205  -0.46156
 Alpha  occ. eigenvalues --   -0.45376  -0.44964  -0.43975  -0.43133  -0.42218
 Alpha  occ. eigenvalues --   -0.42038  -0.41538  -0.41488  -0.40598  -0.40279
 Alpha  occ. eigenvalues --   -0.40079  -0.39557  -0.39151  -0.38736  -0.37922
 Alpha  occ. eigenvalues --   -0.37077  -0.36765  -0.35241  -0.34849  -0.34371
 Alpha  occ. eigenvalues --   -0.33926  -0.33736  -0.31623  -0.30735  -0.29151
 Alpha  occ. eigenvalues --   -0.28766  -0.27608
 Alpha virt. eigenvalues --   -0.12684  -0.09522  -0.09049  -0.08032  -0.07259
 Alpha virt. eigenvalues --   -0.07172  -0.06082  -0.04379  -0.03368  -0.03263
 Alpha virt. eigenvalues --   -0.02290  -0.02003  -0.01502  -0.01138  -0.00607
 Alpha virt. eigenvalues --   -0.00252   0.00479   0.00653   0.01081   0.01473
 Alpha virt. eigenvalues --    0.01692   0.02620   0.03078   0.03501   0.03670
 Alpha virt. eigenvalues --    0.03720   0.04289   0.04585   0.05050   0.05315
 Alpha virt. eigenvalues --    0.05689   0.06452   0.06666   0.06894   0.07074
 Alpha virt. eigenvalues --    0.07439   0.07607   0.08122   0.08703   0.08972
 Alpha virt. eigenvalues --    0.09226   0.09563   0.09937   0.10322   0.10531
 Alpha virt. eigenvalues --    0.10674   0.11014   0.11278   0.12014   0.12127
 Alpha virt. eigenvalues --    0.12564   0.12973   0.13063   0.13685   0.14030
 Alpha virt. eigenvalues --    0.14474   0.14940   0.15140   0.15592   0.15826
 Alpha virt. eigenvalues --    0.15910   0.16474   0.16782   0.17222   0.17807
 Alpha virt. eigenvalues --    0.18148   0.18549   0.19440   0.20166   0.21628
 Alpha virt. eigenvalues --    0.21733   0.22055   0.22192   0.23007   0.24165
 Alpha virt. eigenvalues --    0.25071   0.25616   0.26854   0.27348   0.28214
 Alpha virt. eigenvalues --    0.28799   0.29174   0.29893   0.30408   0.32305
 Alpha virt. eigenvalues --    0.32706   0.33222   0.35104   0.36523   0.37372
 Alpha virt. eigenvalues --    0.38411   0.38836   0.39429   0.39531   0.41578
 Alpha virt. eigenvalues --    0.41931   0.42145   0.42791   0.43150   0.43655
 Alpha virt. eigenvalues --    0.44428   0.44675   0.45181   0.45655   0.46015
 Alpha virt. eigenvalues --    0.46524   0.46690   0.47161   0.47328   0.47349
 Alpha virt. eigenvalues --    0.48061   0.48326   0.48485   0.48941   0.49283
 Alpha virt. eigenvalues --    0.49777   0.49803   0.49943   0.50883   0.51311
 Alpha virt. eigenvalues --    0.51632   0.51741   0.52171   0.52406   0.53162
 Alpha virt. eigenvalues --    0.53536   0.53723   0.54067   0.54503   0.54829
 Alpha virt. eigenvalues --    0.55069   0.55580   0.55853   0.56225   0.56295
 Alpha virt. eigenvalues --    0.56779   0.56914   0.56948   0.57512   0.58179
 Alpha virt. eigenvalues --    0.58355   0.58500   0.58899   0.59638   0.60037
 Alpha virt. eigenvalues --    0.60503   0.60822   0.61257   0.61444   0.61815
 Alpha virt. eigenvalues --    0.62868   0.62969   0.63185   0.64416   0.65232
 Alpha virt. eigenvalues --    0.65938   0.66310   0.67279   0.67342   0.67802
 Alpha virt. eigenvalues --    0.68129   0.68713   0.69204   0.69592   0.69833
 Alpha virt. eigenvalues --    0.70157   0.70540   0.70907   0.71693   0.72623
 Alpha virt. eigenvalues --    0.73113   0.73590   0.73793   0.74291   0.74438
 Alpha virt. eigenvalues --    0.74752   0.75255   0.75468   0.76252   0.76454
 Alpha virt. eigenvalues --    0.76593   0.76754   0.76900   0.77329   0.77528
 Alpha virt. eigenvalues --    0.77805   0.78180   0.78610   0.79091   0.79341
 Alpha virt. eigenvalues --    0.79478   0.79773   0.79983   0.80171   0.80622
 Alpha virt. eigenvalues --    0.80981   0.81286   0.81595   0.82134   0.82533
 Alpha virt. eigenvalues --    0.83012   0.83200   0.83609   0.84348   0.84479
 Alpha virt. eigenvalues --    0.84934   0.85403   0.85697   0.85995   0.86098
 Alpha virt. eigenvalues --    0.86702   0.86949   0.87612   0.88127   0.88323
 Alpha virt. eigenvalues --    0.88595   0.89328   0.90057   0.90292   0.91230
 Alpha virt. eigenvalues --    0.91774   0.92194   0.92624   0.93032   0.93273
 Alpha virt. eigenvalues --    0.93599   0.94528   0.95430   0.96487   0.96632
 Alpha virt. eigenvalues --    0.97424   0.98076   0.98257   0.99735   1.00176
 Alpha virt. eigenvalues --    1.00464   1.00769   1.01423   1.02772   1.02902
 Alpha virt. eigenvalues --    1.05043   1.05127   1.05945   1.06642   1.06824
 Alpha virt. eigenvalues --    1.07096   1.07476   1.07899   1.09713   1.10042
 Alpha virt. eigenvalues --    1.11124   1.11898   1.12395   1.12670   1.13002
 Alpha virt. eigenvalues --    1.13436   1.13802   1.14660   1.15921   1.16654
 Alpha virt. eigenvalues --    1.17756   1.18285   1.19273   1.19894   1.20328
 Alpha virt. eigenvalues --    1.22344   1.22553   1.23376   1.24999   1.25335
 Alpha virt. eigenvalues --    1.26336   1.26843   1.27141   1.27460   1.28309
 Alpha virt. eigenvalues --    1.28464   1.29243   1.30411   1.30954   1.31211
 Alpha virt. eigenvalues --    1.33163   1.33759   1.34098   1.34279   1.35309
 Alpha virt. eigenvalues --    1.35743   1.36389   1.37200   1.38101   1.39341
 Alpha virt. eigenvalues --    1.40114   1.41180   1.41596   1.42272   1.42732
 Alpha virt. eigenvalues --    1.42864   1.43641   1.44104   1.44213   1.44594
 Alpha virt. eigenvalues --    1.45290   1.45621   1.46269   1.47358   1.47700
 Alpha virt. eigenvalues --    1.48918   1.49767   1.52055   1.53019   1.53789
 Alpha virt. eigenvalues --    1.54079   1.55001   1.55662   1.56466   1.58027
 Alpha virt. eigenvalues --    1.58323   1.58771   1.58800   1.60643   1.61764
 Alpha virt. eigenvalues --    1.62623   1.62820   1.63386   1.64273   1.64581
 Alpha virt. eigenvalues --    1.66266   1.67026   1.67125   1.67464   1.68422
 Alpha virt. eigenvalues --    1.69307   1.69700   1.70266   1.70382   1.70955
 Alpha virt. eigenvalues --    1.71406   1.72140   1.72913   1.73308   1.73684
 Alpha virt. eigenvalues --    1.74225   1.74443   1.74607   1.74731   1.75020
 Alpha virt. eigenvalues --    1.76615   1.76816   1.77188   1.78111   1.78281
 Alpha virt. eigenvalues --    1.79410   1.80223   1.80907   1.81217   1.81302
 Alpha virt. eigenvalues --    1.81477   1.82516   1.82685   1.83366   1.83708
 Alpha virt. eigenvalues --    1.84203   1.84529   1.84867   1.85287   1.85735
 Alpha virt. eigenvalues --    1.86305   1.86538   1.87449   1.88753   1.88793
 Alpha virt. eigenvalues --    1.88918   1.89166   1.90674   1.90876   1.91934
 Alpha virt. eigenvalues --    1.92610   1.93359   1.93629   1.93845   1.94452
 Alpha virt. eigenvalues --    1.95069   1.95884   1.96336   1.96483   1.97010
 Alpha virt. eigenvalues --    1.98397   1.98801   1.99102   1.99656   1.99895
 Alpha virt. eigenvalues --    2.00963   2.01845   2.02443   2.02688   2.03143
 Alpha virt. eigenvalues --    2.04676   2.05941   2.07235   2.07446   2.08253
 Alpha virt. eigenvalues --    2.08818   2.09650   2.10008   2.10436   2.11212
 Alpha virt. eigenvalues --    2.11801   2.12184   2.12683   2.13294   2.14208
 Alpha virt. eigenvalues --    2.15062   2.16112   2.17398   2.17764   2.18664
 Alpha virt. eigenvalues --    2.19081   2.19396   2.20200   2.20985   2.22289
 Alpha virt. eigenvalues --    2.22745   2.23716   2.24593   2.25085   2.25984
 Alpha virt. eigenvalues --    2.26169   2.27146   2.27673   2.28079   2.28521
 Alpha virt. eigenvalues --    2.29743   2.30657   2.31319   2.31607   2.32480
 Alpha virt. eigenvalues --    2.33939   2.34416   2.34782   2.36145   2.36706
 Alpha virt. eigenvalues --    2.37488   2.38903   2.39975   2.40894   2.42193
 Alpha virt. eigenvalues --    2.42978   2.43200   2.43623   2.45119   2.45687
 Alpha virt. eigenvalues --    2.46316   2.46947   2.48835   2.49562   2.50355
 Alpha virt. eigenvalues --    2.50744   2.50957   2.51662   2.52597   2.52958
 Alpha virt. eigenvalues --    2.53876   2.55007   2.55752   2.56343   2.57714
 Alpha virt. eigenvalues --    2.58042   2.59181   2.59960   2.60854   2.61459
 Alpha virt. eigenvalues --    2.62755   2.64222   2.65167   2.65283   2.65724
 Alpha virt. eigenvalues --    2.66559   2.67004   2.69458   2.69861   2.71044
 Alpha virt. eigenvalues --    2.71565   2.73164   2.74174   2.75744   2.76322
 Alpha virt. eigenvalues --    2.78355   2.79724   2.81086   2.84454   2.85273
 Alpha virt. eigenvalues --    2.85918   2.87286   2.88290   2.88897   2.90431
 Alpha virt. eigenvalues --    2.91820   2.92868   2.93076   2.94463   2.96966
 Alpha virt. eigenvalues --    2.98609   3.01327   3.03589   3.04934   3.05995
 Alpha virt. eigenvalues --    3.10996   3.13744   3.18065   3.37552   3.70763
 Alpha virt. eigenvalues --    3.71949   3.75041   3.80002   3.89426   3.91757
 Alpha virt. eigenvalues --    3.92600   3.94164   3.95291   3.95867   3.99385
 Alpha virt. eigenvalues --    4.02972   4.03932   4.05794   4.06190   4.10174
 Alpha virt. eigenvalues --    4.10784   4.12996   4.13491   4.14805   4.15916
 Alpha virt. eigenvalues --    4.16566   4.21447   4.22383   4.23224   4.24882
 Alpha virt. eigenvalues --    4.26039   4.28570   4.31717   4.32870   4.36407
 Alpha virt. eigenvalues --    4.38649   4.40957   4.43201   4.45292   4.47927
 Alpha virt. eigenvalues --    4.48286   4.54881   4.57192   4.61925   4.63641
 Alpha virt. eigenvalues --    4.73007
          Condensed to atoms (all electrons):
 Mulliken charges:
               1
     1  N   -0.779578
     2  H    0.398248
     3  H    0.419118
     4  H    0.461693
     5  C   -0.114806
     6  H    0.223481
     7  C    0.649858
     8  C   -0.323450
     9  H    0.211172
    10  H    0.189695
    11  O   -0.523401
    12  C   -0.363311
    13  H    0.173823
    14  H    0.193059
    15  C    0.571425
    16  O   -0.423838
    17  O   -0.558275
    18  N   -0.580510
    19  H    0.350879
    20  C   -0.039583
    21  H    0.193798
    22  C    0.617211
    23  C   -0.403202
    24  H    0.182182
    25  H    0.180698
    26  O   -0.584417
    27  C    0.055764
    28  C   -0.018249
    29  H    0.156848
    30  C    0.093048
    31  C    0.309476
    32  C   -0.210266
    33  H    0.122570
    34  N   -0.685909
    35  H    0.338661
    36  C   -0.149033
    37  H    0.142492
    38  C   -0.159638
    39  H    0.138115
    40  C   -0.138343
    41  H    0.137662
    42  N   -0.577475
    43  H    0.376930
    44  C   -0.102251
    45  H    0.182508
    46  C    0.608372
    47  C    0.150778
    48  H    0.148497
    49  O   -0.532462
    50  C   -0.470844
    51  H    0.200818
    52  H    0.159674
    53  H    0.157646
    54  O   -0.714771
    55  H    0.453515
    56  N   -0.591844
    57  H    0.349428
    58  C   -0.056750
    59  H    0.187566
    60  C    0.592626
    61  C   -0.271370
    62  H    0.136239
    63  H    0.163562
    64  O   -0.581318
    65  C   -0.301119
    66  H    0.194007
    67  H    0.157300
    68  C   -0.156347
    69  H    0.170894
    70  H    0.160264
    71  N   -0.603697
    72  H    0.414249
    73  N   -0.753174
    74  H    0.362106
    75  H    0.371350
    76  N   -0.768293
    77  H    0.420252
    78  H    0.344727
    79  C    0.750750
    80  O   -0.616389
    81  H    0.428879
 Sum of Mulliken charges =   1.00000
 Mulliken charges with hydrogens summed into heavy atoms:
               1
     1  N    0.499481
     5  C    0.108675
     7  C    0.649858
     8  C    0.077417
    11  O   -0.523401
    12  C    0.003571
    15  C    0.571425
    16  O   -0.423838
    17  O   -0.129397
    18  N   -0.229631
    20  C    0.154215
    22  C    0.617211
    23  C   -0.040322
    26  O   -0.584417
    27  C    0.055764
    28  C    0.138599
    30  C    0.093048
    31  C    0.309476
    32  C   -0.087696
    34  N   -0.347248
    36  C   -0.006541
    38  C   -0.021523
    40  C   -0.000681
    42  N   -0.200545
    44  C    0.080257
    46  C    0.608372
    47  C    0.299274
    49  O   -0.532462
    50  C    0.047294
    54  O   -0.261256
    56  N   -0.242416
    58  C    0.130816
    60  C    0.592626
    61  C    0.028431
    64  O   -0.581318
    65  C    0.050188
    68  C    0.174811
    71  N   -0.189448
    73  N   -0.019718
    76  N   -0.003314
    79  C    0.750750
    80  O   -0.616389
 Electronic spatial extent (au):  <R**2>=          41141.3475
 Charge=              1.0000 electrons
 Dipole moment (field-independent basis, Debye):
    X=             -2.7568    Y=             12.6783    Z=              0.3027  Tot=             12.9781
 Quadrupole moment (field-independent basis, Debye-Ang):
   XX=           -136.3923   YY=           -154.3056   ZZ=           -139.0957
   XY=             61.3534   XZ=            -75.5631   YZ=            -64.8425
 Traceless Quadrupole moment (field-independent basis, Debye-Ang):
   XX=              6.8722   YY=            -11.0411   ZZ=              4.1688
   XY=             61.3534   XZ=            -75.5631   YZ=            -64.8425
 Octapole moment (field-independent basis, Debye-Ang**2):
  XXX=            470.9077  YYY=           -440.7161  ZZZ=            -91.7876  XYY=            681.4294
  XXY=             36.0038  XXZ=            -16.0202  XZZ=            658.1447  YZZ=             84.5894
  YYZ=           -229.6179  XYZ=           -414.6507
 Hexadecapole moment (field-independent basis, Debye-Ang**3):
 XXXX=         -22815.9738 YYYY=          -4564.1462 ZZZZ=         -13470.0482 XXXY=          -1161.5795
 XXXZ=           2133.4816 YYYX=           -472.5537 YYYZ=           -186.6322 ZZZX=           3007.8820
 ZZZY=           -243.0071 XXYY=          -3254.0302 XXZZ=          -5462.8222 YYZZ=          -1355.4280
 XXYZ=          -1081.1143 YYXZ=           -774.3615 ZZXY=            945.4071
 N-N= 5.087764642635D+03 E-N=-1.493615064441D+04  KE= 2.035092900028D+03
 Unable to Open any file for archive entry.
 1\1\GINC-LAC-302\SP\RB3LYP\6-31G(d)\C26H39N8O8(1+)\KENGMITH\13-May-202
 2\0\\# B3LYP/6-31G* empiricaldispersion=gd3 guess=read geom=check nosy
 mm integral(ultrafinegrid)\\Candidate Structure: Conf:126 Charge calc 
 in gas phase\\1,1\N,0,-0.7588003847,-0.4515502879,2.9695285175\H,0,-0.
 3060920146,-0.6220681755,3.8694824227\H,0,-0.4980523016,-1.1744121546,
 2.2803639094\H,0,-0.4436633894,0.4803903226,2.5380633204\C,0,-2.270022
 3356,-0.467322635,3.043303341\H,0,-2.5552332323,-1.4115019123,3.519468
 1457\C,0,-2.6441182776,-0.5023871996,1.5362376257\C,0,-2.7956558164,0.
 7330179878,3.831183881\H,0,-2.5895054798,1.6580007593,3.2820386514\H,0
 ,-3.8859518231,0.6265415801,3.8918204659\O,0,-1.8828585079,-1.10645847
 46,0.7789689099\C,0,-2.2387521053,0.8308252763,5.2633401806\H,0,-1.163
 0600546,1.0492475668,5.2430391369\H,0,-2.4016753919,-0.0953366677,5.82
 13771679\C,0,-2.9095367426,1.9504685837,6.043029314\O,0,-3.5445867362,
 1.8078942093,7.0580475762\O,0,-2.7097109961,3.142076647,5.4314988027\N
 ,0,-3.6963581516,0.2251516785,1.1234067309\H,0,-4.2639093279,0.7235184
 017,1.7962620859\C,0,-3.6895696645,0.7990623315,-0.2349308578\H,0,-3.5
 84680183,-0.0213807591,-0.9471475029\C,0,-2.4541958305,1.7196238284,-0
 .221438301\C,0,-4.9861350676,1.5946181082,-0.4809129878\H,0,-5.0085155
 474,1.8534964157,-1.5471637901\H,0,-4.9118460922,2.537739477,0.0722201
 12\O,0,-2.4445283872,2.7182687104,0.523354205\C,0,-6.2152246841,0.8451
 418178,-0.0710238429\C,0,-7.0812461048,1.2008051941,0.9362886137\H,0,-
 7.0843473943,2.0854686246,1.5596008559\C,0,-6.6940537088,-0.4053332255
 ,-0.6056944426\C,0,-7.8620159045,-0.750414313,0.1263501869\C,0,-6.2553
 674092,-1.2616503728,-1.6309274627\H,0,-5.3746184052,-1.0176172133,-2.
 219539559\N,0,-8.0673505853,0.2438618527,1.0645596955\H,0,-8.868486538
 5,0.3116202765,1.6732131948\C,0,-8.1330932988,-2.740445248,-1.15420889
 52\H,0,-8.6777095906,-3.6507625983,-1.3868441082\C,0,-8.5927128023,-1.
 9136565388,-0.1360610803\H,0,-9.4861888822,-2.1599022024,0.4308315885\
 C,0,-6.9764918591,-2.418323786,-1.8953234018\H,0,-6.6511125597,-3.0859
 837002,-2.6876546313\N,0,-1.3862528496,1.3109100851,-0.9138955339\H,0,
 -1.3705219363,0.4179497356,-1.4021959804\C,0,-0.0933252317,1.979651246
 1,-0.8608098633\H,0,-0.2533525366,3.0617539952,-0.919259482\C,0,0.6975
 88988,1.4401088624,-2.0753274594\C,0,0.6874611776,1.6450822794,0.44406
 32013\H,0,0.9506813061,0.5806805628,0.3998360924\O,0,0.4671918406,0.29
 6710278,-2.4704529611\C,0,1.9311542914,2.5035857249,0.6413922559\H,0,2
 .6727848971,2.3693495014,-0.1503773856\H,0,2.3976206402,2.2472645705,1
 .5971433684\H,0,1.6542436013,3.5637951112,0.6777054874\O,0,-0.16458822
 55,1.7907140773,1.6129599972\H,0,-0.9105241482,2.4006666109,1.39288304
 08\N,0,1.6158612779,2.2722365979,-2.592179767\H,0,1.8443423528,3.14249
 77933,-2.1176310549\C,0,2.7013090685,1.8310383747,-3.466995439\H,0,2.6
 960366102,0.7407245145,-3.5087813868\C,0,4.0348696671,2.343594387,-2.8
 80376006\C,0,2.5070656672,2.4193119621,-4.8906693834\H,0,2.4400424455,
 3.5117333818,-4.7908800524\H,0,1.5273751909,2.0810118064,-5.2445514679
 \O,0,5.0750977358,1.7536907164,-3.2563283252\C,0,3.5983104477,2.040053
 9664,-5.9242611024\H,0,4.1933683136,1.2013561107,-5.5490352031\H,0,3.1
 2625807,1.7037721967,-6.8544367489\C,0,4.5536202442,3.1849871204,-6.31
 40498375\H,0,5.2279215127,2.8427546909,-7.1086357168\H,0,3.9833619259,
 4.0370356883,-6.7015194945\N,0,5.340766953,3.6350439987,-5.1586446607\
 H,0,5.5165197829,2.9075511471,-4.4381056057\N,0,5.4518978108,5.9065817
 453,-5.6479901225\H,0,5.4729713207,6.8659366486,-5.33611764\H,0,5.7134
 943713,5.7316155403,-6.6072511831\N,0,5.6565296837,5.1376227127,-3.445
 8600055\H,0,5.2086168636,4.4820824742,-2.7639831237\H,0,5.9551487947,6
 .0501872425,-3.1339190731\C,0,5.4852487327,4.8921948729,-4.7483021484\
 O,0,3.9569724786,3.4096179089,-2.1932886251\H,0,-3.1576944779,3.822560
 1855,5.9699790913\\Version=ES64L-G16RevC.01\HF=-2054.0536159\RMSD=3.83
 7e-09\Dipole=0.9426029,2.3407913,1.0314781\Quadrupole=5.1093242,-8.208
 7534,3.0994292,45.6147564,-56.1793367,-48.2088384\PG=C01 [X(C26H39N8O8
 )]\\@
 The archive entry for this job was punched.


 THE WORLD OF CHEMICAL REACTIONS IS LIKE A STAGE,
 ON WHICH SCENE AFTER SCENE IS CEASELESSLY PLAYED.
 THE ACTORS ON IT ARE THE ELEMENTS.
   -- CLEMENS WINKLER   BER. 30,13(1897)
 (DISCOVERER OF GERMANIUM, FEB 6, 1886)
 Job cpu time:       0 days  0 hours  2 minutes  3.4 seconds.
 Elapsed time:       0 days  0 hours  0 minutes 31.5 seconds.
 File lengths (MBytes):  RWF=    376 Int=      0 D2E=      0 Chk=     56 Scr=     16
 Normal termination of Gaussian 16 at Fri May 13 15:51:45 2022.
