 Entering Gaussian System, Link 0=/opt/software/Gaussian/g16-AVX2-C.01/g16/g16
 Input=charge-conf-448.com
 Output=charge-conf-448.log
 Initial command:
 /opt/software/Gaussian/g16-AVX2-C.01/g16/l1.exe "/mnt/gs18/scratch/users/kengmith/Gau-13788.inp" -scrdir="/mnt/gs18/scratch/users/kengmith/"
 Entering Link 1 = /opt/software/Gaussian/g16-AVX2-C.01/g16/l1.exe PID=     13798.
  
 Copyright (c) 1988-2019, Gaussian, Inc.  All Rights Reserved.
  
 This is part of the Gaussian(R) 16 program.  It is based on
 the Gaussian(R) 09 system (copyright 2009, Gaussian, Inc.),
 the Gaussian(R) 03 system (copyright 2003, Gaussian, Inc.),
 the Gaussian(R) 98 system (copyright 1998, Gaussian, Inc.),
 the Gaussian(R) 94 system (copyright 1995, Gaussian, Inc.),
 the Gaussian 92(TM) system (copyright 1992, Gaussian, Inc.),
 the Gaussian 90(TM) system (copyright 1990, Gaussian, Inc.),
 the Gaussian 88(TM) system (copyright 1988, Gaussian, Inc.),
 the Gaussian 86(TM) system (copyright 1986, Carnegie Mellon
 University), and the Gaussian 82(TM) system (copyright 1983,
 Carnegie Mellon University). Gaussian is a federally registered
 trademark of Gaussian, Inc.
  
 This software contains proprietary and confidential information,
 including trade secrets, belonging to Gaussian, Inc.
  
 This software is provided under written license and may be
 used, copied, transmitted, or stored only in accord with that
 written license.
  
 The following legend is applicable only to US Government
 contracts under FAR:
  
                    RESTRICTED RIGHTS LEGEND
  
 Use, reproduction and disclosure by the US Government is
 subject to restrictions as set forth in subparagraphs (a)
 and (c) of the Commercial Computer Software - Restricted
 Rights clause in FAR 52.227-19.
  
 Gaussian, Inc.
 340 Quinnipiac St., Bldg. 40, Wallingford CT 06492
  
  
 ---------------------------------------------------------------
 Warning -- This program may not be used in any manner that
 competes with the business of Gaussian, Inc. or will provide
 assistance to any competitor of Gaussian, Inc.  The licensee
 of this program is prohibited from giving any competitor of
 Gaussian, Inc. access to this program.  By using this program,
 the user acknowledges that Gaussian, Inc. is engaged in the
 business of creating and licensing software in the field of
 computational chemistry and represents and warrants to the
 licensee that it is not a competitor of Gaussian, Inc. and that
 it will not use this program in any manner prohibited above.
 ---------------------------------------------------------------
  

 Cite this work as:
 Gaussian 16, Revision C.01,
 M. J. Frisch, G. W. Trucks, H. B. Schlegel, G. E. Scuseria, 
 M. A. Robb, J. R. Cheeseman, G. Scalmani, V. Barone, 
 G. A. Petersson, H. Nakatsuji, X. Li, M. Caricato, A. V. Marenich, 
 J. Bloino, B. G. Janesko, R. Gomperts, B. Mennucci, H. P. Hratchian, 
 J. V. Ortiz, A. F. Izmaylov, J. L. Sonnenberg, D. Williams-Young, 
 F. Ding, F. Lipparini, F. Egidi, J. Goings, B. Peng, A. Petrone, 
 T. Henderson, D. Ranasinghe, V. G. Zakrzewski, J. Gao, N. Rega, 
 G. Zheng, W. Liang, M. Hada, M. Ehara, K. Toyota, R. Fukuda, 
 J. Hasegawa, M. Ishida, T. Nakajima, Y. Honda, O. Kitao, H. Nakai, 
 T. Vreven, K. Throssell, J. A. Montgomery, Jr., J. E. Peralta, 
 F. Ogliaro, M. J. Bearpark, J. J. Heyd, E. N. Brothers, K. N. Kudin, 
 V. N. Staroverov, T. A. Keith, R. Kobayashi, J. Normand, 
 K. Raghavachari, A. P. Rendell, J. C. Burant, S. S. Iyengar, 
 J. Tomasi, M. Cossi, J. M. Millam, M. Klene, C. Adamo, R. Cammi, 
 J. W. Ochterski, R. L. Martin, K. Morokuma, O. Farkas, 
 J. B. Foresman, and D. J. Fox, Gaussian, Inc., Wallingford CT, 2019.
 
 ******************************************
 Gaussian 16:  ES64L-G16RevC.01  3-Jul-2019
                11-Jul-2022 
 ******************************************
 %mem=8gb
 %nproc=4
 Will use up to    4 processors via shared memory.
 %chk=conf-448.chk
 ----------------------------------------------------------------------
 # B3LYP/6-31G* empiricaldispersion=gd3 guess=read geom=check nosymm in
 tegral(ultrafinegrid)
 ----------------------------------------------------------------------
 1/29=2,38=1,172=1/1;
 2/12=2,15=1,40=1/2;
 3/5=1,6=6,7=1,11=2,14=-4,25=1,30=1,74=-5,75=-5,116=-2,124=31/1,2,3;
 4/5=1/1;
 5/5=2,38=6/2;
 6/7=2,8=2,9=2,10=2,28=1/1;
 99/5=1,9=1/99;
 ------------------------------------------------------
 Candidate Structure: Conf:448 Charge calc in gas phase
 ------------------------------------------------------
 Structure from the checkpoint file:  "conf-448.chk"
 Charge =  1 Multiplicity = 1
 Redundant internal coordinates found in file.  (old form).
 N,0,-8.0078257159,0.919058383,8.9657019867
 H,0,-8.7808189163,0.8248243728,9.6276222253
 H,0,-7.3033563488,1.5738785292,9.3452780288
 H,0,-7.5261259371,-0.0039439482,8.7799615653
 C,0,-8.424193738,1.3648114298,7.5820968934
 H,0,-9.4732191508,1.0807674588,7.4538501024
 C,0,-7.5548001741,0.4555904939,6.6658000905
 C,0,-8.2493915395,2.8916586542,7.4140841604
 H,0,-8.9893174257,3.3907334451,8.0510224021
 H,0,-8.5168474417,3.1514457105,6.3846343264
 O,0,-6.9745883653,-0.5051021242,7.1906807159
 C,0,-6.8492360485,3.3568985604,7.7543672902
 C,0,-6.5428019336,3.745807873,9.0701136708
 H,0,-7.3393902931,3.8356951866,9.8091639729
 C,0,-5.8291294659,3.3478092044,6.7913797989
 H,0,-6.0549711087,3.0874975017,5.760786885
 C,0,-5.2357917496,4.0943388697,9.4246231261
 H,0,-5.0157363436,4.4043213512,10.4418171335
 C,0,-4.5284935897,3.7043214325,7.1472946434
 H,0,-3.7485659017,3.7063483402,6.3913812933
 C,0,-4.225902568,4.0665486239,8.4630188923
 H,0,-3.211046322,4.3430967385,8.7321525815
 N,0,-7.5285543452,0.7575125251,5.373163774
 H,0,-7.8743473782,1.6506362099,5.0224701651
 C,0,-6.6323456727,0.1089396588,4.4166707896
 H,0,-5.7330858445,-0.2080129013,4.9567580228
 C,0,-6.2601959418,1.2270552793,3.4156733419
 C,0,-7.2886232814,-1.1077362372,3.7504100594
 H,0,-6.5985270876,-1.5907563252,3.0520408688
 H,0,-8.1857516821,-0.8096931482,3.1990318823
 H,0,-7.5662623007,-1.8388208717,4.5147929602
 O,0,-6.7796243832,2.3483436239,3.5158411763
 N,0,-5.3701245556,0.8965238618,2.47610156
 H,0,-4.9738644994,-0.0379334092,2.3931098111
 C,0,-4.929565351,1.810450395,1.4302477423
 H,0,-5.8098467598,2.3064288485,1.0056452519
 C,0,-4.2458888346,0.9268417478,0.3707797762
 C,0,-3.9547560832,2.870004792,1.9732263838
 H,0,-3.6456850162,3.5617146464,1.1832572459
 H,0,-3.0588120161,2.3876853689,2.3769771329
 H,0,-4.4473640387,3.4441693604,2.7621667045
 O,0,-3.9201117271,-0.2328561706,0.6432106273
 N,0,-4.0219165197,1.5110765865,-0.8225800967
 H,0,-4.218613168,2.4979116849,-0.9346164548
 C,0,-3.1938412148,0.8769318695,-1.8609794014
 H,0,-3.3872025625,-0.1964867139,-1.796434181
 C,0,-1.7159726769,1.172836899,-1.5233228808
 C,0,-3.5732830636,1.3897802944,-3.2543535651
 H,0,-4.6650858014,1.3273739311,-3.3488379797
 H,0,-3.28634437,2.4445187566,-3.3265282731
 O,0,-1.1325711074,2.1558401317,-1.9715648807
 C,0,-2.8961954443,0.5902443992,-4.3472595414
 C,0,-1.8084572237,1.1070585493,-5.0625739528
 H,0,-1.4400894525,2.1049864657,-4.8500558033
 C,0,-3.3317036208,-0.7054192935,-4.6478924294
 H,0,-4.1807340162,-1.1284885799,-4.1132040326
 C,0,-1.177171851,0.3628982546,-6.0534624953
 H,0,-0.3499302556,0.7879098384,-6.6100067235
 C,0,-2.7022637614,-1.46903899,-5.6294156135
 H,0,-3.0551736149,-2.4746521845,-5.8517226066
 O,0,-0.9594790791,-1.6245727105,-7.3138936203
 H,0,-1.3596458046,-2.5027727331,-7.4072671156
 C,0,-1.6187526045,-0.9332461049,-6.3351952862
 N,0,-1.1664005714,0.3242489889,-0.6197619328
 H,0,-1.6834797906,-0.5050241208,-0.3593907845
 C,0,0.2448560834,0.4058641351,-0.2797483944
 H,0,0.4342789522,1.4017972592,0.1346201591
 C,0,1.086459288,0.2192516124,-1.5601148354
 C,0,0.5880091839,-0.6876082064,0.7469659177
 H,0,-0.1165526723,-0.6053312637,1.588014512
 H,0,0.4040840902,-1.6577639892,0.2650517962
 O,0,0.7470356775,-0.5621949954,-2.4403028858
 C,0,2.0293954145,-0.6574285738,1.2936586014
 H,0,2.7272221335,-0.6800025268,0.447025142
 C,0,2.3227366738,0.6131169838,2.105088345
 H,0,1.6490619647,0.686516417,2.9697689503
 H,0,3.3527967376,0.6031327678,2.4759796746
 H,0,2.2073102654,1.528273935,1.5143186284
 C,0,2.2835229274,-1.9078568996,2.1475966526
 H,0,1.608911653,-1.9354451845,3.0139308364
 H,0,2.1247426203,-2.8258792746,1.5697342955
 H,0,3.3118062014,-1.9207453459,2.5260221952
 N,0,2.2122453245,0.9731306977,-1.6003657511
 H,0,2.5367185906,1.4628541248,-0.7740380608
 C,0,3.2093413936,0.837889657,-2.6419376449
 H,0,3.0517852031,-0.1317077148,-3.1277463497
 C,0,4.5885705137,0.8724755937,-1.9550889046
 C,0,3.0805181989,1.9632292262,-3.6927323772
 H,0,3.3409791283,2.9195548592,-3.2262375511
 H,0,3.8115290307,1.7957308246,-4.4923239908
 O,0,4.7006571628,1.2041159958,-0.7696255228
 C,0,1.6621633241,2.035308222,-4.2711955953
 H,0,0.9401724628,2.2484792702,-3.4710851071
 H,0,1.3462632166,1.0775491717,-4.6938270182
 C,0,1.452521253,3.0929357735,-5.3268009282
 O,0,0.5841794662,3.0710370195,-6.1759210936
 O,0,2.320760224,4.1300395934,-5.2218198741
 N,0,5.6314539755,0.5562750735,-2.7431441872
 H,0,5.5079503185,0.235737091,-3.6981566339
 C,0,7.0202662462,0.5973977647,-2.3044800615
 H,0,7.1830897631,1.500922568,-1.712725924
 C,0,7.9370669265,0.6279988507,-3.5421603451
 C,0,7.3405498123,-0.6496239915,-1.4341919575
 H,0,6.9239388109,-1.5243363917,-1.9532965735
 H,0,6.7677416544,-0.5442702181,-0.507886781
 O,0,9.0383217577,1.1944807295,-3.4281851333
 C,0,8.8406267324,-0.8765309734,-1.1246061273
 H,0,8.9727375236,-1.1145713988,-0.0619234933
 H,0,9.4070670079,0.0376282361,-1.3299458182
 C,0,9.4593750781,-2.0466612589,-1.9122434811
 H,0,8.9076101898,-2.9700001098,-1.7059977192
 H,0,10.4869529529,-2.2390915002,-1.585594544
 N,0,9.4410201711,-1.8806731181,-3.372256178
 H,0,8.5079409595,-1.8239632207,-3.7815293783
 N,0,11.611074594,-1.0320597381,-3.6606369266
 H,0,12.1253911136,-0.2471094852,-4.0350266573
 H,0,11.8261004789,-1.2479132311,-2.6989215075
 N,0,9.9839385615,-0.7993258866,-5.3262305851
 H,0,10.6381331658,-0.1953725817,-5.8072164966
 H,0,8.9863909917,-0.460507102,-5.346950203
 C,0,10.3402466639,-1.1973089213,-4.0968654846
 O,0,7.5191122726,-0.068179872,-4.539007909
 H,0,2.0791325122,4.7566906513,-5.9299018259
 Recover connectivity data from disk.
                           ----------------------------
                           !    Current Parameters    !
                           ! (Angstroms and Degrees)  !
 --------------------------                            --------------------------
 ! Name  Definition              Value                                          !
 --------------------------------------------------------------------------------
 ! R1    R(1,2)                  1.022                                          !
 ! R2    R(1,3)                  1.034                                          !
 ! R3    R(1,4)                  1.0576                                         !
 ! R4    R(1,5)                  1.5121                                         !
 ! R5    R(5,6)                  1.0943                                         !
 ! R6    R(5,7)                  1.5563                                         !
 ! R7    R(5,8)                  1.546                                          !
 ! R8    R(7,11)                 1.239                                          !
 ! R9    R(7,23)                 1.3277                                         !
 ! R10   R(8,9)                  1.0965                                         !
 ! R11   R(8,10)                 1.0949                                         !
 ! R12   R(8,12)                 1.5142                                         !
 ! R13   R(12,13)                1.4058                                         !
 ! R14   R(12,15)                1.4029                                         !
 ! R15   R(13,14)                1.0903                                         !
 ! R16   R(13,17)                1.3984                                         !
 ! R17   R(15,16)                1.0867                                         !
 ! R18   R(15,19)                1.3948                                         !
 ! R19   R(17,18)                1.0859                                         !
 ! R20   R(17,21)                1.3948                                         !
 ! R21   R(19,20)                1.0861                                         !
 ! R22   R(19,21)                1.3978                                         !
 ! R23   R(21,22)                1.0857                                         !
 ! R24   R(23,24)                1.0199                                         !
 ! R25   R(23,25)                1.4624                                         !
 ! R26   R(25,26)                1.0958                                         !
 ! R27   R(25,27)                1.5462                                         !
 ! R28   R(25,28)                1.5346                                         !
 ! R29   R(27,32)                1.2398                                         !
 ! R30   R(27,33)                1.3358                                         !
 ! R31   R(28,29)                1.0942                                         !
 ! R32   R(28,30)                1.0944                                         !
 ! R33   R(28,31)                1.0935                                         !
 ! R34   R(33,34)                1.0184                                         !
 ! R35   R(33,35)                1.4571                                         !
 ! R36   R(35,36)                1.096                                          !
 ! R37   R(35,37)                1.5397                                         !
 ! R38   R(35,38)                1.5387                                         !
 ! R39   R(37,42)                1.235                                          !
 ! R40   R(37,43)                1.3474                                         !
 ! R41   R(38,39)                1.0945                                         !
 ! R42   R(38,40)                1.0947                                         !
 ! R43   R(38,41)                1.093                                          !
 ! R44   R(43,44)                1.0125                                         !
 ! R45   R(43,45)                1.4718                                         !
 ! R46   R(45,46)                1.0926                                         !
 ! R47   R(45,47)                1.5446                                         !
 ! R48   R(45,48)                1.5325                                         !
 ! R49   R(47,51)                1.2278                                         !
 ! R50   R(47,64)                1.3559                                         !
 ! R51   R(48,49)                1.0977                                         !
 ! R52   R(48,50)                1.0955                                         !
 ! R53   R(48,52)                1.514                                          !
 ! R54   R(52,53)                1.4007                                         !
 ! R55   R(52,55)                1.3996                                         !
 ! R56   R(53,54)                1.0848                                         !
 ! R57   R(53,57)                1.3907                                         !
 ! R58   R(55,56)                1.0889                                         !
 ! R59   R(55,59)                1.3938                                         !
 ! R60   R(57,58)                1.0838                                         !
 ! R61   R(57,63)                1.398                                          !
 ! R62   R(59,60)                1.0887                                         !
 ! R63   R(59,63)                1.3997                                         !
 ! R64   R(61,62)                0.9696                                         !
 ! R65   R(61,63)                1.3676                                         !
 ! R66   R(64,65)                1.0114                                         !
 ! R67   R(64,66)                1.4539                                         !
 ! R68   R(66,67)                1.0952                                         !
 ! R69   R(66,68)                1.5435                                         !
 ! R70   R(66,69)                1.5387                                         !
 ! R71   R(68,72)                1.225                                          !
 ! R72   R(68,83)                1.3555                                         !
 ! R73   R(69,70)                1.1002                                         !
 ! R74   R(69,71)                1.0988                                         !
 ! R75   R(69,73)                1.5419                                         !
 ! R76   R(73,74)                1.0974                                         !
 ! R77   R(73,75)                1.5358                                         !
 ! R78   R(73,79)                1.5354                                         !
 ! R79   R(75,76)                1.0986                                         !
 ! R80   R(75,77)                1.0948                                         !
 ! R81   R(75,78)                1.0954                                         !
 ! R82   R(79,80)                1.0984                                         !
 ! R83   R(79,81)                1.0963                                         !
 ! R84   R(79,82)                1.0958                                         !
 ! R85   R(83,84)                1.0139                                         !
 ! R86   R(83,85)                1.4482                                         !
 ! R87   R(85,86)                1.0959                                         !
 ! R88   R(85,87)                1.5412                                         !
 ! R89   R(85,88)                1.545                                          !
 ! R90   R(87,91)                1.2361                                         !
 ! R91   R(87,98)                1.3448                                         !
 ! R92   R(88,89)                1.0955                                         !
 ! R93   R(88,90)                1.0963                                         !
 ! R94   R(88,92)                1.5335                                         !
 ! R95   R(92,93)                1.0986                                         !
 ! R96   R(92,94)                1.0935                                         !
 ! R97   R(92,95)                1.5089                                         !
 ! R98   R(95,96)                1.2147                                         !
 ! R99   R(95,97)                1.3566                                         !
 ! R100  R(97,123)               0.9759                                         !
 ! R101  R(98,99)                1.0149                                         !
 ! R102  R(98,100)               1.457                                          !
 ! R103  R(100,101)              1.0923                                         !
 ! R104  R(100,102)              1.5406                                         !
 ! R105  R(100,103)              1.554                                          !
 ! R106  R(102,106)              1.2436                                         !
 ! R107  R(102,122)              1.2857                                         !
 ! R108  R(103,104)              1.0992                                         !
 ! R109  R(103,105)              1.0942                                         !
 ! R110  R(103,107)              1.5484                                         !
 ! R111  R(107,108)              1.097                                          !
 ! R112  R(107,109)              1.0949                                         !
 ! R113  R(107,110)              1.5403                                         !
 ! R114  R(110,111)              1.0952                                         !
 ! R115  R(110,112)              1.0953                                         !
 ! R116  R(110,113)              1.4695                                         !
 ! R117  R(113,114)              1.0205                                         !
 ! R118  R(113,121)              1.3419                                         !
 ! R119  R(115,116)              1.0104                                         !
 ! R120  R(115,117)              1.0088                                         !
 ! R121  R(115,121)              1.3537                                         !
 ! R122  R(118,119)              1.012                                          !
 ! R123  R(118,120)              1.0537                                         !
 ! R124  R(118,121)              1.3404                                         !
 ! A1    A(2,1,3)              109.6295                                         !
 ! A2    A(2,1,4)              112.1955                                         !
 ! A3    A(2,1,5)              114.3016                                         !
 ! A4    A(3,1,4)              107.8701                                         !
 ! A5    A(3,1,5)              109.6832                                         !
 ! A6    A(4,1,5)              102.8262                                         !
 ! A7    A(1,5,6)              107.138                                          !
 ! A8    A(1,5,7)              102.2799                                         !
 ! A9    A(1,5,8)              111.0666                                         !
 ! A10   A(6,5,7)              108.3521                                         !
 ! A11   A(6,5,8)              110.6095                                         !
 ! A12   A(7,5,8)              116.7331                                         !
 ! A13   A(5,7,11)             117.7213                                         !
 ! A14   A(5,7,23)             116.8339                                         !
 ! A15   A(11,7,23)            125.4171                                         !
 ! A16   A(5,8,9)              108.0652                                         !
 ! A17   A(5,8,10)             107.9928                                         !
 ! A18   A(5,8,12)             112.5562                                         !
 ! A19   A(9,8,10)             105.8629                                         !
 ! A20   A(9,8,12)             110.7085                                         !
 ! A21   A(10,8,12)            111.3634                                         !
 ! A22   A(8,12,13)            119.795                                          !
 ! A23   A(8,12,15)            121.0744                                         !
 ! A24   A(13,12,15)           119.0615                                         !
 ! A25   A(12,13,14)           119.8641                                         !
 ! A26   A(12,13,17)           120.661                                          !
 ! A27   A(14,13,17)           119.3718                                         !
 ! A28   A(12,15,16)           120.0951                                         !
 ! A29   A(12,15,19)           120.083                                          !
 ! A30   A(16,15,19)           119.8036                                         !
 ! A31   A(13,17,18)           119.8698                                         !
 ! A32   A(13,17,21)           119.8023                                         !
 ! A33   A(18,17,21)           120.3165                                         !
 ! A34   A(15,19,20)           119.5042                                         !
 ! A35   A(15,19,21)           120.5497                                         !
 ! A36   A(20,19,21)           119.9446                                         !
 ! A37   A(17,21,19)           119.8265                                         !
 ! A38   A(17,21,22)           120.0539                                         !
 ! A39   A(19,21,22)           120.1102                                         !
 ! A40   A(7,23,24)            121.8165                                         !
 ! A41   A(7,23,25)            123.2325                                         !
 ! A42   A(24,23,25)           111.7919                                         !
 ! A43   A(23,25,26)           107.988                                          !
 ! A44   A(23,25,27)           104.4905                                         !
 ! A45   A(23,25,28)           111.9317                                         !
 ! A46   A(26,25,27)           109.3127                                         !
 ! A47   A(26,25,28)           109.6099                                         !
 ! A48   A(27,25,28)           113.2783                                         !
 ! A49   A(25,27,32)           120.0577                                         !
 ! A50   A(25,27,33)           115.901                                          !
 ! A51   A(32,27,33)           124.0412                                         !
 ! A52   A(25,28,29)           110.9393                                         !
 ! A53   A(25,28,30)           110.6954                                         !
 ! A54   A(25,28,31)           109.5816                                         !
 ! A55   A(29,28,30)           108.4009                                         !
 ! A56   A(29,28,31)           108.1277                                         !
 ! A57   A(30,28,31)           109.033                                          !
 ! A58   A(27,33,34)           122.9324                                         !
 ! A59   A(27,33,35)           123.4448                                         !
 ! A60   A(34,33,35)           113.5398                                         !
 ! A61   A(33,35,36)           108.6067                                         !
 ! A62   A(33,35,37)           105.5569                                         !
 ! A63   A(33,35,38)           111.7254                                         !
 ! A64   A(36,35,37)           110.4732                                         !
 ! A65   A(36,35,38)           109.5071                                         !
 ! A66   A(37,35,38)           110.8965                                         !
 ! A67   A(35,37,42)           120.2804                                         !
 ! A68   A(35,37,43)           115.7468                                         !
 ! A69   A(42,37,43)           123.9636                                         !
 ! A70   A(35,38,39)           111.0612                                         !
 ! A71   A(35,38,40)           110.197                                          !
 ! A72   A(35,38,41)           109.323                                          !
 ! A73   A(39,38,40)           108.2718                                         !
 ! A74   A(39,38,41)           108.435                                          !
 ! A75   A(40,38,41)           109.5165                                         !
 ! A76   A(37,43,44)           119.2304                                         !
 ! A77   A(37,43,45)           122.1111                                         !
 ! A78   A(44,43,45)           116.8205                                         !
 ! A79   A(43,45,46)           106.3828                                         !
 ! A80   A(43,45,47)           107.5513                                         !
 ! A81   A(43,45,48)           110.9774                                         !
 ! A82   A(46,45,47)           110.1593                                         !
 ! A83   A(46,45,48)           109.7959                                         !
 ! A84   A(47,45,48)           111.8121                                         !
 ! A85   A(45,47,51)           121.884                                          !
 ! A86   A(45,47,64)           114.4305                                         !
 ! A87   A(51,47,64)           123.486                                          !
 ! A88   A(45,48,49)           107.7893                                         !
 ! A89   A(45,48,50)           108.4976                                         !
 ! A90   A(45,48,52)           111.647                                          !
 ! A91   A(49,48,50)           108.0356                                         !
 ! A92   A(49,48,52)           110.651                                          !
 ! A93   A(50,48,52)           110.1066                                         !
 ! A94   A(48,52,53)           121.4059                                         !
 ! A95   A(48,52,55)           120.3175                                         !
 ! A96   A(53,52,55)           118.2635                                         !
 ! A97   A(52,53,54)           120.2049                                         !
 ! A98   A(52,53,57)           121.2605                                         !
 ! A99   A(54,53,57)           118.5346                                         !
 ! A100  A(52,55,56)           119.7904                                         !
 ! A101  A(52,55,59)           121.1937                                         !
 ! A102  A(56,55,59)           119.0149                                         !
 ! A103  A(53,57,58)           120.1649                                         !
 ! A104  A(53,57,63)           119.7562                                         !
 ! A105  A(58,57,63)           120.0777                                         !
 ! A106  A(55,59,60)           120.2298                                         !
 ! A107  A(55,59,63)           119.6661                                         !
 ! A108  A(60,59,63)           120.1026                                         !
 ! A109  A(62,61,63)           109.136                                          !
 ! A110  A(57,63,59)           119.8545                                         !
 ! A111  A(57,63,61)           117.4269                                         !
 ! A112  A(59,63,61)           122.7174                                         !
 ! A113  A(47,64,65)           118.5215                                         !
 ! A114  A(47,64,66)           120.9386                                         !
 ! A115  A(65,64,66)           118.8216                                         !
 ! A116  A(64,66,67)           107.903                                          !
 ! A117  A(64,66,68)           109.176                                          !
 ! A118  A(64,66,69)           109.4281                                         !
 ! A119  A(67,66,68)           109.2373                                         !
 ! A120  A(67,66,69)           110.8061                                         !
 ! A121  A(68,66,69)           110.2419                                         !
 ! A122  A(66,68,72)           121.4713                                         !
 ! A123  A(66,68,83)           114.22                                           !
 ! A124  A(72,68,83)           124.304                                          !
 ! A125  A(66,69,70)           108.3073                                         !
 ! A126  A(66,69,71)           107.3063                                         !
 ! A127  A(66,69,73)           115.5411                                         !
 ! A128  A(70,69,71)           107.104                                          !
 ! A129  A(70,69,73)           109.0343                                         !
 ! A130  A(71,69,73)           109.2249                                         !
 ! A131  A(69,73,74)           108.6936                                         !
 ! A132  A(69,73,75)           112.4621                                         !
 ! A133  A(69,73,79)           109.6326                                         !
 ! A134  A(74,73,75)           107.6482                                         !
 ! A135  A(74,73,79)           107.8837                                         !
 ! A136  A(75,73,79)           110.3823                                         !
 ! A137  A(73,75,76)           110.7317                                         !
 ! A138  A(73,75,77)           110.5566                                         !
 ! A139  A(73,75,78)           112.7115                                         !
 ! A140  A(76,75,77)           108.114                                          !
 ! A141  A(76,75,78)           107.7016                                         !
 ! A142  A(77,75,78)           106.8259                                         !
 ! A143  A(73,79,80)           110.9457                                         !
 ! A144  A(73,79,81)           111.3976                                         !
 ! A145  A(73,79,82)           110.9144                                         !
 ! A146  A(80,79,81)           107.8039                                         !
 ! A147  A(80,79,82)           107.6785                                         !
 ! A148  A(81,79,82)           107.9443                                         !
 ! A149  A(68,83,84)           120.68                                           !
 ! A150  A(68,83,85)           122.7682                                         !
 ! A151  A(84,83,85)           114.2635                                         !
 ! A152  A(83,85,86)           107.6056                                         !
 ! A153  A(83,85,87)           107.0692                                         !
 ! A154  A(83,85,88)           111.3285                                         !
 ! A155  A(86,85,87)           110.248                                          !
 ! A156  A(86,85,88)           109.3259                                         !
 ! A157  A(87,85,88)           111.1845                                         !
 ! A158  A(85,87,91)           120.9701                                         !
 ! A159  A(85,87,98)           115.3122                                         !
 ! A160  A(91,87,98)           123.6937                                         !
 ! A161  A(85,88,89)           109.0507                                         !
 ! A162  A(85,88,90)           109.2187                                         !
 ! A163  A(85,88,92)           111.5866                                         !
 ! A164  A(89,88,90)           106.5854                                         !
 ! A165  A(89,88,92)           109.8477                                         !
 ! A166  A(90,88,92)           110.4143                                         !
 ! A167  A(88,92,93)           110.0139                                         !
 ! A168  A(88,92,94)           111.8287                                         !
 ! A169  A(88,92,95)           115.1727                                         !
 ! A170  A(93,92,94)           105.1643                                         !
 ! A171  A(93,92,95)           106.3912                                         !
 ! A172  A(94,92,95)           107.6616                                         !
 ! A173  A(92,95,96)           125.1496                                         !
 ! A174  A(92,95,97)           113.1274                                         !
 ! A175  A(96,95,97)           121.6941                                         !
 ! A176  A(95,97,123)          106.0376                                         !
 ! A177  A(87,98,99)           122.0925                                         !
 ! A178  A(87,98,100)          123.7869                                         !
 ! A179  A(99,98,100)          114.0922                                         !
 ! A180  A(98,100,101)         109.1806                                         !
 ! A181  A(98,100,102)         109.0221                                         !
 ! A182  A(98,100,103)         110.0234                                         !
 ! A183  A(101,100,102)        109.2755                                         !
 ! A184  A(101,100,103)        109.248                                          !
 ! A185  A(102,100,103)        110.0722                                         !
 ! A186  A(100,102,106)        117.5416                                         !
 ! A187  A(100,102,122)        114.7516                                         !
 ! A188  A(106,102,122)        127.2687                                         !
 ! A189  A(100,103,104)        107.2165                                         !
 ! A190  A(100,103,105)        106.7943                                         !
 ! A191  A(100,103,107)        115.4183                                         !
 ! A192  A(104,103,105)        106.1417                                         !
 ! A193  A(104,103,107)        110.182                                          !
 ! A194  A(105,103,107)        110.6102                                         !
 ! A195  A(103,107,108)        110.0081                                         !
 ! A196  A(103,107,109)        109.9599                                         !
 ! A197  A(103,107,110)        113.4696                                         !
 ! A198  A(108,107,109)        107.491                                          !
 ! A199  A(108,107,110)        106.388                                          !
 ! A200  A(109,107,110)        109.3036                                         !
 ! A201  A(107,110,111)        109.9857                                         !
 ! A202  A(107,110,112)        110.9681                                         !
 ! A203  A(107,110,113)        114.6594                                         !
 ! A204  A(111,110,112)        105.5672                                         !
 ! A205  A(111,110,113)        106.0231                                         !
 ! A206  A(112,110,113)        109.1391                                         !
 ! A207  A(110,113,114)        114.5926                                         !
 ! A208  A(110,113,121)        125.8488                                         !
 ! A209  A(114,113,121)        111.5838                                         !
 ! A210  A(116,115,117)        114.2662                                         !
 ! A211  A(116,115,121)        116.9552                                         !
 ! A212  A(117,115,121)        118.7615                                         !
 ! A213  A(119,118,120)        114.2518                                         !
 ! A214  A(119,118,121)        116.1857                                         !
 ! A215  A(120,118,121)        111.4172                                         !
 ! A216  A(113,121,115)        121.1471                                         !
 ! A217  A(113,121,118)        117.9261                                         !
 ! A218  A(115,121,118)        120.5868                                         !
 ! D1    D(2,1,5,6)            -24.2112                                         !
 ! D2    D(2,1,5,7)           -138.0599                                         !
 ! D3    D(2,1,5,8)             96.6872                                         !
 ! D4    D(3,1,5,6)           -147.7842                                         !
 ! D5    D(3,1,5,7)             98.3671                                         !
 ! D6    D(3,1,5,8)            -26.8859                                         !
 ! D7    D(4,1,5,6)             97.6532                                         !
 ! D8    D(4,1,5,7)            -16.1955                                         !
 ! D9    D(4,1,5,8)           -141.4485                                         !
 ! D10   D(1,5,7,11)            12.609                                          !
 ! D11   D(1,5,7,23)          -169.1989                                         !
 ! D12   D(6,5,7,11)          -100.3418                                         !
 ! D13   D(6,5,7,23)            77.8503                                         !
 ! D14   D(8,5,7,11)           134.0439                                         !
 ! D15   D(8,5,7,23)           -47.7639                                         !
 ! D16   D(1,5,8,9)            -68.6485                                         !
 ! D17   D(1,5,8,10)           177.2579                                         !
 ! D18   D(1,5,8,12)            53.9155                                         !
 ! D19   D(6,5,8,9)             50.1826                                         !
 ! D20   D(6,5,8,10)           -63.911                                          !
 ! D21   D(6,5,8,12)           172.7466                                         !
 ! D22   D(7,5,8,9)            174.6583                                         !
 ! D23   D(7,5,8,10)            60.5647                                         !
 ! D24   D(7,5,8,12)           -62.7777                                         !
 ! D25   D(5,7,23,24)           13.7469                                         !
 ! D26   D(5,7,23,25)          171.9955                                         !
 ! D27   D(11,7,23,24)        -168.2169                                         !
 ! D28   D(11,7,23,25)          -9.9683                                         !
 ! D29   D(5,8,12,13)          -90.3965                                         !
 ! D30   D(5,8,12,15)           86.5521                                         !
 ! D31   D(9,8,12,13)           30.668                                          !
 ! D32   D(9,8,12,15)         -152.3834                                         !
 ! D33   D(10,8,12,13)         148.1615                                         !
 ! D34   D(10,8,12,15)         -34.8899                                         !
 ! D35   D(8,12,13,14)          -7.9424                                         !
 ! D36   D(8,12,13,17)         175.7708                                         !
 ! D37   D(15,12,13,14)        175.0475                                         !
 ! D38   D(15,12,13,17)         -1.2393                                         !
 ! D39   D(8,12,15,16)           5.4131                                         !
 ! D40   D(8,12,15,19)        -176.1435                                         !
 ! D41   D(13,12,15,16)       -177.6163                                         !
 ! D42   D(13,12,15,19)          0.827                                          !
 ! D43   D(12,13,17,18)        179.2653                                         !
 ! D44   D(12,13,17,21)          0.4883                                         !
 ! D45   D(14,13,17,18)          2.9604                                         !
 ! D46   D(14,13,17,21)       -175.8167                                         !
 ! D47   D(12,15,19,20)       -179.2166                                         !
 ! D48   D(12,15,19,21)          0.3306                                         !
 ! D49   D(16,15,19,20)         -0.7687                                         !
 ! D50   D(16,15,19,21)        178.7785                                         !
 ! D51   D(13,17,21,19)          0.6809                                         !
 ! D52   D(13,17,21,22)        179.5696                                         !
 ! D53   D(18,17,21,19)       -178.0907                                         !
 ! D54   D(18,17,21,22)          0.7981                                         !
 ! D55   D(15,19,21,17)         -1.0936                                         !
 ! D56   D(15,19,21,22)       -179.9818                                         !
 ! D57   D(20,19,21,17)        178.4516                                         !
 ! D58   D(20,19,21,22)         -0.4365                                         !
 ! D59   D(7,23,25,26)         -28.5775                                         !
 ! D60   D(7,23,25,27)        -144.8765                                         !
 ! D61   D(7,23,25,28)          92.1613                                         !
 ! D62   D(24,23,25,26)        131.5985                                         !
 ! D63   D(24,23,25,27)         15.2994                                         !
 ! D64   D(24,23,25,28)       -107.6628                                         !
 ! D65   D(23,25,27,32)         -3.9396                                         !
 ! D66   D(23,25,27,33)        176.0197                                         !
 ! D67   D(26,25,27,32)       -119.3154                                         !
 ! D68   D(26,25,27,33)         60.644                                          !
 ! D69   D(28,25,27,32)        118.1432                                         !
 ! D70   D(28,25,27,33)        -61.8975                                         !
 ! D71   D(23,25,28,29)       -178.9832                                         !
 ! D72   D(23,25,28,30)         60.6287                                         !
 ! D73   D(23,25,28,31)        -59.6622                                         !
 ! D74   D(26,25,28,29)        -59.1905                                         !
 ! D75   D(26,25,28,30)       -179.5787                                         !
 ! D76   D(26,25,28,31)         60.1305                                         !
 ! D77   D(27,25,28,29)         63.1857                                         !
 ! D78   D(27,25,28,30)        -57.2024                                         !
 ! D79   D(27,25,28,31)       -177.4933                                         !
 ! D80   D(25,27,33,34)          1.8485                                         !
 ! D81   D(25,27,33,35)        178.321                                          !
 ! D82   D(32,27,33,34)       -178.194                                          !
 ! D83   D(32,27,33,35)         -1.7215                                         !
 ! D84   D(27,33,35,36)        -45.881                                          !
 ! D85   D(27,33,35,37)       -164.3589                                         !
 ! D86   D(27,33,35,38)         75.0116                                         !
 ! D87   D(34,33,35,36)        130.8899                                         !
 ! D88   D(34,33,35,37)         12.412                                          !
 ! D89   D(34,33,35,38)       -108.2175                                         !
 ! D90   D(33,35,37,42)        -15.2128                                         !
 ! D91   D(33,35,37,43)        165.8487                                         !
 ! D92   D(36,35,37,42)       -132.437                                          !
 ! D93   D(36,35,37,43)         48.6245                                         !
 ! D94   D(38,35,37,42)        105.957                                          !
 ! D95   D(38,35,37,43)        -72.9815                                         !
 ! D96   D(33,35,38,39)       -178.9289                                         !
 ! D97   D(33,35,38,40)         61.0948                                         !
 ! D98   D(33,35,38,41)        -59.3169                                         !
 ! D99   D(36,35,38,39)        -58.5616                                         !
 ! D100  D(36,35,38,40)       -178.538                                          !
 ! D101  D(36,35,38,41)         61.0504                                         !
 ! D102  D(37,35,38,39)         63.6093                                         !
 ! D103  D(37,35,38,40)        -56.3671                                         !
 ! D104  D(37,35,38,41)       -176.7787                                         !
 ! D105  D(35,37,43,44)          6.0802                                         !
 ! D106  D(35,37,43,45)        170.1487                                         !
 ! D107  D(42,37,43,44)       -172.8145                                         !
 ! D108  D(42,37,43,45)         -8.746                                          !
 ! D109  D(37,43,45,46)         35.9748                                         !
 ! D110  D(37,43,45,47)        -82.0426                                         !
 ! D111  D(37,43,45,48)        155.3667                                         !
 ! D112  D(44,43,45,46)       -159.5948                                         !
 ! D113  D(44,43,45,47)         82.3878                                         !
 ! D114  D(44,43,45,48)        -40.203                                          !
 ! D115  D(43,45,47,51)        -91.4628                                         !
 ! D116  D(43,45,47,64)         83.5722                                         !
 ! D117  D(46,45,47,51)        152.9906                                         !
 ! D118  D(46,45,47,64)        -31.9744                                         !
 ! D119  D(48,45,47,51)         30.6112                                         !
 ! D120  D(48,45,47,64)       -154.3538                                         !
 ! D121  D(43,45,48,49)        -48.9577                                         !
 ! D122  D(43,45,48,50)         67.7996                                         !
 ! D123  D(43,45,48,52)       -170.6818                                         !
 ! D124  D(46,45,48,49)         68.3683                                         !
 ! D125  D(46,45,48,50)       -174.8744                                         !
 ! D126  D(46,45,48,52)        -53.3558                                         !
 ! D127  D(47,45,48,49)       -169.0449                                         !
 ! D128  D(47,45,48,50)        -52.2876                                         !
 ! D129  D(47,45,48,52)         69.2311                                         !
 ! D130  D(45,47,64,65)         10.1361                                         !
 ! D131  D(45,47,64,66)        175.0266                                         !
 ! D132  D(51,47,64,65)       -174.9191                                         !
 ! D133  D(51,47,64,66)        -10.0286                                         !
 ! D134  D(45,48,52,53)       -104.8491                                         !
 ! D135  D(45,48,52,55)         73.8137                                         !
 ! D136  D(49,48,52,53)        135.0947                                         !
 ! D137  D(49,48,52,55)        -46.2425                                         !
 ! D138  D(50,48,52,53)         15.7335                                         !
 ! D139  D(50,48,52,55)       -165.6037                                         !
 ! D140  D(48,52,53,54)         -0.8467                                         !
 ! D141  D(48,52,53,57)        179.112                                          !
 ! D142  D(55,52,53,54)       -179.5361                                         !
 ! D143  D(55,52,53,57)          0.4226                                         !
 ! D144  D(48,52,55,56)          1.8381                                         !
 ! D145  D(48,52,55,59)       -178.5267                                         !
 ! D146  D(53,52,55,56)       -179.4577                                         !
 ! D147  D(53,52,55,59)          0.1776                                         !
 ! D148  D(52,53,57,58)        178.742                                          !
 ! D149  D(52,53,57,63)         -0.8665                                         !
 ! D150  D(54,53,57,58)         -1.2986                                         !
 ! D151  D(54,53,57,63)        179.0928                                         !
 ! D152  D(52,55,59,60)       -179.8954                                         !
 ! D153  D(52,55,59,63)         -0.3258                                         !
 ! D154  D(56,55,59,60)         -0.2574                                         !
 ! D155  D(56,55,59,63)        179.3122                                         !
 ! D156  D(53,57,63,59)          0.7068                                         !
 ! D157  D(53,57,63,61)       -179.6772                                         !
 ! D158  D(58,57,63,59)       -178.9021                                         !
 ! D159  D(58,57,63,61)          0.7139                                         !
 ! D160  D(55,59,63,57)         -0.1199                                         !
 ! D161  D(55,59,63,61)       -179.7148                                         !
 ! D162  D(60,59,63,57)        179.4502                                         !
 ! D163  D(60,59,63,61)         -0.1447                                         !
 ! D164  D(62,61,63,57)        179.8278                                         !
 ! D165  D(62,61,63,59)         -0.5681                                         !
 ! D166  D(47,64,66,67)         60.2562                                         !
 ! D167  D(47,64,66,68)        -58.3597                                         !
 ! D168  D(47,64,66,69)       -179.0959                                         !
 ! D169  D(65,64,66,67)       -134.8977                                         !
 ! D170  D(65,64,66,68)        106.4865                                         !
 ! D171  D(65,64,66,69)        -14.2498                                         !
 ! D172  D(64,66,68,72)        -36.8917                                         !
 ! D173  D(64,66,68,83)        143.8665                                         !
 ! D174  D(67,66,68,72)       -154.6714                                         !
 ! D175  D(67,66,68,83)         26.0868                                         !
 ! D176  D(69,66,68,72)         83.3459                                         !
 ! D177  D(69,66,68,83)        -95.8959                                         !
 ! D178  D(64,66,69,70)        -52.6571                                         !
 ! D179  D(64,66,69,71)         62.6563                                         !
 ! D180  D(64,66,69,73)       -175.2613                                         !
 ! D181  D(67,66,69,70)         66.2068                                         !
 ! D182  D(67,66,69,71)       -178.4798                                         !
 ! D183  D(67,66,69,73)        -56.3973                                         !
 ! D184  D(68,66,69,70)       -172.7428                                         !
 ! D185  D(68,66,69,71)        -57.4294                                         !
 ! D186  D(68,66,69,73)         64.6531                                         !
 ! D187  D(66,68,83,84)         11.2367                                         !
 ! D188  D(66,68,83,85)        173.0633                                         !
 ! D189  D(72,68,83,84)       -167.9805                                         !
 ! D190  D(72,68,83,85)         -6.1538                                         !
 ! D191  D(66,69,73,74)        -54.4807                                         !
 ! D192  D(66,69,73,75)         64.6118                                         !
 ! D193  D(66,69,73,79)       -172.1843                                         !
 ! D194  D(70,69,73,74)       -176.6979                                         !
 ! D195  D(70,69,73,75)        -57.6054                                         !
 ! D196  D(70,69,73,79)         65.5985                                         !
 ! D197  D(71,69,73,74)         66.5711                                         !
 ! D198  D(71,69,73,75)       -174.3364                                         !
 ! D199  D(71,69,73,79)        -51.1325                                         !
 ! D200  D(69,73,75,76)         60.3074                                         !
 ! D201  D(69,73,75,77)       -179.892                                          !
 ! D202  D(69,73,75,78)        -60.4136                                         !
 ! D203  D(74,73,75,76)       -179.9911                                         !
 ! D204  D(74,73,75,77)        -60.1905                                         !
 ! D205  D(74,73,75,78)         59.2879                                         !
 ! D206  D(79,73,75,76)        -62.4761                                         !
 ! D207  D(79,73,75,77)         57.3246                                         !
 ! D208  D(79,73,75,78)        176.8029                                         !
 ! D209  D(69,73,79,80)        -61.8414                                         !
 ! D210  D(69,73,79,81)         58.266                                          !
 ! D211  D(69,73,79,82)        178.53                                           !
 ! D212  D(74,73,79,80)        179.9506                                         !
 ! D213  D(74,73,79,81)        -59.942                                          !
 ! D214  D(74,73,79,82)         60.322                                          !
 ! D215  D(75,73,79,80)         62.5809                                         !
 ! D216  D(75,73,79,81)       -177.3117                                         !
 ! D217  D(75,73,79,82)        -57.0477                                         !
 ! D218  D(68,83,85,86)        -18.0523                                         !
 ! D219  D(68,83,85,87)       -136.5588                                         !
 ! D220  D(68,83,85,88)        101.7253                                         !
 ! D221  D(84,83,85,86)        144.8364                                         !
 ! D222  D(84,83,85,87)         26.3299                                         !
 ! D223  D(84,83,85,88)        -95.386                                          !
 ! D224  D(83,85,87,91)        -11.4244                                         !
 ! D225  D(83,85,87,98)        170.2941                                         !
 ! D226  D(86,85,87,91)       -128.2006                                         !
 ! D227  D(86,85,87,98)         53.5179                                         !
 ! D228  D(88,85,87,91)        110.382                                          !
 ! D229  D(88,85,87,98)        -67.8995                                         !
 ! D230  D(83,85,88,89)         67.0864                                         !
 ! D231  D(83,85,88,90)       -176.7979                                         !
 ! D232  D(83,85,88,92)        -54.4416                                         !
 ! D233  D(86,85,88,89)       -174.1611                                         !
 ! D234  D(86,85,88,90)        -58.0454                                         !
 ! D235  D(86,85,88,92)         64.3108                                         !
 ! D236  D(87,85,88,89)        -52.2063                                         !
 ! D237  D(87,85,88,90)         63.9094                                         !
 ! D238  D(87,85,88,92)       -173.7344                                         !
 ! D239  D(85,87,98,99)         -5.3609                                         !
 ! D240  D(85,87,98,100)       176.6952                                         !
 ! D241  D(91,87,98,99)        176.4101                                         !
 ! D242  D(91,87,98,100)        -1.5338                                         !
 ! D243  D(85,88,92,93)         60.8848                                         !
 ! D244  D(85,88,92,94)        -55.5898                                         !
 ! D245  D(85,88,92,95)       -178.9141                                         !
 ! D246  D(89,88,92,93)        -60.1803                                         !
 ! D247  D(89,88,92,94)       -176.6549                                         !
 ! D248  D(89,88,92,95)         60.0208                                         !
 ! D249  D(90,88,92,93)       -177.4481                                         !
 ! D250  D(90,88,92,94)         66.0772                                         !
 ! D251  D(90,88,92,95)        -57.2471                                         !
 ! D252  D(88,92,95,96)        156.6045                                         !
 ! D253  D(88,92,95,97)        -25.3301                                         !
 ! D254  D(93,92,95,96)        -81.2258                                         !
 ! D255  D(93,92,95,97)         96.8396                                         !
 ! D256  D(94,92,95,96)         31.0964                                         !
 ! D257  D(94,92,95,97)       -150.8382                                         !
 ! D258  D(92,95,97,123)      -178.4508                                         !
 ! D259  D(96,95,97,123)        -0.3099                                         !
 ! D260  D(87,98,100,101)      -42.4653                                         !
 ! D261  D(87,98,100,102)     -161.7815                                         !
 ! D262  D(87,98,100,103)       77.4197                                         !
 ! D263  D(99,98,100,101)      139.4428                                         !
 ! D264  D(99,98,100,102)       20.1266                                         !
 ! D265  D(99,98,100,103)     -100.6723                                         !
 ! D266  D(98,100,102,106)     151.0894                                         !
 ! D267  D(98,100,102,122)     -35.9483                                         !
 ! D268  D(101,100,102,106)     31.8322                                         !
 ! D269  D(101,100,102,122)   -155.2054                                         !
 ! D270  D(103,100,102,106)    -88.1416                                         !
 ! D271  D(103,100,102,122)     84.8207                                         !
 ! D272  D(98,100,103,104)      45.6573                                         !
 ! D273  D(98,100,103,105)     -67.7675                                         !
 ! D274  D(98,100,103,107)     168.8293                                         !
 ! D275  D(101,100,103,104)    165.5013                                         !
 ! D276  D(101,100,103,105)     52.0766                                         !
 ! D277  D(101,100,103,107)    -71.3267                                         !
 ! D278  D(102,100,103,104)    -74.5082                                         !
 ! D279  D(102,100,103,105)    172.0671                                         !
 ! D280  D(102,100,103,107)     48.6639                                         !
 ! D281  D(100,103,107,108)    134.4743                                         !
 ! D282  D(100,103,107,109)     16.2745                                         !
 ! D283  D(100,103,107,110)   -106.4843                                         !
 ! D284  D(104,103,107,108)   -103.9368                                         !
 ! D285  D(104,103,107,109)    137.8635                                         !
 ! D286  D(104,103,107,110)     15.1047                                         !
 ! D287  D(105,103,107,108)     13.1083                                         !
 ! D288  D(105,103,107,109)   -105.0915                                         !
 ! D289  D(105,103,107,110)    132.1498                                         !
 ! D290  D(103,107,110,111)    -57.5141                                         !
 ! D291  D(103,107,110,112)   -173.9498                                         !
 ! D292  D(103,107,110,113)     61.8364                                         !
 ! D293  D(108,107,110,111)     63.5833                                         !
 ! D294  D(108,107,110,112)    -52.8523                                         !
 ! D295  D(108,107,110,113)   -177.0661                                         !
 ! D296  D(109,107,110,111)    179.3657                                         !
 ! D297  D(109,107,110,112)     62.9301                                         !
 ! D298  D(109,107,110,113)    -61.2837                                         !
 ! D299  D(107,110,113,114)    -62.7731                                         !
 ! D300  D(107,110,113,121)     83.304                                          !
 ! D301  D(111,110,113,114)     58.7691                                         !
 ! D302  D(111,110,113,121)   -155.1538                                         !
 ! D303  D(112,110,113,114)    172.0487                                         !
 ! D304  D(112,110,113,121)    -41.8742                                         !
 ! D305  D(110,113,121,115)     26.467                                          !
 ! D306  D(110,113,121,118)   -160.1906                                         !
 ! D307  D(114,113,121,115)    173.3932                                         !
 ! D308  D(114,113,121,118)    -13.2644                                         !
 ! D309  D(116,115,121,113)   -157.0335                                         !
 ! D310  D(116,115,121,118)     29.8005                                         !
 ! D311  D(117,115,121,113)    -13.4155                                         !
 ! D312  D(117,115,121,118)    173.4185                                         !
 ! D313  D(119,118,121,113)    173.0989                                         !
 ! D314  D(119,118,121,115)    -13.5197                                         !
 ! D315  D(120,118,121,113)     39.8977                                         !
 ! D316  D(120,118,121,115)   -146.721                                          !
 --------------------------------------------------------------------------------
 Symmetry turned off by external request.
 Stoichiometry    C41H61N10O11(1+)
 Framework group  C1[X(C41H61N10O11)]
 Deg. of freedom   363
 Full point group                 C1      NOp   1
                          Input orientation:                          
 ---------------------------------------------------------------------
 Center     Atomic      Atomic             Coordinates (Angstroms)
 Number     Number       Type             X           Y           Z
 ---------------------------------------------------------------------
      1          7           0       -8.007826    0.919058    8.965702
      2          1           0       -8.780819    0.824824    9.627622
      3          1           0       -7.303356    1.573879    9.345278
      4          1           0       -7.526126   -0.003944    8.779962
      5          6           0       -8.424194    1.364811    7.582097
      6          1           0       -9.473219    1.080767    7.453850
      7          6           0       -7.554800    0.455590    6.665800
      8          6           0       -8.249392    2.891659    7.414084
      9          1           0       -8.989317    3.390733    8.051022
     10          1           0       -8.516847    3.151446    6.384634
     11          8           0       -6.974588   -0.505102    7.190681
     12          6           0       -6.849236    3.356899    7.754367
     13          6           0       -6.542802    3.745808    9.070114
     14          1           0       -7.339390    3.835695    9.809164
     15          6           0       -5.829129    3.347809    6.791380
     16          1           0       -6.054971    3.087498    5.760787
     17          6           0       -5.235792    4.094339    9.424623
     18          1           0       -5.015736    4.404321   10.441817
     19          6           0       -4.528494    3.704321    7.147295
     20          1           0       -3.748566    3.706348    6.391381
     21          6           0       -4.225903    4.066549    8.463019
     22          1           0       -3.211046    4.343097    8.732153
     23          7           0       -7.528554    0.757513    5.373164
     24          1           0       -7.874347    1.650636    5.022470
     25          6           0       -6.632346    0.108940    4.416671
     26          1           0       -5.733086   -0.208013    4.956758
     27          6           0       -6.260196    1.227055    3.415673
     28          6           0       -7.288623   -1.107736    3.750410
     29          1           0       -6.598527   -1.590756    3.052041
     30          1           0       -8.185752   -0.809693    3.199032
     31          1           0       -7.566262   -1.838821    4.514793
     32          8           0       -6.779624    2.348344    3.515841
     33          7           0       -5.370125    0.896524    2.476102
     34          1           0       -4.973864   -0.037933    2.393110
     35          6           0       -4.929565    1.810450    1.430248
     36          1           0       -5.809847    2.306429    1.005645
     37          6           0       -4.245889    0.926842    0.370780
     38          6           0       -3.954756    2.870005    1.973226
     39          1           0       -3.645685    3.561715    1.183257
     40          1           0       -3.058812    2.387685    2.376977
     41          1           0       -4.447364    3.444169    2.762167
     42          8           0       -3.920112   -0.232856    0.643211
     43          7           0       -4.021917    1.511077   -0.822580
     44          1           0       -4.218613    2.497912   -0.934616
     45          6           0       -3.193841    0.876932   -1.860979
     46          1           0       -3.387203   -0.196487   -1.796434
     47          6           0       -1.715973    1.172837   -1.523323
     48          6           0       -3.573283    1.389780   -3.254354
     49          1           0       -4.665086    1.327374   -3.348838
     50          1           0       -3.286344    2.444519   -3.326528
     51          8           0       -1.132571    2.155840   -1.971565
     52          6           0       -2.896195    0.590244   -4.347260
     53          6           0       -1.808457    1.107059   -5.062574
     54          1           0       -1.440089    2.104986   -4.850056
     55          6           0       -3.331704   -0.705419   -4.647892
     56          1           0       -4.180734   -1.128489   -4.113204
     57          6           0       -1.177172    0.362898   -6.053462
     58          1           0       -0.349930    0.787910   -6.610007
     59          6           0       -2.702264   -1.469039   -5.629416
     60          1           0       -3.055174   -2.474652   -5.851723
     61          8           0       -0.959479   -1.624573   -7.313894
     62          1           0       -1.359646   -2.502773   -7.407267
     63          6           0       -1.618753   -0.933246   -6.335195
     64          7           0       -1.166401    0.324249   -0.619762
     65          1           0       -1.683480   -0.505024   -0.359391
     66          6           0        0.244856    0.405864   -0.279748
     67          1           0        0.434279    1.401797    0.134620
     68          6           0        1.086459    0.219252   -1.560115
     69          6           0        0.588009   -0.687608    0.746966
     70          1           0       -0.116553   -0.605331    1.588015
     71          1           0        0.404084   -1.657764    0.265052
     72          8           0        0.747036   -0.562195   -2.440303
     73          6           0        2.029395   -0.657429    1.293659
     74          1           0        2.727222   -0.680003    0.447025
     75          6           0        2.322737    0.613117    2.105088
     76          1           0        1.649062    0.686516    2.969769
     77          1           0        3.352797    0.603133    2.475980
     78          1           0        2.207310    1.528274    1.514319
     79          6           0        2.283523   -1.907857    2.147597
     80          1           0        1.608912   -1.935445    3.013931
     81          1           0        2.124743   -2.825879    1.569734
     82          1           0        3.311806   -1.920745    2.526022
     83          7           0        2.212245    0.973131   -1.600366
     84          1           0        2.536719    1.462854   -0.774038
     85          6           0        3.209341    0.837890   -2.641938
     86          1           0        3.051785   -0.131708   -3.127746
     87          6           0        4.588571    0.872476   -1.955089
     88          6           0        3.080518    1.963229   -3.692732
     89          1           0        3.340979    2.919555   -3.226238
     90          1           0        3.811529    1.795731   -4.492324
     91          8           0        4.700657    1.204116   -0.769626
     92          6           0        1.662163    2.035308   -4.271196
     93          1           0        0.940172    2.248479   -3.471085
     94          1           0        1.346263    1.077549   -4.693827
     95          6           0        1.452521    3.092936   -5.326801
     96          8           0        0.584179    3.071037   -6.175921
     97          8           0        2.320760    4.130040   -5.221820
     98          7           0        5.631454    0.556275   -2.743144
     99          1           0        5.507950    0.235737   -3.698157
    100          6           0        7.020266    0.597398   -2.304480
    101          1           0        7.183090    1.500923   -1.712726
    102          6           0        7.937067    0.627999   -3.542160
    103          6           0        7.340550   -0.649624   -1.434192
    104          1           0        6.923939   -1.524336   -1.953297
    105          1           0        6.767742   -0.544270   -0.507887
    106          8           0        9.038322    1.194481   -3.428185
    107          6           0        8.840627   -0.876531   -1.124606
    108          1           0        8.972738   -1.114571   -0.061923
    109          1           0        9.407067    0.037628   -1.329946
    110          6           0        9.459375   -2.046661   -1.912243
    111          1           0        8.907610   -2.970000   -1.705998
    112          1           0       10.486953   -2.239092   -1.585595
    113          7           0        9.441020   -1.880673   -3.372256
    114          1           0        8.507941   -1.823963   -3.781529
    115          7           0       11.611075   -1.032060   -3.660637
    116          1           0       12.125391   -0.247109   -4.035027
    117          1           0       11.826100   -1.247913   -2.698922
    118          7           0        9.983939   -0.799326   -5.326231
    119          1           0       10.638133   -0.195373   -5.807216
    120          1           0        8.986391   -0.460507   -5.346950
    121          6           0       10.340247   -1.197309   -4.096865
    122          8           0        7.519112   -0.068180   -4.539008
    123          1           0        2.079133    4.756691   -5.929902
 ---------------------------------------------------------------------
 Rotational constants (GHZ):           0.0517169           0.0123895           0.0108045
 Standard basis: 6-31G(d) (6D, 7F)
  1052 basis functions,  1980 primitive gaussians,  1052 cartesian basis functions
   232 alpha electrons      232 beta electrons
       nuclear repulsion energy      8992.8868330423 Hartrees.
 NAtoms=  123 NActive=  123 NUniq=  123 SFac= 1.00D+00 NAtFMM=   60 NAOKFM=T Big=T
 Integral buffers will be    131072 words long.
 Raffenetti 2 integral format.
 Two-electron integral symmetry is turned off.
 Nuclear repulsion after empirical dispersion term =     8992.7228956276 Hartrees.
 One-electron integrals computed using PRISM.
 NBasis=  1052 RedAO= T EigKep=  4.26D-04  NBF=  1052
 NBsUse=  1052 1.00D-06 EigRej= -1.00D+00 NBFU=  1052
 Initial guess from the checkpoint file:  "conf-448.chk"
 B after Tr=     0.000000    0.000000    0.000000
         Rot=    1.000000    0.000000    0.000000    0.000000 Ang=   0.00 deg.
 Requested convergence on RMS density matrix=1.00D-08 within 128 cycles.
 Requested convergence on MAX density matrix=1.00D-06.
 Requested convergence on             energy=1.00D-06.
 No special actions if energy rises.
 SCF Done:  E(RB3LYP) =  -2974.19059962     A.U. after    1 cycles
            NFock=  1  Conv=0.85D-08     -V/T= 2.0094
 Hyperfine terms turned off by default for NAtoms > 100.

 **********************************************************************

            Population analysis using the SCF Density.

 **********************************************************************

 Alpha  occ. eigenvalues --  -19.26823 -19.22759 -19.22390 -19.20605 -19.20240
 Alpha  occ. eigenvalues --  -19.16496 -19.16448 -19.14825 -19.14452 -19.12589
 Alpha  occ. eigenvalues --  -19.11354 -14.59468 -14.49353 -14.46085 -14.44531
 Alpha  occ. eigenvalues --  -14.44218 -14.43001 -14.40662 -14.40506 -14.38915
 Alpha  occ. eigenvalues --  -14.38630 -10.43650 -10.40986 -10.39677 -10.39204
 Alpha  occ. eigenvalues --  -10.37512 -10.35087 -10.34738 -10.34374 -10.33439
 Alpha  occ. eigenvalues --  -10.32789 -10.32234 -10.31828 -10.31709 -10.31123
 Alpha  occ. eigenvalues --  -10.30374 -10.30132 -10.30047 -10.29901 -10.29654
 Alpha  occ. eigenvalues --  -10.29163 -10.29146 -10.28675 -10.27576 -10.27272
 Alpha  occ. eigenvalues --  -10.26925 -10.26484 -10.24695 -10.23865 -10.23778
 Alpha  occ. eigenvalues --  -10.23447 -10.23386 -10.22499 -10.22462 -10.22065
 Alpha  occ. eigenvalues --  -10.21956 -10.21882 -10.21794 -10.21749 -10.21636
 Alpha  occ. eigenvalues --  -10.20909 -10.20157  -1.19276  -1.14658  -1.13608
 Alpha  occ. eigenvalues --   -1.13137  -1.12369  -1.08487  -1.08235  -1.08084
 Alpha  occ. eigenvalues --   -1.06911  -1.06252  -1.06078  -1.05001  -1.03891
 Alpha  occ. eigenvalues --   -1.02732  -1.00714  -0.97844  -0.97639  -0.97168
 Alpha  occ. eigenvalues --   -0.96588  -0.95795  -0.95559  -0.94725  -0.93372
 Alpha  occ. eigenvalues --   -0.89404  -0.88205  -0.86781  -0.85993  -0.85808
 Alpha  occ. eigenvalues --   -0.85337  -0.83982  -0.83034  -0.82880  -0.80110
 Alpha  occ. eigenvalues --   -0.79616  -0.78592  -0.77254  -0.77096  -0.76727
 Alpha  occ. eigenvalues --   -0.75726  -0.74922  -0.74512  -0.73037  -0.72662
 Alpha  occ. eigenvalues --   -0.71736  -0.71520  -0.70990  -0.70654  -0.69791
 Alpha  occ. eigenvalues --   -0.69602  -0.69172  -0.68558  -0.67382  -0.66311
 Alpha  occ. eigenvalues --   -0.66157  -0.64927  -0.64666  -0.64460  -0.63939
 Alpha  occ. eigenvalues --   -0.63735  -0.62780  -0.62115  -0.61877  -0.61341
 Alpha  occ. eigenvalues --   -0.61133  -0.60949  -0.60671  -0.60328  -0.60002
 Alpha  occ. eigenvalues --   -0.58835  -0.58123  -0.57708  -0.57515  -0.57273
 Alpha  occ. eigenvalues --   -0.56731  -0.56697  -0.56460  -0.55477  -0.55227
 Alpha  occ. eigenvalues --   -0.55043  -0.54398  -0.54181  -0.53475  -0.53306
 Alpha  occ. eigenvalues --   -0.53200  -0.53090  -0.52554  -0.52407  -0.51994
 Alpha  occ. eigenvalues --   -0.51935  -0.51690  -0.51528  -0.51434  -0.51096
 Alpha  occ. eigenvalues --   -0.50949  -0.50588  -0.50304  -0.49676  -0.49208
 Alpha  occ. eigenvalues --   -0.48952  -0.48933  -0.48682  -0.48372  -0.47944
 Alpha  occ. eigenvalues --   -0.47895  -0.47794  -0.47756  -0.47669  -0.47452
 Alpha  occ. eigenvalues --   -0.47143  -0.46829  -0.46367  -0.46173  -0.45583
 Alpha  occ. eigenvalues --   -0.45565  -0.45414  -0.45313  -0.45162  -0.45022
 Alpha  occ. eigenvalues --   -0.44666  -0.44415  -0.44216  -0.44199  -0.43802
 Alpha  occ. eigenvalues --   -0.43588  -0.42895  -0.42673  -0.42565  -0.42064
 Alpha  occ. eigenvalues --   -0.41935  -0.41606  -0.41453  -0.41365  -0.40796
 Alpha  occ. eigenvalues --   -0.40692  -0.40229  -0.39877  -0.39457  -0.39429
 Alpha  occ. eigenvalues --   -0.39265  -0.38737  -0.38700  -0.38426  -0.37577
 Alpha  occ. eigenvalues --   -0.37408  -0.37196  -0.36948  -0.36892  -0.36703
 Alpha  occ. eigenvalues --   -0.36636  -0.36225  -0.36168  -0.36060  -0.35279
 Alpha  occ. eigenvalues --   -0.34823  -0.34770  -0.34288  -0.34154  -0.32097
 Alpha  occ. eigenvalues --   -0.30969  -0.30273  -0.29671  -0.29233  -0.28973
 Alpha  occ. eigenvalues --   -0.28355  -0.27990  -0.27810  -0.27394  -0.27059
 Alpha  occ. eigenvalues --   -0.24906  -0.24265
 Alpha virt. eigenvalues --   -0.12972  -0.12353  -0.12288  -0.08814  -0.08455
 Alpha virt. eigenvalues --   -0.06441  -0.04792  -0.04458  -0.03304  -0.03044
 Alpha virt. eigenvalues --   -0.02766  -0.01869  -0.01618  -0.01461  -0.01014
 Alpha virt. eigenvalues --   -0.00777  -0.00537  -0.00368  -0.00336   0.00255
 Alpha virt. eigenvalues --    0.00420   0.01288   0.01537   0.01818   0.03316
 Alpha virt. eigenvalues --    0.03325   0.03644   0.04078   0.04246   0.04334
 Alpha virt. eigenvalues --    0.04547   0.04760   0.04865   0.04902   0.05513
 Alpha virt. eigenvalues --    0.05717   0.05848   0.06044   0.06260   0.06602
 Alpha virt. eigenvalues --    0.06971   0.07007   0.07406   0.07836   0.07974
[...]
 Alpha virt. eigenvalues --    0.94139   0.94536   0.94843   0.94950   0.95417
 Alpha virt. eigenvalues --    0.95636   0.96022   0.96174   0.96944   0.97089
 Alpha virt. eigenvalues --    0.97444   0.98294   0.98671   0.98991   0.99488
 Alpha virt. eigenvalues --    0.99688   1.00479   1.00882   1.01177   1.01373
 Alpha virt. eigenvalues --    1.01713   1.01896   1.02386   1.02801   1.03245
 Alpha virt. eigenvalues --    1.04085   1.04176   1.04839   1.05126   1.05698
 Alpha virt. eigenvalues --    1.06894   1.07108   1.07633   1.08136   1.08512
 Alpha virt. eigenvalues --    1.09119   1.09564   1.09791   1.10555   1.10784
 Alpha virt. eigenvalues --    1.11179   1.11985   1.12717   1.12901   1.13629
 Alpha virt. eigenvalues --    1.13820   1.13994   1.14344   1.15362   1.15964
 Alpha virt. eigenvalues --    1.16122   1.16695   1.16766   1.17937   1.18907
 Alpha virt. eigenvalues --    1.19318   1.19726   1.20059   1.21199   1.21376
 Alpha virt. eigenvalues --    1.21705   1.22281   1.22932   1.23769   1.24669
 Alpha virt. eigenvalues --    1.25387   1.25433   1.25768   1.26505   1.26961
 Alpha virt. eigenvalues --    1.27274   1.27514   1.28175   1.28602   1.29182
 Alpha virt. eigenvalues --    1.29736   1.30413   1.30824   1.31243   1.31275
 Alpha virt. eigenvalues --    1.32146   1.32485   1.33050   1.33598   1.33934
 Alpha virt. eigenvalues --    1.34303   1.34888   1.35339   1.35586   1.35632
 Alpha virt. eigenvalues --    1.36296   1.36643   1.37500   1.37867   1.38428
 Alpha virt. eigenvalues --    1.38563   1.39021   1.39266   1.39701   1.40609
 Alpha virt. eigenvalues --    1.40872   1.41696   1.42077   1.42293   1.42475
 Alpha virt. eigenvalues --    1.42838   1.43552   1.43716   1.44051   1.44589
 Alpha virt. eigenvalues --    1.45289   1.45792   1.47150   1.47884   1.48030
 Alpha virt. eigenvalues --    1.49040   1.49155   1.49994   1.50376   1.51317
 Alpha virt. eigenvalues --    1.51846   1.52213   1.53387   1.54095   1.54803
 Alpha virt. eigenvalues --    1.55726   1.56226   1.57061   1.57510   1.58026
 Alpha virt. eigenvalues --    1.59290   1.59714   1.59959   1.60715   1.61122
 Alpha virt. eigenvalues --    1.62563   1.62658   1.63064   1.63330   1.63995
 Alpha virt. eigenvalues --    1.64340   1.64468   1.64863   1.65218   1.65890
 Alpha virt. eigenvalues --    1.66580   1.66969   1.67391   1.67519   1.68148
 Alpha virt. eigenvalues --    1.68393   1.69404   1.70034   1.70171   1.70727
 Alpha virt. eigenvalues --    1.70840   1.70959   1.71475   1.72003   1.72432
 Alpha virt. eigenvalues --    1.73297   1.73477   1.73747   1.74016   1.74359
 Alpha virt. eigenvalues --    1.74669   1.75243   1.75293   1.75513   1.75939
 Alpha virt. eigenvalues --    1.76156   1.76297   1.76622   1.76699   1.76857
 Alpha virt. eigenvalues --    1.77053   1.77928   1.78313   1.78558   1.78639
 Alpha virt. eigenvalues --    1.79129   1.79302   1.79637   1.79927   1.80424
 Alpha virt. eigenvalues --    1.80689   1.80871   1.80929   1.81445   1.81872
 Alpha virt. eigenvalues --    1.81974   1.82252   1.82985   1.83437   1.83749
 Alpha virt. eigenvalues --    1.84283   1.84677   1.84951   1.85113   1.85380
 Alpha virt. eigenvalues --    1.85515   1.85939   1.86257   1.86539   1.87212
 Alpha virt. eigenvalues --    1.87435   1.87817   1.88367   1.88828   1.89350
 Alpha virt. eigenvalues --    1.89360   1.90163   1.90419   1.90672   1.91379
 Alpha virt. eigenvalues --    1.91703   1.91810   1.92466   1.92647   1.92812
 Alpha virt. eigenvalues --    1.93148   1.93342   1.93451   1.94098   1.94367
 Alpha virt. eigenvalues --    1.94593   1.94650   1.95175   1.95698   1.95985
 Alpha virt. eigenvalues --    1.96301   1.96510   1.97027   1.97439   1.97817
 Alpha virt. eigenvalues --    1.98372   1.98624   1.98949   1.99404   2.00236
 Alpha virt. eigenvalues --    2.00346   2.00769   2.01119   2.01671   2.02016
 Alpha virt. eigenvalues --    2.02476   2.02566   2.03454   2.03958   2.04263
 Alpha virt. eigenvalues --    2.04558   2.04638   2.05082   2.05869   2.06093
 Alpha virt. eigenvalues --    2.06639   2.06954   2.07600   2.08062   2.08123
 Alpha virt. eigenvalues --    2.08310   2.08421   2.08604   2.09352   2.09745
 Alpha virt. eigenvalues --    2.09913   2.10573   2.11357   2.12347   2.13011
 Alpha virt. eigenvalues --    2.13656   2.14675   2.15136   2.15354   2.15689
 Alpha virt. eigenvalues --    2.16148   2.16510   2.16907   2.17395   2.17724
 Alpha virt. eigenvalues --    2.18184   2.18274   2.18696   2.19406   2.19637
 Alpha virt. eigenvalues --    2.20457   2.20684   2.20791   2.21515   2.21669
 Alpha virt. eigenvalues --    2.23524   2.24372   2.25002   2.25464   2.25600
 Alpha virt. eigenvalues --    2.25749   2.25960   2.26196   2.26702   2.26900
 Alpha virt. eigenvalues --    2.27944   2.28463   2.28989   2.29815   2.30377
 Alpha virt. eigenvalues --    2.30678   2.31659   2.32208   2.32461   2.33128
 Alpha virt. eigenvalues --    2.34007   2.34309   2.34391   2.34526   2.35596
 Alpha virt. eigenvalues --    2.36308   2.37187   2.37470   2.37724   2.38108
 Alpha virt. eigenvalues --    2.38729   2.39191   2.39968   2.40832   2.41117
 Alpha virt. eigenvalues --    2.41585   2.42275   2.42620   2.42982   2.43679
 Alpha virt. eigenvalues --    2.44554   2.44643   2.45650   2.46468   2.46818
 Alpha virt. eigenvalues --    2.47316   2.47383   2.47550   2.48284   2.48836
 Alpha virt. eigenvalues --    2.49423   2.49857   2.51945   2.52591   2.53422
 Alpha virt. eigenvalues --    2.53850   2.54116   2.54430   2.55227   2.55987
 Alpha virt. eigenvalues --    2.56393   2.56491   2.57107   2.57325   2.58128
 Alpha virt. eigenvalues --    2.58488   2.59461   2.60556   2.61254   2.61834
 Alpha virt. eigenvalues --    2.62158   2.62534   2.62844   2.63018   2.63260
 Alpha virt. eigenvalues --    2.63973   2.64234   2.65170   2.65222   2.65338
 Alpha virt. eigenvalues --    2.65843   2.66402   2.66631   2.67249   2.68865
 Alpha virt. eigenvalues --    2.69648   2.70249   2.70728   2.71237   2.73178
 Alpha virt. eigenvalues --    2.73386   2.74475   2.74975   2.75709   2.76887
 Alpha virt. eigenvalues --    2.77983   2.78406   2.78768   2.79074   2.80908
 Alpha virt. eigenvalues --    2.82666   2.83217   2.85309   2.86093   2.86869
 Alpha virt. eigenvalues --    2.87872   2.88961   2.90365   2.91139   2.91570
 Alpha virt. eigenvalues --    2.92800   2.93265   2.93515   2.93954   2.94024
 Alpha virt. eigenvalues --    2.95749   2.96853   2.98559   2.99079   3.00545
 Alpha virt. eigenvalues --    3.01053   3.02260   3.03282   3.08008   3.09104
 Alpha virt. eigenvalues --    3.10266   3.11337   3.12255   3.14065   3.16281
 Alpha virt. eigenvalues --    3.19171   3.28941   3.39587   3.67473   3.75160
 Alpha virt. eigenvalues --    3.81762   3.86086   3.90410   3.91585   3.93336
 Alpha virt. eigenvalues --    3.94021   3.95283   3.96167   3.97340   3.98623
 Alpha virt. eigenvalues --    3.99031   4.01642   4.02948   4.04679   4.05218
 Alpha virt. eigenvalues --    4.07339   4.08133   4.08683   4.09270   4.10443
 Alpha virt. eigenvalues --    4.11271   4.12836   4.14133   4.14653   4.16261
 Alpha virt. eigenvalues --    4.18101   4.18719   4.19593   4.21182   4.21436
 Alpha virt. eigenvalues --    4.23802   4.24850   4.24913   4.27546   4.28061
 Alpha virt. eigenvalues --    4.28478   4.30474   4.31299   4.32296   4.33972
 Alpha virt. eigenvalues --    4.34138   4.35202   4.36048   4.41784   4.43361
 Alpha virt. eigenvalues --    4.45999   4.47350   4.48280   4.48892   4.50091
 Alpha virt. eigenvalues --    4.51987   4.53382   4.54029   4.55584   4.61394
 Alpha virt. eigenvalues --    4.62781   4.64479   4.66183   4.70606   4.73685
          Condensed to atoms (all electrons):
 Mulliken charges:
               1
     1  N   -0.755131
     2  H    0.410594
     3  H    0.404180
     4  H    0.432678
     5  C   -0.114730
     6  H    0.229009
     7  C    0.654068
     8  C   -0.395747
     9  H    0.189752
    10  H    0.209486
    11  O   -0.537499
    12  C    0.139780
    13  C   -0.240539
    14  H    0.142641
    15  C   -0.187093
    16  H    0.174217
    17  C   -0.118517
    18  H    0.165685
    19  C   -0.130253
    20  H    0.163218
    21  C   -0.121274
    22  H    0.168086
    23  N   -0.600624
    24  H    0.373901
    25  C   -0.068939
    26  H    0.202689
    27  C    0.637661
    28  C   -0.449630
    29  H    0.179504
    30  H    0.173976
    31  H    0.185574
    32  O   -0.553223
    33  N   -0.617722
    34  H    0.368276
    35  C   -0.044490
    36  H    0.186756
    37  C    0.632171
    38  C   -0.453427
    39  H    0.167373
    40  H    0.169352
    41  H    0.181136
    42  O   -0.550687
    43  N   -0.605350
    44  H    0.343649
    45  C   -0.067242
    46  H    0.182022
    47  C    0.658392
    48  C   -0.370491
    49  H    0.147033
    50  H    0.165472
    51  O   -0.534770
    52  C    0.157055
    53  C   -0.180723
    54  H    0.153314
    55  C   -0.187638
    56  H    0.112976
    57  C   -0.167952
    58  H    0.165658
    59  C   -0.189564
    60  H    0.115149
    61  O   -0.640177
    62  H    0.405646
    63  C    0.355639
    64  N   -0.612890
    65  H    0.350018
    66  C   -0.023908
    67  H    0.155386
    68  C    0.632573
    69  C   -0.294707
    70  H    0.131363
    71  H    0.155701
    72  O   -0.537398
    73  C   -0.089809
    74  H    0.156631
    75  C   -0.442920
    76  H    0.126274
    77  H    0.161260
    78  H    0.141857
    79  C   -0.443654
    80  H    0.131835
    81  H    0.146463
    82  H    0.148819
    83  N   -0.602745
    84  H    0.352971
    85  C   -0.076317
    86  H    0.181883
    87  C    0.627024
    88  C   -0.259522
    89  H    0.164694
    90  H    0.153241
    91  O   -0.561307
    92  C   -0.386027
    93  H    0.224980
    94  H    0.198449
    95  C    0.583085
    96  O   -0.469879
    97  O   -0.562100
    98  N   -0.616278
    99  H    0.349548
   100  C   -0.004152
   101  H    0.170615
   102  C    0.579183
   103  C   -0.293327
   104  H    0.130662
   105  H    0.175043
   106  O   -0.583864
   107  C   -0.272890
   108  H    0.144281
   109  H    0.186046
   110  C   -0.178669
   111  H    0.177313
   112  H    0.146486
   113  N   -0.568616
   114  H    0.370147
   115  N   -0.750454
   116  H    0.366311
   117  H    0.363048
   118  N   -0.732540
   119  H    0.337057
   120  H    0.402028
   121  C    0.758423
   122  O   -0.645984
   123  H    0.408927
 Sum of Mulliken charges =   1.00000
 Mulliken charges with hydrogens summed into heavy atoms:
               1
     1  N    0.492321
     5  C    0.114279
     7  C    0.654068
     8  C    0.003492
    11  O   -0.537499
    12  C    0.139780
    13  C   -0.097898
    15  C   -0.012876
    17  C    0.047168
    19  C    0.032964
    21  C    0.046812
    23  N   -0.226723
    25  C    0.133749
    27  C    0.637661
    28  C    0.089424
    32  O   -0.553223
    33  N   -0.249446
    35  C    0.142266
    37  C    0.632171
    38  C    0.064434
    42  O   -0.550687
    43  N   -0.261701
    45  C    0.114780
    47  C    0.658392
    48  C   -0.057985
    51  O   -0.534770
    52  C    0.157055
    53  C   -0.027409
    55  C   -0.074661
    57  C   -0.002294
    59  C   -0.074415
    61  O   -0.234531
    63  C    0.355639
    64  N   -0.262872
    66  C    0.131478
    68  C    0.632573
    69  C   -0.007644
    72  O   -0.537398
    73  C    0.066822
    75  C   -0.013529
    79  C   -0.016538
    83  N   -0.249774
    85  C    0.105566
    87  C    0.627024
    88  C    0.058413
    91  O   -0.561307
    92  C    0.037401
    95  C    0.583085
    96  O   -0.469879
    97  O   -0.153173
    98  N   -0.266730
   100  C    0.166463
   102  C    0.579183
   103  C    0.012377
   106  O   -0.583864
   107  C    0.057436
   110  C    0.145130
   113  N   -0.198469
   115  N   -0.021095
   118  N    0.006545
   121  C    0.758423
   122  O   -0.645984
 Electronic spatial extent (au):  <R**2>=          95119.6084
 Charge=              1.0000 electrons
 Dipole moment (field-independent basis, Debye):
    X=            -21.9848    Y=              2.8888    Z=             32.9719  Tot=             39.7344
 Quadrupole moment (field-independent basis, Debye-Ang):
   XX=             63.5826   YY=           -336.0157   ZZ=            -82.2448
   XY=            -71.7176   XZ=           -286.5408   YZ=             67.8137
 Traceless Quadrupole moment (field-independent basis, Debye-Ang):
   XX=            181.8086   YY=           -217.7897   ZZ=             35.9811
   XY=            -71.7176   XZ=           -286.5408   YZ=             67.8137
 Octapole moment (field-independent basis, Debye-Ang**2):
  XXX=            186.7917  YYY=           -821.3048  ZZZ=           2675.1890  XYY=              8.3620
  XXY=           -257.0815  XXZ=           1582.7428  XZZ=          -1982.1249  YZZ=            175.2441
  YYZ=             46.8283  XYZ=           -386.5747
 Hexadecapole moment (field-independent basis, Debye-Ang**3):
 XXXX=         -24296.0818 YYYY=          -7308.5184 ZZZZ=         -22385.9362 XXXY=           -681.1361
 XXXZ=          -6720.4836 YYYX=           4455.5546 YYYZ=          -3070.5643 ZZZX=          -3555.2400
 ZZZY=           2103.5697 XXYY=         -12505.5748 XXZZ=           1471.2925 YYZZ=          -7268.9373
 XXYZ=           2007.7545 YYXZ=           5457.8112 ZZXY=          -1441.0892
 N-N= 8.992722895628D+03 E-N=-2.488615006488D+04  KE= 2.946592289029D+03
 Unable to Open any file for archive entry.
 1\1\GINC-LAC-260\SP\RB3LYP\6-31G(d)\C41H61N10O11(1+)\KENGMITH\11-Jul-2
 022\0\\# B3LYP/6-31G* empiricaldispersion=gd3 guess=read geom=check no
 symm integral(ultrafinegrid)\\Candidate Structure: Conf:448 Charge cal
 c in gas phase\\1,1\N,0,-8.0078257159,0.919058383,8.9657019867\H,0,-8.
 7808189163,0.8248243728,9.6276222253\H,0,-7.3033563488,1.5738785292,9.
 3452780288\H,0,-7.5261259371,-0.0039439482,8.7799615653\C,0,-8.4241937
 38,1.3648114298,7.5820968934\H,0,-9.4732191508,1.0807674588,7.45385010
 24\C,0,-7.5548001741,0.4555904939,6.6658000905\C,0,-8.2493915395,2.891
 6586542,7.4140841604\H,0,-8.9893174257,3.3907334451,8.0510224021\H,0,-
 8.5168474417,3.1514457105,6.3846343264\O,0,-6.9745883653,-0.5051021242
 ,7.1906807159\C,0,-6.8492360485,3.3568985604,7.7543672902\C,0,-6.54280
 19336,3.745807873,9.0701136708\H,0,-7.3393902931,3.8356951866,9.809163
 9729\C,0,-5.8291294659,3.3478092044,6.7913797989\H,0,-6.0549711087,3.0
 874975017,5.760786885\C,0,-5.2357917496,4.0943388697,9.4246231261\H,0,
 -5.0157363436,4.4043213512,10.4418171335\C,0,-4.5284935897,3.704321432
 5,7.1472946434\H,0,-3.7485659017,3.7063483402,6.3913812933\C,0,-4.2259
 02568,4.0665486239,8.4630188923\H,0,-3.211046322,4.3430967385,8.732152
 5815\N,0,-7.5285543452,0.7575125251,5.373163774\H,0,-7.8743473782,1.65
 06362099,5.0224701651\C,0,-6.6323456727,0.1089396588,4.4166707896\H,0,
 -5.7330858445,-0.2080129013,4.9567580228\C,0,-6.2601959418,1.227055279
 3,3.4156733419\C,0,-7.2886232814,-1.1077362372,3.7504100594\H,0,-6.598
 5270876,-1.5907563252,3.0520408688\H,0,-8.1857516821,-0.8096931482,3.1
 990318823\H,0,-7.5662623007,-1.8388208717,4.5147929602\O,0,-6.77962438
 32,2.3483436239,3.5158411763\N,0,-5.3701245556,0.8965238618,2.47610156
 \H,0,-4.9738644994,-0.0379334092,2.3931098111\C,0,-4.929565351,1.81045
 0395,1.4302477423\H,0,-5.8098467598,2.3064288485,1.0056452519\C,0,-4.2
 458888346,0.9268417478,0.3707797762\C,0,-3.9547560832,2.870004792,1.97
 32263838\H,0,-3.6456850162,3.5617146464,1.1832572459\H,0,-3.0588120161
 ,2.3876853689,2.3769771329\H,0,-4.4473640387,3.4441693604,2.7621667045
 \O,0,-3.9201117271,-0.2328561706,0.6432106273\N,0,-4.0219165197,1.5110
 765865,-0.8225800967\H,0,-4.218613168,2.4979116849,-0.9346164548\C,0,-
 3.1938412148,0.8769318695,-1.8609794014\H,0,-3.3872025625,-0.196486713
 9,-1.796434181\C,0,-1.7159726769,1.172836899,-1.5233228808\C,0,-3.5732
 830636,1.3897802944,-3.2543535651\H,0,-4.6650858014,1.3273739311,-3.34
 88379797\H,0,-3.28634437,2.4445187566,-3.3265282731\O,0,-1.1325711074,
 2.1558401317,-1.9715648807\C,0,-2.8961954443,0.5902443992,-4.347259541
 4\C,0,-1.8084572237,1.1070585493,-5.0625739528\H,0,-1.4400894525,2.104
 9864657,-4.8500558033\C,0,-3.3317036208,-0.7054192935,-4.6478924294\H,
 0,-4.1807340162,-1.1284885799,-4.1132040326\C,0,-1.177171851,0.3628982
 546,-6.0534624953\H,0,-0.3499302556,0.7879098384,-6.6100067235\C,0,-2.
 7022637614,-1.46903899,-5.6294156135\H,0,-3.0551736149,-2.4746521845,-
 5.8517226066\O,0,-0.9594790791,-1.6245727105,-7.3138936203\H,0,-1.3596
 458046,-2.5027727331,-7.4072671156\C,0,-1.6187526045,-0.9332461049,-6.
 3351952862\N,0,-1.1664005714,0.3242489889,-0.6197619328\H,0,-1.6834797
 906,-0.5050241208,-0.3593907845\C,0,0.2448560834,0.4058641351,-0.27974
 83944\H,0,0.4342789522,1.4017972592,0.1346201591\C,0,1.086459288,0.219
 2516124,-1.5601148354\C,0,0.5880091839,-0.6876082064,0.7469659177\H,0,
 -0.1165526723,-0.6053312637,1.588014512\H,0,0.4040840902,-1.6577639892
 ,0.2650517962\O,0,0.7470356775,-0.5621949954,-2.4403028858\C,0,2.02939
 54145,-0.6574285738,1.2936586014\H,0,2.7272221335,-0.6800025268,0.4470
 25142\C,0,2.3227366738,0.6131169838,2.105088345\H,0,1.6490619647,0.686
 516417,2.9697689503\H,0,3.3527967376,0.6031327678,2.4759796746\H,0,2.2
 073102654,1.528273935,1.5143186284\C,0,2.2835229274,-1.9078568996,2.14
 75966526\H,0,1.608911653,-1.9354451845,3.0139308364\H,0,2.1247426203,-
 2.8258792746,1.5697342955\H,0,3.3118062014,-1.9207453459,2.5260221952\
 N,0,2.2122453245,0.9731306977,-1.6003657511\H,0,2.5367185906,1.4628541
 248,-0.7740380608\C,0,3.2093413936,0.837889657,-2.6419376449\H,0,3.051
 7852031,-0.1317077148,-3.1277463497\C,0,4.5885705137,0.8724755937,-1.9
 550889046\C,0,3.0805181989,1.9632292262,-3.6927323772\H,0,3.3409791283
 ,2.9195548592,-3.2262375511\H,0,3.8115290307,1.7957308246,-4.492323990
 8\O,0,4.7006571628,1.2041159958,-0.7696255228\C,0,1.6621633241,2.03530
 8222,-4.2711955953\H,0,0.9401724628,2.2484792702,-3.4710851071\H,0,1.3
 462632166,1.0775491717,-4.6938270182\C,0,1.452521253,3.0929357735,-5.3
 268009282\O,0,0.5841794662,3.0710370195,-6.1759210936\O,0,2.320760224,
 4.1300395934,-5.2218198741\N,0,5.6314539755,0.5562750735,-2.7431441872
 \H,0,5.5079503185,0.235737091,-3.6981566339\C,0,7.0202662462,0.5973977
 647,-2.3044800615\H,0,7.1830897631,1.500922568,-1.712725924\C,0,7.9370
 669265,0.6279988507,-3.5421603451\C,0,7.3405498123,-0.6496239915,-1.43
 41919575\H,0,6.9239388109,-1.5243363917,-1.9532965735\H,0,6.7677416544
 ,-0.5442702181,-0.507886781\O,0,9.0383217577,1.1944807295,-3.428185133
 3\C,0,8.8406267324,-0.8765309734,-1.1246061273\H,0,8.9727375236,-1.114
 5713988,-0.0619234933\H,0,9.4070670079,0.0376282361,-1.3299458182\C,0,
 9.4593750781,-2.0466612589,-1.9122434811\H,0,8.9076101898,-2.970000109
 8,-1.7059977192\H,0,10.4869529529,-2.2390915002,-1.585594544\N,0,9.441
 0201711,-1.8806731181,-3.372256178\H,0,8.5079409595,-1.8239632207,-3.7
 815293783\N,0,11.611074594,-1.0320597381,-3.6606369266\H,0,12.12539111
 36,-0.2471094852,-4.0350266573\H,0,11.8261004789,-1.2479132311,-2.6989
 215075\N,0,9.9839385615,-0.7993258866,-5.3262305851\H,0,10.6381331658,
 -0.1953725817,-5.8072164966\H,0,8.9863909917,-0.460507102,-5.346950203
 \C,0,10.3402466639,-1.1973089213,-4.0968654846\O,0,7.5191122726,-0.068
 179872,-4.539007909\H,0,2.0791325122,4.7566906513,-5.9299018259\\Versi
 on=ES64L-G16RevC.01\HF=-2974.1905996\RMSD=8.489e-09\Dipole=-8.1801925,
 -0.3842013,13.0515967\Quadrupole=135.1702283,-161.9213229,26.7510946,-
 53.3202576,-213.0360912,50.4178505\PG=C01 [X(C41H61N10O11)]\\@
 The archive entry for this job was punched.


 IN-LAWS ARE LIKE SEEDS. YOU DON'T NEED THEM
 BUT THEY COME WITH THE TOMATO.
 Job cpu time:       0 days  0 hours  3 minutes 57.7 seconds.
 Elapsed time:       0 days  0 hours  1 minutes  0.4 seconds.
 File lengths (MBytes):  RWF=    688 Int=      0 D2E=      0 Chk=    112 Scr=     16
 Normal termination of Gaussian 16 at Mon Jul 11 14:05:19 2022.
