 Entering Gaussian System, Link 0=/opt/software/Gaussian/g16-AVX2-C.01/g16/g16
 Input=charge-conf-472.com
 Output=charge-conf-472.log
 Initial command:
 /opt/software/Gaussian/g16-AVX2-C.01/g16/l1.exe "/mnt/gs18/scratch/users/kengmith/Gau-19031.inp" -scrdir="/mnt/gs18/scratch/users/kengmith/"
 Entering Link 1 = /opt/software/Gaussian/g16-AVX2-C.01/g16/l1.exe PID=     19042.
  
 Copyright (c) 1988-2019, Gaussian, Inc.  All Rights Reserved.
  
 This is part of the Gaussian(R) 16 program.  It is based on
 the Gaussian(R) 09 system (copyright 2009, Gaussian, Inc.),
 the Gaussian(R) 03 system (copyright 2003, Gaussian, Inc.),
 the Gaussian(R) 98 system (copyright 1998, Gaussian, Inc.),
 the Gaussian(R) 94 system (copyright 1995, Gaussian, Inc.),
 the Gaussian 92(TM) system (copyright 1992, Gaussian, Inc.),
 the Gaussian 90(TM) system (copyright 1990, Gaussian, Inc.),
 the Gaussian 88(TM) system (copyright 1988, Gaussian, Inc.),
 the Gaussian 86(TM) system (copyright 1986, Carnegie Mellon
 University), and the Gaussian 82(TM) system (copyright 1983,
 Carnegie Mellon University). Gaussian is a federally registered
 trademark of Gaussian, Inc.
  
 This software contains proprietary and confidential information,
 including trade secrets, belonging to Gaussian, Inc.
  
 This software is provided under written license and may be
 used, copied, transmitted, or stored only in accord with that
 written license.
  
 The following legend is applicable only to US Government
 contracts under FAR:
  
                    RESTRICTED RIGHTS LEGEND
  
 Use, reproduction and disclosure by the US Government is
 subject to restrictions as set forth in subparagraphs (a)
 and (c) of the Commercial Computer Software - Restricted
 Rights clause in FAR 52.227-19.
  
 Gaussian, Inc.
 340 Quinnipiac St., Bldg. 40, Wallingford CT 06492
  
  
 ---------------------------------------------------------------
 Warning -- This program may not be used in any manner that
 competes with the business of Gaussian, Inc. or will provide
 assistance to any competitor of Gaussian, Inc.  The licensee
 of this program is prohibited from giving any competitor of
 Gaussian, Inc. access to this program.  By using this program,
 the user acknowledges that Gaussian, Inc. is engaged in the
 business of creating and licensing software in the field of
 computational chemistry and represents and warrants to the
 licensee that it is not a competitor of Gaussian, Inc. and that
 it will not use this program in any manner prohibited above.
 ---------------------------------------------------------------
  

 Cite this work as:
 Gaussian 16, Revision C.01,
 M. J. Frisch, G. W. Trucks, H. B. Schlegel, G. E. Scuseria, 
 M. A. Robb, J. R. Cheeseman, G. Scalmani, V. Barone, 
 G. A. Petersson, H. Nakatsuji, X. Li, M. Caricato, A. V. Marenich, 
 J. Bloino, B. G. Janesko, R. Gomperts, B. Mennucci, H. P. Hratchian, 
 J. V. Ortiz, A. F. Izmaylov, J. L. Sonnenberg, D. Williams-Young, 
 F. Ding, F. Lipparini, F. Egidi, J. Goings, B. Peng, A. Petrone, 
 T. Henderson, D. Ranasinghe, V. G. Zakrzewski, J. Gao, N. Rega, 
 G. Zheng, W. Liang, M. Hada, M. Ehara, K. Toyota, R. Fukuda, 
 J. Hasegawa, M. Ishida, T. Nakajima, Y. Honda, O. Kitao, H. Nakai, 
 T. Vreven, K. Throssell, J. A. Montgomery, Jr., J. E. Peralta, 
 F. Ogliaro, M. J. Bearpark, J. J. Heyd, E. N. Brothers, K. N. Kudin, 
 V. N. Staroverov, T. A. Keith, R. Kobayashi, J. Normand, 
 K. Raghavachari, A. P. Rendell, J. C. Burant, S. S. Iyengar, 
 J. Tomasi, M. Cossi, J. M. Millam, M. Klene, C. Adamo, R. Cammi, 
 J. W. Ochterski, R. L. Martin, K. Morokuma, O. Farkas, 
 J. B. Foresman, and D. J. Fox, Gaussian, Inc., Wallingford CT, 2019.
 
 ******************************************
 Gaussian 16:  ES64L-G16RevC.01  3-Jul-2019
                24-May-2022 
 ******************************************
 %mem=8gb
 %nproc=4
 Will use up to    4 processors via shared memory.
 %chk=conf-472.chk
 -------------------------------------------------------------------
 # B3LYP/6-31G* guess=read geom=check nosymm integral(ultrafinegrid)
 -------------------------------------------------------------------
 1/29=2,38=1,172=1/1;
 2/12=2,15=1,40=1/2;
 3/5=1,6=6,7=1,11=2,14=-4,25=1,30=1,74=-5,75=-5,116=-2/1,2,3;
 4/5=1/1;
 5/5=2,38=6/2;
 6/7=2,8=2,9=2,10=2,28=1/1;
 99/5=1,9=1/99;
 ------------------------------------------------------
 Candidate Structure: Conf:472 Charge calc in gas phase
 ------------------------------------------------------
 Structure from the checkpoint file:  "conf-472.chk"
 Charge =  1 Multiplicity = 1
 Redundant internal coordinates found in file.  (old form).
 N,0,-0.028806829,-1.8213010957,3.3557115152
 H,0,0.4478299465,-2.6680233055,2.8824371852
 H,0,0.6535723177,-1.0434483471,3.3455717201
 C,0,-1.3377758115,-1.5326688006,2.6669485502
 H,0,-1.695423912,-0.573668994,3.0560561739
 C,0,-1.0482645423,-1.4599708028,1.1593531238
 C,0,-2.2201416794,-2.6893423247,3.1735142919
 H,0,-1.9846031554,-3.5957045516,2.6080408573
 H,0,-3.2811091041,-2.4676497171,3.0445068525
 O,0,-0.4391418327,-2.3771831402,0.6097927977
 C,0,-1.8146163889,-2.8443079352,4.6535972442
 H,0,-1.8393891965,-3.8758538775,5.018589002
 H,0,-2.445564805,-2.2535571009,5.3297742804
 C,0,-0.4029692376,-2.3107406818,4.7610415364
 O,0,0.3698207021,-2.2187952197,5.6575970093
 O,0,0.8160884491,-4.1183677219,2.2709753407
 N,0,-1.3630490422,-0.2991393986,0.5524096242
 H,0,-2.0172767692,0.3319133965,0.9960855459
 C,0,-0.8571575781,0.0367727517,-0.7924639095
 H,0,-1.131963032,1.0879502642,-0.9415928646
 C,0,0.6951760906,-0.0407340897,-0.7770023102
 C,0,-1.4760994737,-0.7977952497,-1.9319408649
 H,0,-1.044082294,-0.4214705646,-2.8645558205
 H,0,-1.1406706959,-1.8322010513,-1.8303852615
 O,0,1.3287778193,-0.5247142077,-1.6961509225
 C,0,-2.9864915767,-0.7127128472,-1.9521370044
 C,0,-3.7738195516,-1.7236765695,-1.3806283118
 H,0,-3.2889510293,-2.602956767,-0.9610867555
 C,0,-3.6448359205,0.385751948,-2.5199177778
 H,0,-3.0669220654,1.1769456238,-2.9938613177
 C,0,-5.1631107425,-1.6449341162,-1.3656182891
 H,0,-5.7707758559,-2.437588448,-0.9405296455
 C,0,-5.0356392339,0.482529216,-2.5122169914
 H,0,-5.5248438456,1.3402494014,-2.9694478256
 O,0,-7.1629757584,-0.5089619879,-1.8868496993
 H,0,-7.491339815,0.2722962944,-2.3593267974
 C,0,-5.8021182333,-0.5351440581,-1.931814359
 N,0,1.2780155757,0.4911062351,0.350858192
 H,0,0.7060045165,1.0341813044,0.9827641386
 C,0,2.7201734316,0.5746457729,0.5101837952
 H,0,3.1490025753,-0.1287811652,-0.209055163
 C,0,3.1896924914,0.1373424031,1.891680444
 C,0,3.3042814309,1.9861975939,0.2291844561
 H,0,2.8863636022,2.6984534979,0.9556100749
 H,0,4.3818634539,1.9368080356,0.4226575669
 O,0,4.3296487566,-0.1151339371,2.1759554816
 C,0,3.0490941258,2.4807724416,-1.1992459816
 H,0,1.9675136671,2.5615431247,-1.3766031029
 H,0,3.4221225371,1.7329310808,-1.9105750484
 C,0,3.705788461,3.8395445251,-1.4764523661
 H,0,3.3419509344,4.577972977,-0.7464865416
 H,0,4.7917245301,3.7605982852,-1.3202238154
 C,0,3.4358886251,4.3762706838,-2.8979202981
 H,0,2.3521070561,4.4858429671,-3.0419433387
 H,0,3.8569504685,5.3857900939,-2.9755627005
 N,0,3.9532705762,3.5963024282,-4.0200785198
 H,0,3.5567837235,2.6590436858,-4.0337113603
 H,0,4.9637014543,3.4894096617,-3.9476836078
 O,0,2.2049528497,0.139960432,2.8765538754
 H,0,0.5283591717,-3.9017061673,1.3612105051
 H,0,1.7147753134,-4.4805295989,2.2090935619
 H,0,2.7109759539,0.0321818047,3.7080513897
 Recover connectivity data from disk.
                           ----------------------------
                           !    Current Parameters    !
                           ! (Angstroms and Degrees)  !
 --------------------------                            --------------------------
 ! Name  Definition              Value                                          !
 --------------------------------------------------------------------------------
 ! R1    R(1,2)                  1.0808                                         !
 ! R2    R(1,3)                  1.0348                                         !
 ! R3    R(1,4)                  1.507                                          !
 ! R4    R(4,5)                  1.095                                          !
 ! R5    R(4,6)                  1.5369                                         !
 ! R6    R(4,7)                  1.5405                                         !
 ! R7    R(6,10)                 1.2306                                         !
 ! R8    R(6,17)                 1.3472                                         !
 ! R9    R(7,8)                  1.094                                          !
 ! R10   R(7,9)                  1.0915                                         !
 ! R11   R(7,11)                 1.5424                                         !
 ! R12   R(11,12)                1.0945                                         !
 ! R13   R(11,13)                1.0974                                         !
 ! R14   R(11,14)                1.5129                                         !
 ! R15   R(14,15)                1.1872                                         !
 ! R16   R(14,16)                3.3097                                         !
 ! R17   R(16,60)                0.9785                                         !
 ! R18   R(16,61)                0.9709                                         !
 ! R19   R(17,18)                1.0115                                         !
 ! R20   R(17,19)                1.4756                                         !
 ! R21   R(19,20)                1.0967                                         !
 ! R22   R(19,21)                1.5543                                         !
 ! R23   R(19,22)                1.5421                                         !
 ! R24   R(21,25)                1.2168                                         !
 ! R25   R(21,38)                1.3765                                         !
 ! R26   R(22,23)                1.0945                                         !
 ! R27   R(22,24)                1.0922                                         !
 ! R28   R(22,26)                1.5129                                         !
 ! R29   R(26,27)                1.4031                                         !
 ! R30   R(26,29)                1.4009                                         !
 ! R31   R(27,28)                1.0882                                         !
 ! R32   R(27,31)                1.3916                                         !
 ! R33   R(29,30)                1.0884                                         !
 ! R34   R(29,33)                1.3942                                         !
 ! R35   R(31,32)                1.0855                                         !
 ! R36   R(31,37)                1.4002                                         !
 ! R37   R(33,34)                1.0881                                         !
 ! R38   R(33,37)                1.4                                            !
 ! R39   R(35,36)                0.9703                                         !
 ! R40   R(35,37)                1.3619                                         !
 ! R41   R(38,39)                1.0107                                         !
 ! R42   R(38,40)                1.4533                                         !
 ! R43   R(40,41)                1.0936                                         !
 ! R44   R(40,42)                1.5232                                         !
 ! R45   R(40,43)                1.5533                                         !
 ! R46   R(42,46)                1.2017                                         !
 ! R47   R(42,59)                1.3927                                         !
 ! R48   R(43,44)                1.0998                                         !
 ! R49   R(43,45)                1.0959                                         !
 ! R50   R(43,47)                1.533                                          !
 ! R51   R(47,48)                1.099                                          !
 ! R52   R(47,49)                1.0975                                         !
 ! R53   R(47,50)                1.5344                                         !
 ! R54   R(50,51)                1.1002                                         !
 ! R55   R(50,52)                1.1                                            !
 ! R56   R(50,53)                1.5432                                         !
 ! R57   R(53,54)                1.0988                                         !
 ! R58   R(53,55)                1.0966                                         !
 ! R59   R(53,56)                1.4613                                         !
 ! R60   R(56,57)                1.0178                                         !
 ! R61   R(56,58)                1.0186                                         !
 ! R62   R(59,62)                0.9793                                         !
 ! A1    A(2,1,3)              107.0853                                         !
 ! A2    A(2,1,4)              109.4487                                         !
 ! A3    A(3,1,4)              115.108                                          !
 ! A4    A(1,4,5)              106.7998                                         !
 ! A5    A(1,4,6)              107.0839                                         !
 ! A6    A(1,4,7)              101.7367                                         !
 ! A7    A(5,4,6)              111.6346                                         !
 ! A8    A(5,4,7)              110.7117                                         !
 ! A9    A(6,4,7)              117.7745                                         !
 ! A10   A(4,6,10)             119.7403                                         !
 ! A11   A(4,6,17)             116.0197                                         !
 ! A12   A(10,6,17)            123.8274                                         !
 ! A13   A(4,7,8)              109.1955                                         !
 ! A14   A(4,7,9)              111.4312                                         !
 ! A15   A(4,7,11)             103.9094                                         !
 ! A16   A(8,7,9)              108.4491                                         !
 ! A17   A(8,7,11)             110.8649                                         !
 ! A18   A(9,7,11)             112.9151                                         !
 ! A19   A(7,11,12)            114.1255                                         !
 ! A20   A(7,11,13)            112.7063                                         !
 ! A21   A(7,11,14)            106.1423                                         !
 ! A22   A(12,11,13)           106.79                                           !
 ! A23   A(12,11,14)           109.258                                          !
 ! A24   A(13,11,14)           107.6287                                         !
 ! A25   A(11,14,15)           133.4951                                         !
 ! A26   A(11,14,16)            95.6024                                         !
 ! A27   A(15,14,16)           111.7591                                         !
 ! A28   A(14,16,60)           118.0525                                         !
 ! A29   A(14,16,61)           126.3432                                         !
 ! A30   A(60,16,61)           107.1892                                         !
 ! A31   A(6,17,18)            119.4122                                         !
 ! A32   A(6,17,19)            121.7788                                         !
 ! A33   A(18,17,19)           118.6526                                         !
 ! A34   A(17,19,20)           104.8459                                         !
 ! A35   A(17,19,21)           108.7823                                         !
 ! A36   A(17,19,22)           114.3715                                         !
 ! A37   A(20,19,21)           107.4216                                         !
 ! A38   A(20,19,22)           108.5229                                         !
 ! A39   A(21,19,22)           112.4089                                         !
 ! A40   A(19,21,25)           122.1659                                         !
 ! A41   A(19,21,38)           114.3162                                         !
 ! A42   A(25,21,38)           123.5158                                         !
 ! A43   A(19,22,23)           106.5655                                         !
 ! A44   A(19,22,24)           108.6991                                         !
 ! A45   A(19,22,26)           112.3415                                         !
 ! A46   A(23,22,24)           106.4778                                         !
 ! A47   A(23,22,26)           111.3049                                         !
 ! A48   A(24,22,26)           111.1686                                         !
 ! A49   A(22,26,27)           120.9478                                         !
 ! A50   A(22,26,29)           121.2437                                         !
 ! A51   A(27,26,29)           117.7997                                         !
 ! A52   A(26,27,28)           119.2884                                         !
 ! A53   A(26,27,31)           121.5905                                         !
 ! A54   A(28,27,31)           119.1028                                         !
 ! A55   A(26,29,30)           119.7999                                         !
 ! A56   A(26,29,33)           121.3998                                         !
 ! A57   A(30,29,33)           118.7923                                         !
 ! A58   A(27,31,32)           121.4523                                         !
 ! A59   A(27,31,37)           119.7423                                         !
 ! A60   A(32,31,37)           118.7937                                         !
 ! A61   A(29,33,34)           120.0582                                         !
 ! A62   A(29,33,37)           119.8668                                         !
 ! A63   A(34,33,37)           120.0689                                         !
 ! A64   A(36,35,37)           109.7296                                         !
 ! A65   A(31,37,33)           119.5992                                         !
 ! A66   A(31,37,35)           117.2532                                         !
 ! A67   A(33,37,35)           123.1475                                         !
 ! A68   A(21,38,39)           118.7042                                         !
 ! A69   A(21,38,40)           122.1554                                         !
 ! A70   A(39,38,40)           117.5288                                         !
 ! A71   A(38,40,41)           106.2621                                         !
 ! A72   A(38,40,42)           112.8795                                         !
 ! A73   A(38,40,43)           113.9265                                         !
 ! A74   A(41,40,42)           106.9148                                         !
 ! A75   A(41,40,43)           108.5475                                         !
 ! A76   A(42,40,43)           108.0026                                         !
 ! A77   A(40,42,46)           124.5604                                         !
 ! A78   A(40,42,59)           115.0161                                         !
 ! A79   A(46,42,59)           120.2546                                         !
 ! A80   A(40,43,44)           109.0344                                         !
 ! A81   A(40,43,45)           107.2694                                         !
 ! A82   A(40,43,47)           113.5251                                         !
 ! A83   A(44,43,45)           106.6308                                         !
 ! A84   A(44,43,47)           110.0747                                         !
 ! A85   A(45,43,47)           110.042                                          !
 ! A86   A(43,47,48)           109.7493                                         !
 ! A87   A(43,47,49)           109.1185                                         !
 ! A88   A(43,47,50)           112.5063                                         !
 ! A89   A(48,47,49)           106.26                                           !
 ! A90   A(48,47,50)           109.0845                                         !
 ! A91   A(49,47,50)           109.9298                                         !
 ! A92   A(47,50,51)           109.4477                                         !
 ! A93   A(47,50,52)           109.47                                           !
 ! A94   A(47,50,53)           113.55                                           !
 ! A95   A(51,50,52)           106.285                                          !
 ! A96   A(51,50,53)           108.6546                                         !
 ! A97   A(52,50,53)           109.1751                                         !
 ! A98   A(50,53,54)           109.1428                                         !
 ! A99   A(50,53,55)           108.5574                                         !
 ! A100  A(50,53,56)           117.3737                                         !
 ! A101  A(54,53,55)           106.1202                                         !
 ! A102  A(54,53,56)           107.5658                                         !
 ! A103  A(55,53,56)           107.5216                                         !
 ! A104  A(53,56,57)           111.3398                                         !
 ! A105  A(53,56,58)           110.6492                                         !
 ! A106  A(57,56,58)           106.9024                                         !
 ! A107  A(42,59,62)           103.5836                                         !
 ! D1    D(2,1,4,5)           -170.2094                                         !
 ! D2    D(2,1,4,6)            -50.4941                                         !
 ! D3    D(2,1,4,7)             73.6838                                         !
 ! D4    D(3,1,4,5)            -49.5751                                         !
 ! D5    D(3,1,4,6)             70.1401                                         !
 ! D6    D(3,1,4,7)           -165.682                                          !
 ! D7    D(1,4,6,10)            51.7072                                         !
 ! D8    D(1,4,6,17)          -121.2021                                         !
 ! D9    D(5,4,6,10)           168.2703                                         !
 ! D10   D(5,4,6,17)            -4.639                                          !
 ! D11   D(7,4,6,10)           -62.0197                                         !
 ! D12   D(7,4,6,17)           125.071                                          !
 ! D13   D(1,4,7,8)            -79.0064                                         !
 ! D14   D(1,4,7,9)            161.2157                                         !
 ! D15   D(1,4,7,11)            39.3363                                         !
 ! D16   D(5,4,7,8)            167.7806                                         !
 ! D17   D(5,4,7,9)             48.0027                                         !
 ! D18   D(5,4,7,11)           -73.8767                                         !
 ! D19   D(6,4,7,8)             37.6433                                         !
 ! D20   D(6,4,7,9)            -82.1346                                         !
 ! D21   D(6,4,7,11)           155.986                                          !
 ! D22   D(4,6,17,18)          -19.4703                                         !
 ! D23   D(4,6,17,19)          165.1365                                         !
 ! D24   D(10,6,17,18)         167.9428                                         !
 ! D25   D(10,6,17,19)          -7.4503                                         !
 ! D26   D(4,7,11,12)         -145.7236                                         !
 ! D27   D(4,7,11,13)           92.2368                                         !
 ! D28   D(4,7,11,14)          -25.3361                                         !
 ! D29   D(8,7,11,12)          -28.537                                          !
 ! D30   D(8,7,11,13)         -150.5765                                         !
 ! D31   D(8,7,11,14)           91.8506                                         !
 ! D32   D(9,7,11,12)           93.3885                                         !
 ! D33   D(9,7,11,13)          -28.6511                                         !
 ! D34   D(9,7,11,14)         -146.224                                          !
 ! D35   D(7,11,14,15)        -178.6662                                         !
 ! D36   D(7,11,14,16)         -51.3268                                         !
 ! D37   D(12,11,14,15)        -55.1718                                         !
 ! D38   D(12,11,14,16)         72.1676                                         !
 ! D39   D(13,11,14,15)         60.4281                                         !
 ! D40   D(13,11,14,16)       -172.2325                                         !
 ! D41   D(11,14,16,60)         69.4557                                         !
 ! D42   D(11,14,16,61)       -146.6628                                         !
 ! D43   D(15,14,16,60)       -148.934                                          !
 ! D44   D(15,14,16,61)         -5.0525                                         !
 ! D45   D(6,17,19,20)        -170.6377                                         !
 ! D46   D(6,17,19,21)         -55.9729                                         !
 ! D47   D(6,17,19,22)          70.6189                                         !
 ! D48   D(18,17,19,20)         13.9353                                         !
 ! D49   D(18,17,19,21)        128.6001                                         !
 ! D50   D(18,17,19,22)       -104.8081                                         !
 ! D51   D(17,19,21,25)        139.0206                                         !
 ! D52   D(17,19,21,38)        -41.492                                          !
 ! D53   D(20,19,21,25)       -108.0026                                         !
 ! D54   D(20,19,21,38)         71.4849                                         !
 ! D55   D(22,19,21,25)         11.3083                                         !
 ! D56   D(22,19,21,38)       -169.2042                                         !
 ! D57   D(17,19,22,23)        177.8973                                         !
 ! D58   D(17,19,22,24)        -67.7032                                         !
 ! D59   D(17,19,22,26)         55.7515                                         !
 ! D60   D(20,19,22,23)         61.2541                                         !
 ! D61   D(20,19,22,24)        175.6535                                         !
 ! D62   D(20,19,22,26)        -60.8917                                         !
 ! D63   D(21,19,22,23)        -57.4119                                         !
 ! D64   D(21,19,22,24)         56.9875                                         !
 ! D65   D(21,19,22,26)       -179.5578                                         !
 ! D66   D(19,21,38,39)        -11.3785                                         !
 ! D67   D(19,21,38,40)       -176.5418                                         !
 ! D68   D(25,21,38,39)        168.1011                                         !
 ! D69   D(25,21,38,40)          2.9378                                         !
 ! D70   D(19,22,26,27)        -98.6071                                         !
 ! D71   D(19,22,26,29)         80.2869                                         !
 ! D72   D(23,22,26,27)        141.9777                                         !
 ! D73   D(23,22,26,29)        -39.1282                                         !
 ! D74   D(24,22,26,27)         23.4556                                         !
 ! D75   D(24,22,26,29)       -157.6504                                         !
 ! D76   D(22,26,27,28)         -3.0049                                         !
 ! D77   D(22,26,27,31)        178.5672                                         !
 ! D78   D(29,26,27,28)        178.0641                                         !
 ! D79   D(29,26,27,31)         -0.3638                                         !
 ! D80   D(22,26,29,30)          2.5686                                         !
 ! D81   D(22,26,29,33)       -178.4662                                         !
 ! D82   D(27,26,29,30)       -178.5037                                         !
 ! D83   D(27,26,29,33)          0.4616                                         !
 ! D84   D(26,27,31,32)        178.7662                                         !
 ! D85   D(26,27,31,37)          0.021                                          !
 ! D86   D(28,27,31,32)          0.3355                                         !
 ! D87   D(28,27,31,37)       -178.4097                                         !
 ! D88   D(26,29,33,34)       -179.3155                                         !
 ! D89   D(26,29,33,37)         -0.2168                                         !
 ! D90   D(30,29,33,34)         -0.3401                                         !
 ! D91   D(30,29,33,37)        178.7587                                         !
 ! D92   D(27,31,37,33)          0.2353                                         !
 ! D93   D(27,31,37,35)       -179.8722                                         !
 ! D94   D(32,31,37,33)       -178.5432                                         !
 ! D95   D(32,31,37,35)          1.3493                                         !
 ! D96   D(29,33,37,31)         -0.1395                                         !
 ! D97   D(29,33,37,35)        179.9746                                         !
 ! D98   D(34,33,37,31)        178.9592                                         !
 ! D99   D(34,33,37,35)         -0.9267                                         !
 ! D100  D(36,35,37,31)       -176.204                                          !
 ! D101  D(36,35,37,33)          3.6843                                         !
 ! D102  D(21,38,40,41)        -18.571                                          !
 ! D103  D(21,38,40,42)       -135.4464                                         !
 ! D104  D(21,38,40,43)        100.8962                                         !
 ! D105  D(39,38,40,41)        176.1003                                         !
 ! D106  D(39,38,40,42)         59.2249                                         !
 ! D107  D(39,38,40,43)        -64.4325                                         !
 ! D108  D(38,40,42,46)        165.5202                                         !
 ! D109  D(38,40,42,59)        -19.2115                                         !
 ! D110  D(41,40,42,46)         49.0316                                         !
 ! D111  D(41,40,42,59)       -135.7001                                         !
 ! D112  D(43,40,42,46)        -67.6104                                         !
 ! D113  D(43,40,42,59)        107.6579                                         !
 ! D114  D(38,40,43,44)         62.4475                                         !
 ! D115  D(38,40,43,45)        177.554                                          !
 ! D116  D(38,40,43,47)        -60.6594                                         !
 ! D117  D(41,40,43,44)       -179.3877                                         !
 ! D118  D(41,40,43,45)        -64.2812                                         !
 ! D119  D(41,40,43,47)         57.5054                                         !
 ! D120  D(42,40,43,44)        -63.811                                          !
 ! D121  D(42,40,43,45)         51.2956                                         !
 ! D122  D(42,40,43,47)        173.0822                                         !
 ! D123  D(40,42,59,62)       -168.0041                                         !
 ! D124  D(46,42,59,62)          7.4853                                         !
 ! D125  D(40,43,47,48)         61.7101                                         !
 ! D126  D(40,43,47,49)        -54.3501                                         !
 ! D127  D(40,43,47,50)       -176.6355                                         !
 ! D128  D(44,43,47,48)        -60.8238                                         !
 ! D129  D(44,43,47,49)       -176.884                                          !
 ! D130  D(44,43,47,50)         60.8306                                         !
 ! D131  D(45,43,47,48)       -178.0609                                         !
 ! D132  D(45,43,47,49)         65.8789                                         !
 ! D133  D(45,43,47,50)        -56.4065                                         !
 ! D134  D(43,47,50,51)        -57.0292                                         !
 ! D135  D(43,47,50,52)         59.0904                                         !
 ! D136  D(43,47,50,53)       -178.6256                                         !
 ! D137  D(48,47,50,51)         65.0024                                         !
 ! D138  D(48,47,50,52)       -178.8779                                         !
 ! D139  D(48,47,50,53)        -56.5939                                         !
 ! D140  D(49,47,50,51)       -178.8553                                         !
 ! D141  D(49,47,50,52)        -62.7356                                         !
 ! D142  D(49,47,50,53)         59.5484                                         !
 ! D143  D(47,50,53,54)         59.3744                                         !
 ! D144  D(47,50,53,55)        174.6236                                         !
 ! D145  D(47,50,53,56)        -63.2736                                         !
 ! D146  D(51,50,53,54)        -62.6634                                         !
 ! D147  D(51,50,53,55)         52.5857                                         !
 ! D148  D(51,50,53,56)        174.6886                                         !
 ! D149  D(52,50,53,54)       -178.1785                                         !
 ! D150  D(52,50,53,55)        -62.9294                                         !
 ! D151  D(52,50,53,56)         59.1735                                         !
 ! D152  D(50,53,56,57)         60.5136                                         !
 ! D153  D(50,53,56,58)        -58.2244                                         !
 ! D154  D(54,53,56,57)        -62.9386                                         !
 ! D155  D(54,53,56,58)        178.3235                                         !
 ! D156  D(55,53,56,57)       -176.8514                                         !
 ! D157  D(55,53,56,58)         64.4107                                         !
 --------------------------------------------------------------------------------
 Symmetry turned off by external request.
 Stoichiometry    C20H31N4O7(1+)
 Framework group  C1[X(C20H31N4O7)]
 Deg. of freedom   180
 Full point group                 C1      NOp   1
                          Input orientation:                          
 ---------------------------------------------------------------------
 Center     Atomic      Atomic             Coordinates (Angstroms)
 Number     Number       Type             X           Y           Z
 ---------------------------------------------------------------------
      1          7           0       -0.028807   -1.821301    3.355712
      2          1           0        0.447830   -2.668023    2.882437
      3          1           0        0.653572   -1.043448    3.345572
      4          6           0       -1.337776   -1.532669    2.666949
      5          1           0       -1.695424   -0.573669    3.056056
      6          6           0       -1.048265   -1.459971    1.159353
      7          6           0       -2.220142   -2.689342    3.173514
      8          1           0       -1.984603   -3.595705    2.608041
      9          1           0       -3.281109   -2.467650    3.044507
     10          8           0       -0.439142   -2.377183    0.609793
     11          6           0       -1.814616   -2.844308    4.653597
     12          1           0       -1.839389   -3.875854    5.018589
     13          1           0       -2.445565   -2.253557    5.329774
     14          6           0       -0.402969   -2.310741    4.761042
     15          8           0        0.369821   -2.218795    5.657597
     16          8           0        0.816088   -4.118368    2.270975
     17          7           0       -1.363049   -0.299139    0.552410
     18          1           0       -2.017277    0.331913    0.996086
     19          6           0       -0.857158    0.036773   -0.792464
     20          1           0       -1.131963    1.087950   -0.941593
     21          6           0        0.695176   -0.040734   -0.777002
     22          6           0       -1.476099   -0.797795   -1.931941
     23          1           0       -1.044082   -0.421471   -2.864556
     24          1           0       -1.140671   -1.832201   -1.830385
     25          8           0        1.328778   -0.524714   -1.696151
     26          6           0       -2.986492   -0.712713   -1.952137
     27          6           0       -3.773820   -1.723677   -1.380628
     28          1           0       -3.288951   -2.602957   -0.961087
     29          6           0       -3.644836    0.385752   -2.519918
     30          1           0       -3.066922    1.176946   -2.993861
     31          6           0       -5.163111   -1.644934   -1.365618
     32          1           0       -5.770776   -2.437588   -0.940530
     33          6           0       -5.035639    0.482529   -2.512217
     34          1           0       -5.524844    1.340249   -2.969448
     35          8           0       -7.162976   -0.508962   -1.886850
     36          1           0       -7.491340    0.272296   -2.359327
     37          6           0       -5.802118   -0.535144   -1.931814
     38          7           0        1.278016    0.491106    0.350858
     39          1           0        0.706005    1.034181    0.982764
     40          6           0        2.720173    0.574646    0.510184
     41          1           0        3.149003   -0.128781   -0.209055
     42          6           0        3.189692    0.137342    1.891680
     43          6           0        3.304281    1.986198    0.229184
     44          1           0        2.886364    2.698453    0.955610
     45          1           0        4.381863    1.936808    0.422658
     46          8           0        4.329649   -0.115134    2.175955
     47          6           0        3.049094    2.480772   -1.199246
     48          1           0        1.967514    2.561543   -1.376603
     49          1           0        3.422123    1.732931   -1.910575
     50          6           0        3.705788    3.839545   -1.476452
     51          1           0        3.341951    4.577973   -0.746487
     52          1           0        4.791725    3.760598   -1.320224
     53          6           0        3.435889    4.376271   -2.897920
     54          1           0        2.352107    4.485843   -3.041943
     55          1           0        3.856950    5.385790   -2.975563
     56          7           0        3.953271    3.596302   -4.020079
     57          1           0        3.556784    2.659044   -4.033711
     58          1           0        4.963701    3.489410   -3.947684
     59          8           0        2.204953    0.139960    2.876554
     60          1           0        0.528359   -3.901706    1.361211
     61          1           0        1.714775   -4.480530    2.209094
     62          1           0        2.710976    0.032182    3.708051
 ---------------------------------------------------------------------
 Rotational constants (GHZ):           0.1259040           0.0984156           0.0601651
 Standard basis: 6-31G(d) (6D, 7F)
   527 basis functions,   992 primitive gaussians,   527 cartesian basis functions
   117 alpha electrons      117 beta electrons
       nuclear repulsion energy      3246.5354115819 Hartrees.
 NAtoms=   62 NActive=   62 NUniq=   62 SFac= 1.00D+00 NAtFMM=   60 NAOKFM=T Big=T
 Integral buffers will be    131072 words long.
 Raffenetti 2 integral format.
 Two-electron integral symmetry is turned off.
 One-electron integrals computed using PRISM.
 NBasis=   527 RedAO= T EigKep=  4.33D-04  NBF=   527
 NBsUse=   527 1.00D-06 EigRej= -1.00D+00 NBFU=   527
 Initial guess from the checkpoint file:  "conf-472.chk"
 B after Tr=     0.000000    0.000000    0.000000
         Rot=    1.000000    0.000000    0.000000    0.000000 Ang=   0.00 deg.
 Requested convergence on RMS density matrix=1.00D-08 within 128 cycles.
 Requested convergence on MAX density matrix=1.00D-06.
 Requested convergence on             energy=1.00D-06.
 No special actions if energy rises.
 SCF Done:  E(RB3LYP) =  -1526.17560783     A.U. after    3 cycles
            NFock=  3  Conv=0.77D-09     -V/T= 2.0093

 **********************************************************************

            Population analysis using the SCF Density.

 **********************************************************************

 Alpha  occ. eigenvalues --  -19.33450 -19.33342 -19.30447 -19.27857 -19.26634
 Alpha  occ. eigenvalues --  -19.25697 -19.23085 -14.58358 -14.51828 -14.47912
 Alpha  occ. eigenvalues --  -14.37174 -10.48799 -10.45177 -10.44601 -10.41792
 Alpha  occ. eigenvalues --  -10.40567 -10.36492 -10.36247 -10.35882 -10.35397
 Alpha  occ. eigenvalues --  -10.33257 -10.29248 -10.28709 -10.27865 -10.27777
 Alpha  occ. eigenvalues --  -10.27718 -10.27341 -10.27074 -10.27041 -10.26874
 Alpha  occ. eigenvalues --  -10.25487  -1.24819  -1.23175  -1.20031  -1.16145
 Alpha  occ. eigenvalues --   -1.15141  -1.14423  -1.13854  -1.13709  -1.07926
 Alpha  occ. eigenvalues --   -1.04231  -0.96704  -0.94124  -0.94063  -0.91802
 Alpha  occ. eigenvalues --   -0.89963  -0.88122  -0.85048  -0.83219  -0.82810
 Alpha  occ. eigenvalues --   -0.79519  -0.78315  -0.76854  -0.75819  -0.74665
 Alpha  occ. eigenvalues --   -0.73857  -0.72859  -0.70685  -0.70588  -0.69757
 Alpha  occ. eigenvalues --   -0.69014  -0.68294  -0.67036  -0.65936  -0.64647
 Alpha  occ. eigenvalues --   -0.64326  -0.63444  -0.62675  -0.61805  -0.61451
 Alpha  occ. eigenvalues --   -0.61160  -0.60279  -0.59003  -0.58387  -0.57558
 Alpha  occ. eigenvalues --   -0.57373  -0.56951  -0.56006  -0.55821  -0.55602
 Alpha  occ. eigenvalues --   -0.55407  -0.55143  -0.54693  -0.53527  -0.53049
 Alpha  occ. eigenvalues --   -0.52635  -0.52396  -0.51655  -0.51435  -0.50768
 Alpha  occ. eigenvalues --   -0.50620  -0.50497  -0.49287  -0.48657  -0.48501
 Alpha  occ. eigenvalues --   -0.48204  -0.47652  -0.46551  -0.46423  -0.45575
 Alpha  occ. eigenvalues --   -0.44946  -0.44730  -0.44106  -0.43812  -0.42979
 Alpha  occ. eigenvalues --   -0.42153  -0.41738  -0.41256  -0.41138  -0.40988
 Alpha  occ. eigenvalues --   -0.40685  -0.40247  -0.37049  -0.35969  -0.33715
 Alpha  occ. eigenvalues --   -0.30119  -0.29130
 Alpha virt. eigenvalues --   -0.19209  -0.15061  -0.11943  -0.10252  -0.09017
 Alpha virt. eigenvalues --   -0.08488  -0.07458  -0.06832  -0.06001  -0.04239
 Alpha virt. eigenvalues --   -0.03228  -0.02186  -0.01335  -0.00508  -0.00305
 Alpha virt. eigenvalues --   -0.00031   0.00370   0.00904   0.01809   0.01925
 Alpha virt. eigenvalues --    0.02475   0.02827   0.03100   0.03354   0.04161
 Alpha virt. eigenvalues --    0.05001   0.05156   0.05583   0.06041   0.06241
 Alpha virt. eigenvalues --    0.06743   0.07330   0.07838   0.08207   0.08512
 Alpha virt. eigenvalues --    0.08684   0.09165   0.09489   0.09841   0.10168
 Alpha virt. eigenvalues --    0.10577   0.10767   0.11353   0.11727   0.12073
 Alpha virt. eigenvalues --    0.13161   0.13340   0.14026   0.14502   0.15079
 Alpha virt. eigenvalues --    0.15700   0.16139   0.16809   0.17558   0.18519
 Alpha virt. eigenvalues --    0.19442   0.21327   0.22200   0.22788   0.23213
 Alpha virt. eigenvalues --    0.23990   0.25653   0.25898   0.26220   0.27545
 Alpha virt. eigenvalues --    0.28443   0.30703   0.34518   0.35278   0.35846
 Alpha virt. eigenvalues --    0.37322   0.38460   0.40336   0.40580   0.41348
 Alpha virt. eigenvalues --    0.41738   0.42511   0.42902   0.43550   0.43833
 Alpha virt. eigenvalues --    0.43958   0.45126   0.45211   0.45855   0.46711
 Alpha virt. eigenvalues --    0.47226   0.47943   0.48371   0.48876   0.49928
 Alpha virt. eigenvalues --    0.50204   0.50408   0.50640   0.51019   0.51183
 Alpha virt. eigenvalues --    0.51913   0.52358   0.52766   0.53518   0.53943
 Alpha virt. eigenvalues --    0.54394   0.54874   0.55658   0.55698   0.56387
 Alpha virt. eigenvalues --    0.56644   0.56971   0.57424   0.57813   0.58196
 Alpha virt. eigenvalues --    0.59174   0.59776   0.61449   0.61663   0.63587
 Alpha virt. eigenvalues --    0.64232   0.64964   0.65015   0.65258   0.66466
 Alpha virt. eigenvalues --    0.66991   0.67430   0.67841   0.67942   0.68841
 Alpha virt. eigenvalues --    0.69076   0.69324   0.69679   0.70258   0.71132
 Alpha virt. eigenvalues --    0.71648   0.72310   0.72591   0.73235   0.73489
 Alpha virt. eigenvalues --    0.73889   0.74567   0.75168   0.75430   0.75952
 Alpha virt. eigenvalues --    0.76741   0.76978   0.77229   0.77896   0.78334
 Alpha virt. eigenvalues --    0.78722   0.79028   0.79650   0.80047   0.80859
 Alpha virt. eigenvalues --    0.80934   0.81402   0.81623   0.81818   0.82766
 Alpha virt. eigenvalues --    0.82843   0.83446   0.83800   0.84103   0.84925
 Alpha virt. eigenvalues --    0.85218   0.85928   0.86264   0.86953   0.87095
 Alpha virt. eigenvalues --    0.87919   0.88676   0.89017   0.89444   0.90363
 Alpha virt. eigenvalues --    0.90628   0.91190   0.92478   0.92933   0.93886
 Alpha virt. eigenvalues --    0.94257   0.95252   0.95325   0.96677   0.97102
 Alpha virt. eigenvalues --    0.97756   0.97971   0.99680   0.99875   1.01512
 Alpha virt. eigenvalues --    1.01720   1.04524   1.05029   1.05568   1.07146
 Alpha virt. eigenvalues --    1.07249   1.08551   1.10176   1.10398   1.11666
 Alpha virt. eigenvalues --    1.12978   1.14895   1.15317   1.15604   1.16582
 Alpha virt. eigenvalues --    1.17115   1.18388   1.21193   1.21797   1.22508
 Alpha virt. eigenvalues --    1.24003   1.25279   1.26260   1.27983   1.28897
 Alpha virt. eigenvalues --    1.28997   1.29726   1.31127   1.34240   1.34709
 Alpha virt. eigenvalues --    1.35928   1.36365   1.37207   1.38118   1.38876
 Alpha virt. eigenvalues --    1.39584   1.40141   1.41316   1.42835   1.43411
 Alpha virt. eigenvalues --    1.45491   1.46041   1.47220   1.47527   1.48744
 Alpha virt. eigenvalues --    1.49696   1.51579   1.51758   1.53695   1.53992
 Alpha virt. eigenvalues --    1.55389   1.56517   1.57815   1.58277   1.58918
 Alpha virt. eigenvalues --    1.59661   1.60822   1.61704   1.61920   1.62478
 Alpha virt. eigenvalues --    1.62976   1.63951   1.64707   1.65389   1.65805
 Alpha virt. eigenvalues --    1.66191   1.66499   1.67273   1.67852   1.68044
 Alpha virt. eigenvalues --    1.68979   1.69492   1.70181   1.71257   1.71741
 Alpha virt. eigenvalues --    1.72583   1.73876   1.74749   1.75530   1.76934
 Alpha virt. eigenvalues --    1.77376   1.77949   1.78438   1.79691   1.79951
 Alpha virt. eigenvalues --    1.80649   1.81270   1.82064   1.82292   1.83455
 Alpha virt. eigenvalues --    1.83591   1.85028   1.85708   1.86543   1.87129
 Alpha virt. eigenvalues --    1.87229   1.88426   1.89498   1.89738   1.90356
 Alpha virt. eigenvalues --    1.90757   1.91139   1.92808   1.93176   1.94736
 Alpha virt. eigenvalues --    1.95515   1.96207   1.97091   1.98067   1.98406
 Alpha virt. eigenvalues --    1.98858   2.00030   2.01240   2.02867   2.03020
 Alpha virt. eigenvalues --    2.04117   2.04773   2.04951   2.05923   2.06489
 Alpha virt. eigenvalues --    2.07770   2.08775   2.12063   2.13709   2.15340
 Alpha virt. eigenvalues --    2.17617   2.18102   2.18261   2.19020   2.20078
 Alpha virt. eigenvalues --    2.20216   2.21424   2.22677   2.23042   2.23263
 Alpha virt. eigenvalues --    2.24250   2.25069   2.26777   2.28184   2.28844
 Alpha virt. eigenvalues --    2.30241   2.31163   2.32330   2.32745   2.33208
 Alpha virt. eigenvalues --    2.34753   2.35898   2.36136   2.37026   2.40300
 Alpha virt. eigenvalues --    2.41309   2.42621   2.42797   2.43424   2.43640
 Alpha virt. eigenvalues --    2.47398   2.48021   2.49413   2.50587   2.51331
 Alpha virt. eigenvalues --    2.52327   2.52758   2.54542   2.54743   2.55212
 Alpha virt. eigenvalues --    2.57309   2.57848   2.58463   2.60124   2.61319
 Alpha virt. eigenvalues --    2.62139   2.63059   2.64235   2.66717   2.67158
 Alpha virt. eigenvalues --    2.69977   2.70173   2.71870   2.75006   2.78521
 Alpha virt. eigenvalues --    2.80158   2.82178   2.82747   2.84300   2.87605
 Alpha virt. eigenvalues --    2.88008   2.88592   2.90437   2.92115   2.99262
 Alpha virt. eigenvalues --    3.02403   3.03673   3.05554   3.33095   3.60281
 Alpha virt. eigenvalues --    3.71801   3.75114   3.84520   3.86013   3.87368
 Alpha virt. eigenvalues --    3.90339   3.91724   4.01361   4.02378   4.03832
 Alpha virt. eigenvalues --    4.04169   4.06172   4.07185   4.09917   4.13942
 Alpha virt. eigenvalues --    4.16146   4.21087   4.24617   4.25373   4.25897
 Alpha virt. eigenvalues --    4.28593   4.33839   4.40206   4.41972   4.43591
 Alpha virt. eigenvalues --    4.47072   4.51667   4.55133   4.59607   4.67210
          Condensed to atoms (all electrons):
 Mulliken charges:
               1
     1  N   -0.733829
     2  H    0.449849
     3  H    0.423133
     4  C   -0.107088
     5  H    0.192377
     6  C    0.672914
     7  C   -0.298884
     8  H    0.215839
     9  H    0.211266
    10  O   -0.536327
    11  C   -0.379839
    12  H    0.248495
    13  H    0.234957
    14  C    0.577287
    15  O   -0.347228
    16  O   -0.798949
    17  N   -0.618539
    18  H    0.355855
    19  C   -0.071608
    20  H    0.185233
    21  C    0.638472
    22  C   -0.358198
    23  H    0.188803
    24  H    0.190802
    25  O   -0.486648
    26  C    0.158093
    27  C   -0.207461
    28  H    0.125923
    29  C   -0.199139
    30  H    0.136152
    31  C   -0.160105
    32  H    0.150572
    33  C   -0.190232
    34  H    0.139043
    35  O   -0.631605
    36  H    0.417283
    37  C    0.354450
    38  N   -0.617595
    39  H    0.322172
    40  C   -0.060889
    41  H    0.225271
    42  C    0.594775
    43  C   -0.274389
    44  H    0.139482
    45  H    0.184302
    46  O   -0.413675
    47  C   -0.258722
    48  H    0.125160
    49  H    0.150547
    50  C   -0.265139
    51  H    0.130035
    52  H    0.137668
    53  C   -0.144076
    54  H    0.137319
    55  H    0.156378
    56  N   -0.702297
    57  H    0.299382
    58  H    0.299656
    59  O   -0.627014
    60  H    0.454257
    61  H    0.437226
    62  H    0.429050
 Sum of Mulliken charges =   1.00000
 Mulliken charges with hydrogens summed into heavy atoms:
               1
     1  N    0.139153
     4  C    0.085289
     6  C    0.672914
     7  C    0.128220
    10  O   -0.536327
    11  C    0.103613
    14  C    0.577287
    15  O   -0.347228
    16  O    0.092533
    17  N   -0.262684
    19  C    0.113624
    21  C    0.638472
    22  C    0.021407
    25  O   -0.486648
    26  C    0.158093
    27  C   -0.081539
    29  C   -0.062987
    31  C   -0.009533
    33  C   -0.051188
    35  O   -0.214322
    37  C    0.354450
    38  N   -0.295423
    40  C    0.164382
    42  C    0.594775
    43  C    0.049395
    46  O   -0.413675
    47  C    0.016985
    50  C    0.002564
    53  C    0.149622
    56  N   -0.103260
    59  O   -0.197964
 Electronic spatial extent (au):  <R**2>=          17587.8966
 Charge=              1.0000 electrons
 Dipole moment (field-independent basis, Debye):
    X=             -4.9975    Y=             -3.4294    Z=             12.1869  Tot=             13.6109
 Quadrupole moment (field-independent basis, Debye-Ang):
   XX=           -144.3925   YY=           -149.2587   ZZ=           -146.0896
   XY=             -1.6848   XZ=             -2.5664   YZ=            -23.6581
 Traceless Quadrupole moment (field-independent basis, Debye-Ang):
   XX=              2.1878   YY=             -2.6784   ZZ=              0.4906
   XY=             -1.6848   XZ=             -2.5664   YZ=            -23.6581
 Octapole moment (field-independent basis, Debye-Ang**2):
  XXX=             24.2072  YYY=             20.8934  ZZZ=             58.3054  XYY=             55.3090
  XXY=            110.4088  XXZ=            -92.8738  XZZ=            -75.5398  YZZ=            -55.8267
  YYZ=             62.8154  XYZ=             76.0809
 Hexadecapole moment (field-independent basis, Debye-Ang**3):
 XXXX=          -9596.9319 YYYY=          -4393.2892 ZZZZ=          -6927.5525 XXXY=          -2051.6814
 XXXZ=           -210.8053 YYYX=          -1800.4228 YYYZ=           1576.5863 ZZZX=           -505.2622
 ZZZY=           1729.0599 XXYY=          -2292.7203 XXZZ=          -2532.0385 YYZZ=          -1923.9397
 XXYZ=            239.5577 YYXZ=           -127.8332 ZZXY=           -624.1749
 N-N= 3.246535411582D+03 E-N=-1.002509837816D+04  KE= 1.512096774869D+03
 Unable to Open any file for archive entry.
 1\1\GINC-SKL-145\SP\RB3LYP\6-31G(d)\C20H31N4O7(1+)\KENGMITH\24-May-202
 2\0\\# B3LYP/6-31G* guess=read geom=check nosymm integral(ultrafinegri
 d)\\Candidate Structure: Conf:472 Charge calc in gas phase\\1,1\N,0,-0
 .028806829,-1.8213010957,3.3557115152\H,0,0.4478299465,-2.6680233055,2
 .8824371852\H,0,0.6535723177,-1.0434483471,3.3455717201\C,0,-1.3377758
 115,-1.5326688006,2.6669485502\H,0,-1.695423912,-0.573668994,3.0560561
 739\C,0,-1.0482645423,-1.4599708028,1.1593531238\C,0,-2.2201416794,-2.
 6893423247,3.1735142919\H,0,-1.9846031554,-3.5957045516,2.6080408573\H
 ,0,-3.2811091041,-2.4676497171,3.0445068525\O,0,-0.4391418327,-2.37718
 31402,0.6097927977\C,0,-1.8146163889,-2.8443079352,4.6535972442\H,0,-1
 .8393891965,-3.8758538775,5.018589002\H,0,-2.445564805,-2.2535571009,5
 .3297742804\C,0,-0.4029692376,-2.3107406818,4.7610415364\O,0,0.3698207
 021,-2.2187952197,5.6575970093\O,0,0.8160884491,-4.1183677219,2.270975
 3407\N,0,-1.3630490422,-0.2991393986,0.5524096242\H,0,-2.0172767692,0.
 3319133965,0.9960855459\C,0,-0.8571575781,0.0367727517,-0.7924639095\H
 ,0,-1.131963032,1.0879502642,-0.9415928646\C,0,0.6951760906,-0.0407340
 897,-0.7770023102\C,0,-1.4760994737,-0.7977952497,-1.9319408649\H,0,-1
 .044082294,-0.4214705646,-2.8645558205\H,0,-1.1406706959,-1.8322010513
 ,-1.8303852615\O,0,1.3287778193,-0.5247142077,-1.6961509225\C,0,-2.986
 4915767,-0.7127128472,-1.9521370044\C,0,-3.7738195516,-1.7236765695,-1
 .3806283118\H,0,-3.2889510293,-2.602956767,-0.9610867555\C,0,-3.644835
 9205,0.385751948,-2.5199177778\H,0,-3.0669220654,1.1769456238,-2.99386
 13177\C,0,-5.1631107425,-1.6449341162,-1.3656182891\H,0,-5.7707758559,
 -2.437588448,-0.9405296455\C,0,-5.0356392339,0.482529216,-2.5122169914
 \H,0,-5.5248438456,1.3402494014,-2.9694478256\O,0,-7.1629757584,-0.508
 9619879,-1.8868496993\H,0,-7.491339815,0.2722962944,-2.3593267974\C,0,
 -5.8021182333,-0.5351440581,-1.931814359\N,0,1.2780155757,0.4911062351
 ,0.350858192\H,0,0.7060045165,1.0341813044,0.9827641386\C,0,2.72017343
 16,0.5746457729,0.5101837952\H,0,3.1490025753,-0.1287811652,-0.2090551
 63\C,0,3.1896924914,0.1373424031,1.891680444\C,0,3.3042814309,1.986197
 5939,0.2291844561\H,0,2.8863636022,2.6984534979,0.9556100749\H,0,4.381
 8634539,1.9368080356,0.4226575669\O,0,4.3296487566,-0.1151339371,2.175
 9554816\C,0,3.0490941258,2.4807724416,-1.1992459816\H,0,1.9675136671,2
 .5615431247,-1.3766031029\H,0,3.4221225371,1.7329310808,-1.9105750484\
 C,0,3.705788461,3.8395445251,-1.4764523661\H,0,3.3419509344,4.57797297
 7,-0.7464865416\H,0,4.7917245301,3.7605982852,-1.3202238154\C,0,3.4358
 886251,4.3762706838,-2.8979202981\H,0,2.3521070561,4.4858429671,-3.041
 9433387\H,0,3.8569504685,5.3857900939,-2.9755627005\N,0,3.9532705762,3
 .5963024282,-4.0200785198\H,0,3.5567837235,2.6590436858,-4.0337113603\
 H,0,4.9637014543,3.4894096617,-3.9476836078\O,0,2.2049528497,0.1399604
 32,2.8765538754\H,0,0.5283591717,-3.9017061673,1.3612105051\H,0,1.7147
 753134,-4.4805295989,2.2090935619\H,0,2.7109759539,0.0321818047,3.7080
 513897\\Version=ES64L-G16RevC.01\HF=-1526.1756078\RMSD=7.650e-10\Dipol
 e=-1.5591355,-0.7888525,4.2150627\Quadrupole=1.6265626,-1.9913437,0.36
 47811,-1.2525899,-1.9080735,-17.5892383\PG=C01 [X(C20H31N4O7)]\\@
 The archive entry for this job was punched.


 A warm smile is the universal language of kindness.
                             -- William Arthur Ward
 Job cpu time:       0 days  0 hours  2 minutes 23.0 seconds.
 Elapsed time:       0 days  0 hours  0 minutes 36.3 seconds.
 File lengths (MBytes):  RWF=    264 Int=      0 D2E=      0 Chk=     40 Scr=     16
 Normal termination of Gaussian 16 at Tue May 24 03:30:41 2022.
