 Entering Gaussian System, Link 0=/opt/software/Gaussian/g16-AVX-C.01/g16/g16
 Input=charge-conf-112.com
 Output=charge-conf-112.log
 Initial command:
 /opt/software/Gaussian/g16-AVX-C.01/g16/l1.exe "/mnt/gs18/scratch/users/kengmith/Gau-32452.inp" -scrdir="/mnt/gs18/scratch/users/kengmith/"
 Entering Link 1 = /opt/software/Gaussian/g16-AVX-C.01/g16/l1.exe PID=     32469.
  
 Copyright (c) 1988-2019, Gaussian, Inc.  All Rights Reserved.
  
 This is part of the Gaussian(R) 16 program.  It is based on
 the Gaussian(R) 09 system (copyright 2009, Gaussian, Inc.),
 the Gaussian(R) 03 system (copyright 2003, Gaussian, Inc.),
 the Gaussian(R) 98 system (copyright 1998, Gaussian, Inc.),
 the Gaussian(R) 94 system (copyright 1995, Gaussian, Inc.),
 the Gaussian 92(TM) system (copyright 1992, Gaussian, Inc.),
 the Gaussian 90(TM) system (copyright 1990, Gaussian, Inc.),
 the Gaussian 88(TM) system (copyright 1988, Gaussian, Inc.),
 the Gaussian 86(TM) system (copyright 1986, Carnegie Mellon
 University), and the Gaussian 82(TM) system (copyright 1983,
 Carnegie Mellon University). Gaussian is a federally registered
 trademark of Gaussian, Inc.
  
 This software contains proprietary and confidential information,
 including trade secrets, belonging to Gaussian, Inc.
  
 This software is provided under written license and may be
 used, copied, transmitted, or stored only in accord with that
 written license.
  
 The following legend is applicable only to US Government
 contracts under FAR:
  
                    RESTRICTED RIGHTS LEGEND
  
 Use, reproduction and disclosure by the US Government is
 subject to restrictions as set forth in subparagraphs (a)
 and (c) of the Commercial Computer Software - Restricted
 Rights clause in FAR 52.227-19.
  
 Gaussian, Inc.
 340 Quinnipiac St., Bldg. 40, Wallingford CT 06492
  
  
 ---------------------------------------------------------------
 Warning -- This program may not be used in any manner that
 competes with the business of Gaussian, Inc. or will provide
 assistance to any competitor of Gaussian, Inc.  The licensee
 of this program is prohibited from giving any competitor of
 Gaussian, Inc. access to this program.  By using this program,
 the user acknowledges that Gaussian, Inc. is engaged in the
 business of creating and licensing software in the field of
 computational chemistry and represents and warrants to the
 licensee that it is not a competitor of Gaussian, Inc. and that
 it will not use this program in any manner prohibited above.
 ---------------------------------------------------------------
  

 Cite this work as:
 Gaussian 16, Revision C.01,
 M. J. Frisch, G. W. Trucks, H. B. Schlegel, G. E. Scuseria, 
 M. A. Robb, J. R. Cheeseman, G. Scalmani, V. Barone, 
 G. A. Petersson, H. Nakatsuji, X. Li, M. Caricato, A. V. Marenich, 
 J. Bloino, B. G. Janesko, R. Gomperts, B. Mennucci, H. P. Hratchian, 
 J. V. Ortiz, A. F. Izmaylov, J. L. Sonnenberg, D. Williams-Young, 
 F. Ding, F. Lipparini, F. Egidi, J. Goings, B. Peng, A. Petrone, 
 T. Henderson, D. Ranasinghe, V. G. Zakrzewski, J. Gao, N. Rega, 
 G. Zheng, W. Liang, M. Hada, M. Ehara, K. Toyota, R. Fukuda, 
 J. Hasegawa, M. Ishida, T. Nakajima, Y. Honda, O. Kitao, H. Nakai, 
 T. Vreven, K. Throssell, J. A. Montgomery, Jr., J. E. Peralta, 
 F. Ogliaro, M. J. Bearpark, J. J. Heyd, E. N. Brothers, K. N. Kudin, 
 V. N. Staroverov, T. A. Keith, R. Kobayashi, J. Normand, 
 K. Raghavachari, A. P. Rendell, J. C. Burant, S. S. Iyengar, 
 J. Tomasi, M. Cossi, J. M. Millam, M. Klene, C. Adamo, R. Cammi, 
 J. W. Ochterski, R. L. Martin, K. Morokuma, O. Farkas, 
 J. B. Foresman, and D. J. Fox, Gaussian, Inc., Wallingford CT, 2019.
 
 ******************************************
 Gaussian 16:  ES64L-G16RevC.01  3-Jul-2019
                24-May-2022 
 ******************************************
 %mem=8gb
 %nproc=4
 Will use up to    4 processors via shared memory.
 %chk=conf-112.chk
 -------------------------------------------------------------------
 # B3LYP/6-31G* guess=read geom=check nosymm integral(ultrafinegrid)
 -------------------------------------------------------------------
 1/29=2,38=1,172=1/1;
 2/12=2,15=1,40=1/2;
 3/5=1,6=6,7=1,11=2,14=-4,25=1,30=1,74=-5,75=-5,116=-2/1,2,3;
 4/5=1/1;
 5/5=2,38=6/2;
 6/7=2,8=2,9=2,10=2,28=1/1;
 99/5=1,9=1/99;
 ------------------------------------------------------
 Candidate Structure: Conf:112 Charge calc in gas phase
 ------------------------------------------------------
 Structure from the checkpoint file:  "conf-112.chk"
 Charge =  1 Multiplicity = 1
 Redundant internal coordinates found in file.  (old form).
 N,0,-1.1510183308,0.5590394119,3.2317919139
 H,0,-1.414074418,0.8150568227,4.1794201461
 H,0,-0.1419551831,0.409214236,3.1890589915
 C,0,-1.8673055986,-0.6175443218,2.7613360987
 H,0,-2.9262754447,-0.4996288394,3.0267022572
 C,0,-1.7951897562,-0.7097299535,1.2134615434
 C,0,-1.3285481672,-1.9268315267,3.4079882227
 H,0,-1.4048694442,-1.848721175,4.4964739232
 H,0,-0.270077907,-2.0244515544,3.1445692868
 O,0,-2.0720938338,-1.771574658,0.6257449002
 C,0,-2.1314910297,-3.1665219838,2.9015234717
 H,0,-2.2277065234,-2.9686432647,1.7783678431
 H,0,-3.1402873441,-3.2753031944,3.3096362034
 C,0,-1.4314237716,-4.3811010271,3.0542689694
 O,0,-0.6617673436,-5.2118528886,3.1682289015
 O,0,-3.4034014768,-5.6410304615,2.4874918824
 N,0,-1.4361373593,0.430474668,0.6075522796
 H,0,-1.232018669,1.1730854517,1.2740734548
 C,0,-0.881618458,0.5614140416,-0.7579132019
 H,0,-0.8179108241,1.6396857434,-0.9401161507
 C,0,0.5416420616,-0.0410507627,-0.6721455047
 C,0,-1.7343033496,-0.0740882378,-1.8679482881
 H,0,-1.6822188961,-1.1591640204,-1.7672965203
 H,0,-2.7753182733,0.224771421,-1.7003381438
 O,0,0.7736546907,-1.2215835967,-0.8921183138
 C,0,-1.2739586611,0.3675476851,-3.242847409
 C,0,-1.7543035525,1.5564039031,-3.8140229511
 H,0,-2.4875289069,2.1535712693,-3.2747483452
 C,0,-0.3479189572,-0.3857945173,-3.9744847995
 H,0,0.0434650994,-1.3071400035,-3.5524663351
 C,0,-1.3308130948,1.9848701149,-5.0674539008
 H,0,-1.7123058461,2.8987031078,-5.511578623
 C,0,0.0853783999,0.0292622958,-5.2335628369
 H,0,0.8006727432,-0.5744124324,-5.7893096313
 O,0,-0.025474327,1.6806000964,-7.0106631014
 H,0,0.5846717413,1.0469533361,-7.4195653723
 C,0,-0.4052378973,1.2174716907,-5.7851028877
 N,0,1.5003368523,0.8174659712,-0.2110708979
 H,0,1.2456891203,1.7633329134,0.0390097107
 C,0,2.7804652083,0.316922275,0.2485413109
 H,0,3.1801989441,-0.3602468851,-0.5126675781
 C,0,2.6022914515,-0.5167236175,1.5228929961
 C,0,3.7829675723,1.4654977221,0.4879531693
 H,0,3.3649913662,2.155808535,1.2362217644
 H,0,4.6859985959,1.0351936642,0.9340212135
 O,0,1.6394091483,-0.4975259428,2.2702379836
 C,0,4.1590351205,2.228021408,-0.7902080106
 H,0,3.2597190849,2.6623556799,-1.2496020753
 H,0,4.5709764665,1.5150832864,-1.5160609194
 C,0,5.189952993,3.3326215144,-0.5248912299
 H,0,4.7903501671,4.0395010341,0.2166888239
 H,0,6.0950807636,2.885780954,-0.0943905915
 C,0,5.5908483188,4.1134038569,-1.7829683906
 H,0,4.7107171628,4.6600831321,-2.1687944961
 H,0,6.3255661473,4.8733165525,-1.4945040535
 N,0,6.2230875004,3.2354934919,-2.7758556155
 H,0,6.7617446317,3.7912689439,-3.4366850039
 H,0,5.5139505923,2.7591901275,-3.3297107235
 O,0,3.6828579296,-1.2785015131,1.7499374499
 H,0,-3.4270355072,-6.5609930678,2.7977672634
 H,0,-3.7309675812,-5.6786342892,1.5739979943
 H,0,3.5449839395,-1.7515922625,2.5921378723
 Recover connectivity data from disk.
                           ----------------------------
                           !    Current Parameters    !
                           ! (Angstroms and Degrees)  !
 --------------------------                            --------------------------
 ! Name  Definition              Value                                          !
 --------------------------------------------------------------------------------
 ! R1    R(1,2)                  1.0162                                         !
 ! R2    R(1,3)                  1.021                                          !
 ! R3    R(1,4)                  1.4556                                         !
 ! R4    R(4,5)                  1.0981                                         !
 ! R5    R(4,6)                  1.5523                                         !
 ! R6    R(4,7)                  1.5565                                         !
 ! R7    R(6,10)                 1.2448                                         !
 ! R8    R(6,17)                 1.3402                                         !
 ! R9    R(7,8)                  1.094                                          !
 ! R10   R(7,9)                  1.0951                                         !
 ! R11   R(7,11)                 1.5614                                         !
 ! R12   R(11,12)                1.1445                                         !
 ! R13   R(11,13)                1.0936                                         !
 ! R14   R(11,14)                1.4102                                         !
 ! R15   R(14,15)                1.1382                                         !
 ! R16   R(14,16)                2.4078                                         !
 ! R17   R(16,60)                0.9712                                         !
 ! R18   R(16,61)                0.9712                                         !
 ! R19   R(17,18)                1.0185                                         !
 ! R20   R(17,19)                1.4796                                         !
 ! R21   R(19,20)                1.0954                                         !
 ! R22   R(19,21)                1.5479                                         !
 ! R23   R(19,22)                1.5372                                         !
 ! R24   R(21,25)                1.2231                                         !
 ! R25   R(21,38)                1.367                                          !
 ! R26   R(22,23)                1.091                                          !
 ! R27   R(22,24)                1.096                                          !
 ! R28   R(22,26)                1.5157                                         !
 ! R29   R(26,27)                1.4037                                         !
 ! R30   R(26,29)                1.4001                                         !
 ! R31   R(27,28)                1.0886                                         !
 ! R32   R(27,31)                1.3907                                         !
 ! R33   R(29,30)                1.0864                                         !
 ! R34   R(29,33)                1.3947                                         !
 ! R35   R(31,32)                1.0853                                         !
 ! R36   R(31,37)                1.4002                                         !
 ! R37   R(33,34)                1.0885                                         !
 ! R38   R(33,37)                1.3988                                         !
 ! R39   R(35,36)                0.97                                           !
 ! R40   R(35,37)                1.3641                                         !
 ! R41   R(38,39)                1.011                                          !
 ! R42   R(38,40)                1.4493                                         !
 ! R43   R(40,41)                1.0944                                         !
 ! R44   R(40,42)                1.5332                                         !
 ! R45   R(40,43)                1.5432                                         !
 ! R46   R(42,46)                1.219                                          !
 ! R47   R(42,59)                1.3414                                         !
 ! R48   R(43,44)                1.1005                                         !
 ! R49   R(43,45)                1.0953                                         !
 ! R50   R(43,47)                1.5351                                         !
 ! R51   R(47,48)                1.0993                                         !
 ! R52   R(47,49)                1.0977                                         !
 ! R53   R(47,50)                1.5341                                         !
 ! R54   R(50,51)                1.0997                                         !
 ! R55   R(50,52)                1.0974                                         !
 ! R56   R(50,53)                1.534                                          !
 ! R57   R(53,54)                1.1056                                         !
 ! R58   R(53,55)                1.0957                                         !
 ! R59   R(53,56)                1.4684                                         !
 ! R60   R(56,57)                1.0177                                         !
 ! R61   R(56,58)                1.0181                                         !
 ! R62   R(59,62)                0.9758                                         !
 ! A1    A(2,1,3)              109.3791                                         !
 ! A2    A(2,1,4)              112.1877                                         !
 ! A3    A(3,1,4)              110.7438                                         !
 ! A4    A(1,4,5)              108.039                                          !
 ! A5    A(1,4,6)              110.3301                                         !
 ! A6    A(1,4,7)              112.045                                          !
 ! A7    A(5,4,6)              106.9874                                         !
 ! A8    A(5,4,7)              108.8894                                         !
 ! A9    A(6,4,7)              110.3796                                         !
 ! A10   A(4,6,10)             120.7375                                         !
 ! A11   A(4,6,17)             114.3772                                         !
 ! A12   A(10,6,17)            124.8801                                         !
 ! A13   A(4,7,8)              109.2184                                         !
 ! A14   A(4,7,9)              108.0354                                         !
 ! A15   A(4,7,11)             110.7995                                         !
 ! A16   A(8,7,9)              108.2483                                         !
 ! A17   A(8,7,11)             110.0935                                         !
 ! A18   A(9,7,11)             110.3793                                         !
 ! A19   A(7,11,12)            102.96                                           !
 ! A20   A(7,11,13)            115.6118                                         !
 ! A21   A(7,11,14)            113.1662                                         !
 ! A22   A(12,11,13)           107.8098                                         !
 ! A23   A(12,11,14)           107.274                                          !
 ! A24   A(13,11,14)           109.38                                           !
 ! A25   A(11,14,15)           167.2064                                         !
 ! A26   A(11,14,16)            91.0664                                         !
 ! A27   A(15,14,16)           101.2712                                         !
 ! A28   A(14,16,60)           116.1303                                         !
 ! A29   A(14,16,61)           121.1925                                         !
 ! A30   A(60,16,61)           104.8106                                         !
 ! A31   A(6,17,18)            112.2185                                         !
 ! A32   A(6,17,19)            126.366                                          !
 ! A33   A(18,17,19)           117.6649                                         !
 ! A34   A(17,19,20)           105.2134                                         !
 ! A35   A(17,19,21)           105.0122                                         !
 ! A36   A(17,19,22)           114.9568                                         !
 ! A37   A(20,19,21)           109.8078                                         !
 ! A38   A(20,19,22)           108.6077                                         !
 ! A39   A(21,19,22)           112.9003                                         !
 ! A40   A(19,21,25)           122.6931                                         !
 ! A41   A(19,21,38)           114.777                                          !
 ! A42   A(25,21,38)           122.2633                                         !
 ! A43   A(19,22,23)           108.5461                                         !
 ! A44   A(19,22,24)           107.6807                                         !
 ! A45   A(19,22,26)           111.4751                                         !
 ! A46   A(23,22,24)           107.6052                                         !
 ! A47   A(23,22,26)           111.0381                                         !
 ! A48   A(24,22,26)           110.3508                                         !
 ! A49   A(22,26,27)           120.7945                                         !
 ! A50   A(22,26,29)           121.2059                                         !
 ! A51   A(27,26,29)           117.9955                                         !
 ! A52   A(26,27,28)           119.5722                                         !
 ! A53   A(26,27,31)           121.5662                                         !
 ! A54   A(28,27,31)           118.8546                                         !
 ! A55   A(26,29,30)           119.4467                                         !
 ! A56   A(26,29,33)           121.1365                                         !
 ! A57   A(30,29,33)           119.4162                                         !
 ! A58   A(27,31,32)           121.4134                                         !
 ! A59   A(27,31,37)           119.6289                                         !
 ! A60   A(32,31,37)           118.9528                                         !
 ! A61   A(29,33,34)           119.9995                                         !
 ! A62   A(29,33,37)           119.9837                                         !
 ! A63   A(34,33,37)           120.0158                                         !
 ! A64   A(36,35,37)           109.3938                                         !
 ! A65   A(31,37,33)           119.6891                                         !
 ! A66   A(31,37,35)           117.2863                                         !
 ! A67   A(33,37,35)           123.0245                                         !
 ! A68   A(21,38,39)           119.628                                          !
 ! A69   A(21,38,40)           120.6306                                         !
 ! A70   A(39,38,40)           117.8502                                         !
 ! A71   A(38,40,41)           108.4048                                         !
 ! A72   A(38,40,42)           110.4094                                         !
 ! A73   A(38,40,43)           111.465                                          !
 ! A74   A(41,40,42)           106.5064                                         !
 ! A75   A(41,40,43)           109.3382                                         !
 ! A76   A(42,40,43)           110.5625                                         !
 ! A77   A(40,42,46)           126.3555                                         !
 ! A78   A(40,42,59)           110.845                                          !
 ! A79   A(46,42,59)           122.7819                                         !
 ! A80   A(40,43,44)           109.0024                                         !
 ! A81   A(40,43,45)           107.8409                                         !
 ! A82   A(40,43,47)           113.5573                                         !
 ! A83   A(44,43,45)           106.4192                                         !
 ! A84   A(44,43,47)           110.3397                                         !
 ! A85   A(45,43,47)           109.4066                                         !
 ! A86   A(43,47,48)           110.1081                                         !
 ! A87   A(43,47,49)           108.6571                                         !
 ! A88   A(43,47,50)           112.228                                          !
 ! A89   A(48,47,49)           106.6962                                         !
 ! A90   A(48,47,50)           109.7277                                         !
 ! A91   A(49,47,50)           109.2595                                         !
 ! A92   A(47,50,51)           109.5898                                         !
 ! A93   A(47,50,52)           109.2044                                         !
 ! A94   A(47,50,53)           113.596                                          !
 ! A95   A(51,50,52)           107.2721                                         !
 ! A96   A(51,50,53)           108.7145                                         !
 ! A97   A(52,50,53)           108.2664                                         !
 ! A98   A(50,53,54)           109.259                                          !
 ! A99   A(50,53,55)           108.2003                                         !
 ! A100  A(50,53,56)           111.2699                                         !
 ! A101  A(54,53,55)           106.4245                                         !
 ! A102  A(54,53,56)           113.7288                                         !
 ! A103  A(55,53,56)           107.6951                                         !
 ! A104  A(53,56,57)           109.9038                                         !
 ! A105  A(53,56,58)           110.3433                                         !
 ! A106  A(57,56,58)           105.7185                                         !
 ! A107  A(42,59,62)           107.9144                                         !
 ! D1    D(2,1,4,5)             45.3284                                         !
 ! D2    D(2,1,4,6)            161.9657                                         !
 ! D3    D(2,1,4,7)            -74.6194                                         !
 ! D4    D(3,1,4,5)            167.8529                                         !
 ! D5    D(3,1,4,6)            -75.5098                                         !
 ! D6    D(3,1,4,7)             47.9051                                         !
 ! D7    D(1,4,6,10)           163.8029                                         !
 ! D8    D(1,4,6,17)           -16.9943                                         !
 ! D9    D(5,4,6,10)           -78.9075                                         !
 ! D10   D(5,4,6,17)           100.2953                                         !
 ! D11   D(7,4,6,10)            39.426                                          !
 ! D12   D(7,4,6,17)          -141.3713                                         !
 ! D13   D(1,4,7,8)             57.6349                                         !
 ! D14   D(1,4,7,9)            -59.8979                                         !
 ! D15   D(1,4,7,11)           179.0751                                         !
 ! D16   D(5,4,7,8)            -61.8151                                         !
 ! D17   D(5,4,7,9)           -179.3479                                         !
 ! D18   D(5,4,7,11)            59.6251                                         !
 ! D19   D(6,4,7,8)           -178.9781                                         !
 ! D20   D(6,4,7,9)             63.4892                                         !
 ! D21   D(6,4,7,11)           -57.5378                                         !
 ! D22   D(4,6,17,18)            2.1891                                         !
 ! D23   D(4,6,17,19)          159.6495                                         !
 ! D24   D(10,6,17,18)        -178.6463                                         !
 ! D25   D(10,6,17,19)         -21.1858                                         !
 ! D26   D(4,7,11,12)           43.4038                                         !
 ! D27   D(4,7,11,13)          -73.8782                                         !
 ! D28   D(4,7,11,14)          158.8651                                         !
 ! D29   D(8,7,11,12)          164.3276                                         !
 ! D30   D(8,7,11,13)           47.0456                                         !
 ! D31   D(8,7,11,14)          -80.2111                                         !
 ! D32   D(9,7,11,12)          -76.2273                                         !
 ! D33   D(9,7,11,13)          166.4907                                         !
 ! D34   D(9,7,11,14)           39.234                                          !
 ! D35   D(7,11,14,15)         -25.1059                                         !
 ! D36   D(7,11,14,16)         170.146                                          !
 ! D37   D(12,11,14,15)         87.757                                          !
 ! D38   D(12,11,14,16)        -76.9912                                         !
 ! D39   D(13,11,14,15)       -155.5679                                         !
 ! D40   D(13,11,14,16)         39.684                                          !
 ! D41   D(11,14,16,60)       -157.6501                                         !
 ! D42   D(11,14,16,61)         73.3112                                         !
 ! D43   D(15,14,16,60)         25.7552                                         !
 ! D44   D(15,14,16,61)       -103.2835                                         !
 ! D45   D(6,17,19,20)         173.9166                                         !
 ! D46   D(6,17,19,21)         -70.2019                                         !
 ! D47   D(6,17,19,22)          54.491                                          !
 ! D48   D(18,17,19,20)        -29.703                                          !
 ! D49   D(18,17,19,21)         86.1784                                         !
 ! D50   D(18,17,19,22)       -149.1286                                         !
 ! D51   D(17,19,21,25)         90.8282                                         !
 ! D52   D(17,19,21,38)        -83.3595                                         !
 ! D53   D(20,19,21,25)       -156.5055                                         !
 ! D54   D(20,19,21,38)         29.3069                                         !
 ! D55   D(22,19,21,25)        -35.1519                                         !
 ! D56   D(22,19,21,38)        150.6605                                         !
 ! D57   D(17,19,22,23)        -70.3194                                         !
 ! D58   D(17,19,22,24)         45.8983                                         !
 ! D59   D(17,19,22,26)        167.0727                                         !
 ! D60   D(20,19,22,23)        172.158                                          !
 ! D61   D(20,19,22,24)        -71.6242                                         !
 ! D62   D(20,19,22,26)         49.5502                                         !
 ! D63   D(21,19,22,23)         50.1273                                         !
 ! D64   D(21,19,22,24)        166.3451                                         !
 ! D65   D(21,19,22,26)        -72.4805                                         !
 ! D66   D(19,21,38,39)         -0.1165                                         !
 ! D67   D(19,21,38,40)        163.8978                                         !
 ! D68   D(25,21,38,39)       -174.3319                                         !
 ! D69   D(25,21,38,40)        -10.3177                                         !
 ! D70   D(19,22,26,27)        -86.1324                                         !
 ! D71   D(19,22,26,29)         93.1126                                         !
 ! D72   D(23,22,26,27)        152.7014                                         !
 ! D73   D(23,22,26,29)        -28.0536                                         !
 ! D74   D(24,22,26,27)         33.4727                                         !
 ! D75   D(24,22,26,29)       -147.2823                                         !
 ! D76   D(22,26,27,28)         -1.7421                                         !
 ! D77   D(22,26,27,31)        179.229                                          !
 ! D78   D(29,26,27,28)        178.9893                                         !
 ! D79   D(29,26,27,31)         -0.0397                                         !
 ! D80   D(22,26,29,30)          0.399                                          !
 ! D81   D(22,26,29,33)       -179.3154                                         !
 ! D82   D(27,26,29,30)        179.6645                                         !
 ! D83   D(27,26,29,33)         -0.0499                                         !
 ! D84   D(26,27,31,32)        179.2977                                         !
 ! D85   D(26,27,31,37)          0.1116                                         !
 ! D86   D(28,27,31,32)          0.2619                                         !
 ! D87   D(28,27,31,37)       -178.9241                                         !
 ! D88   D(26,29,33,34)       -179.5704                                         !
 ! D89   D(26,29,33,37)          0.0665                                         !
 ! D90   D(30,29,33,34)          0.7151                                         !
 ! D91   D(30,29,33,37)       -179.648                                          !
 ! D92   D(27,31,37,33)         -0.0938                                         !
 ! D93   D(27,31,37,35)        179.8404                                         !
 ! D94   D(32,31,37,33)       -179.2999                                         !
 ! D95   D(32,31,37,35)          0.6342                                         !
 ! D96   D(29,33,37,31)          0.0064                                         !
 ! D97   D(29,33,37,35)       -179.9238                                         !
 ! D98   D(34,33,37,31)        179.6432                                         !
 ! D99   D(34,33,37,35)         -0.287                                          !
 ! D100  D(36,35,37,31)       -177.6421                                         !
 ! D101  D(36,35,37,33)          2.2898                                         !
 ! D102  D(21,38,40,41)         49.717                                          !
 ! D103  D(21,38,40,42)        -66.598                                          !
 ! D104  D(21,38,40,43)        170.1044                                         !
 ! D105  D(39,38,40,41)       -145.992                                          !
 ! D106  D(39,38,40,42)         97.693                                          !
 ! D107  D(39,38,40,43)        -25.6047                                         !
 ! D108  D(38,40,42,46)        -18.5908                                         !
 ! D109  D(38,40,42,59)        162.9085                                         !
 ! D110  D(41,40,42,46)       -136.0823                                         !
 ! D111  D(41,40,42,59)         45.417                                          !
 ! D112  D(43,40,42,46)        105.2296                                         !
 ! D113  D(43,40,42,59)        -73.2711                                         !
 ! D114  D(38,40,43,44)         58.815                                          !
 ! D115  D(38,40,43,45)        173.959                                          !
 ! D116  D(38,40,43,47)        -64.6336                                         !
 ! D117  D(41,40,43,44)        178.6522                                         !
 ! D118  D(41,40,43,45)        -66.2037                                         !
 ! D119  D(41,40,43,47)         55.2036                                         !
 ! D120  D(42,40,43,44)        -64.3955                                         !
 ! D121  D(42,40,43,45)         50.7486                                         !
 ! D122  D(42,40,43,47)        172.1559                                         !
 ! D123  D(40,42,59,62)        176.9604                                         !
 ! D124  D(46,42,59,62)         -1.6034                                         !
 ! D125  D(40,43,47,48)         59.2891                                         !
 ! D126  D(40,43,47,49)        -57.2322                                         !
 ! D127  D(40,43,47,50)       -178.1678                                         !
 ! D128  D(44,43,47,48)        -63.4256                                         !
 ! D129  D(44,43,47,49)       -179.9469                                         !
 ! D130  D(44,43,47,50)         59.1175                                         !
 ! D131  D(45,43,47,48)        179.8171                                         !
 ! D132  D(45,43,47,49)         63.2958                                         !
 ! D133  D(45,43,47,50)        -57.6398                                         !
 ! D134  D(43,47,50,51)        -58.3172                                         !
 ! D135  D(43,47,50,52)         58.9207                                         !
 ! D136  D(43,47,50,53)        179.8738                                         !
 ! D137  D(48,47,50,51)         64.4411                                         !
 ! D138  D(48,47,50,52)       -178.3211                                         !
 ! D139  D(48,47,50,53)        -57.368                                          !
 ! D140  D(49,47,50,51)       -178.9051                                         !
 ! D141  D(49,47,50,52)        -61.6673                                         !
 ! D142  D(49,47,50,53)         59.2859                                         !
 ! D143  D(47,50,53,54)         64.5821                                         !
 ! D144  D(47,50,53,55)       -179.94                                           !
 ! D145  D(47,50,53,56)        -61.8188                                         !
 ! D146  D(51,50,53,54)        -57.7124                                         !
 ! D147  D(51,50,53,55)         57.7655                                         !
 ! D148  D(51,50,53,56)        175.8866                                         !
 ! D149  D(52,50,53,54)       -173.9398                                         !
 ! D150  D(52,50,53,55)        -58.4619                                         !
 ! D151  D(52,50,53,56)         59.6593                                         !
 ! D152  D(50,53,56,57)       -160.377                                          !
 ! D153  D(50,53,56,58)         83.4212                                         !
 ! D154  D(54,53,56,57)         75.7227                                         !
 ! D155  D(54,53,56,58)        -40.4791                                         !
 ! D156  D(55,53,56,57)        -41.9516                                         !
 ! D157  D(55,53,56,58)       -158.1534                                         !
 --------------------------------------------------------------------------------
 Symmetry turned off by external request.
 Stoichiometry    C20H31N4O7(1+)
 Framework group  C1[X(C20H31N4O7)]
 Deg. of freedom   180
 Full point group                 C1      NOp   1
                          Input orientation:                          
 ---------------------------------------------------------------------
 Center     Atomic      Atomic             Coordinates (Angstroms)
 Number     Number       Type             X           Y           Z
 ---------------------------------------------------------------------
      1          7           0       -1.151018    0.559039    3.231792
      2          1           0       -1.414074    0.815057    4.179420
      3          1           0       -0.141955    0.409214    3.189059
      4          6           0       -1.867306   -0.617544    2.761336
      5          1           0       -2.926275   -0.499629    3.026702
      6          6           0       -1.795190   -0.709730    1.213462
      7          6           0       -1.328548   -1.926832    3.407988
      8          1           0       -1.404869   -1.848721    4.496474
      9          1           0       -0.270078   -2.024452    3.144569
     10          8           0       -2.072094   -1.771575    0.625745
     11          6           0       -2.131491   -3.166522    2.901523
     12          1           0       -2.227707   -2.968643    1.778368
     13          1           0       -3.140287   -3.275303    3.309636
     14          6           0       -1.431424   -4.381101    3.054269
     15          8           0       -0.661767   -5.211853    3.168229
     16          8           0       -3.403401   -5.641030    2.487492
     17          7           0       -1.436137    0.430475    0.607552
     18          1           0       -1.232019    1.173085    1.274073
     19          6           0       -0.881618    0.561414   -0.757913
     20          1           0       -0.817911    1.639686   -0.940116
     21          6           0        0.541642   -0.041051   -0.672146
     22          6           0       -1.734303   -0.074088   -1.867948
     23          1           0       -1.682219   -1.159164   -1.767297
     24          1           0       -2.775318    0.224771   -1.700338
     25          8           0        0.773655   -1.221584   -0.892118
     26          6           0       -1.273959    0.367548   -3.242847
     27          6           0       -1.754304    1.556404   -3.814023
     28          1           0       -2.487529    2.153571   -3.274748
     29          6           0       -0.347919   -0.385795   -3.974485
     30          1           0        0.043465   -1.307140   -3.552466
     31          6           0       -1.330813    1.984870   -5.067454
     32          1           0       -1.712306    2.898703   -5.511579
     33          6           0        0.085378    0.029262   -5.233563
     34          1           0        0.800673   -0.574412   -5.789310
     35          8           0       -0.025474    1.680600   -7.010663
     36          1           0        0.584672    1.046953   -7.419565
     37          6           0       -0.405238    1.217472   -5.785103
     38          7           0        1.500337    0.817466   -0.211071
     39          1           0        1.245689    1.763333    0.039010
     40          6           0        2.780465    0.316922    0.248541
     41          1           0        3.180199   -0.360247   -0.512668
     42          6           0        2.602291   -0.516724    1.522893
     43          6           0        3.782968    1.465498    0.487953
     44          1           0        3.364991    2.155809    1.236222
     45          1           0        4.685999    1.035194    0.934021
     46          8           0        1.639409   -0.497526    2.270238
     47          6           0        4.159035    2.228021   -0.790208
     48          1           0        3.259719    2.662356   -1.249602
     49          1           0        4.570976    1.515083   -1.516061
     50          6           0        5.189953    3.332622   -0.524891
     51          1           0        4.790350    4.039501    0.216689
     52          1           0        6.095081    2.885781   -0.094391
     53          6           0        5.590848    4.113404   -1.782968
     54          1           0        4.710717    4.660083   -2.168794
     55          1           0        6.325566    4.873317   -1.494504
     56          7           0        6.223088    3.235493   -2.775856
     57          1           0        6.761745    3.791269   -3.436685
     58          1           0        5.513951    2.759190   -3.329711
     59          8           0        3.682858   -1.278502    1.749937
     60          1           0       -3.427036   -6.560993    2.797767
     61          1           0       -3.730968   -5.678634    1.573998
     62          1           0        3.544984   -1.751592    2.592138
 ---------------------------------------------------------------------
 Rotational constants (GHZ):           0.1439211           0.0802109           0.0588056
 Standard basis: 6-31G(d) (6D, 7F)
   527 basis functions,   992 primitive gaussians,   527 cartesian basis functions
   117 alpha electrons      117 beta electrons
       nuclear repulsion energy      3183.1445586796 Hartrees.
 NAtoms=   62 NActive=   62 NUniq=   62 SFac= 1.00D+00 NAtFMM=   60 NAOKFM=T Big=T
 Integral buffers will be    131072 words long.
 Raffenetti 2 integral format.
 Two-electron integral symmetry is turned off.
 One-electron integrals computed using PRISM.
 NBasis=   527 RedAO= T EigKep=  4.33D-04  NBF=   527
 NBsUse=   527 1.00D-06 EigRej= -1.00D+00 NBFU=   527
 Initial guess from the checkpoint file:  "conf-112.chk"
 B after Tr=     0.000000    0.000000    0.000000
         Rot=    1.000000    0.000000    0.000000    0.000000 Ang=   0.00 deg.
 Requested convergence on RMS density matrix=1.00D-08 within 128 cycles.
 Requested convergence on MAX density matrix=1.00D-06.
 Requested convergence on             energy=1.00D-06.
 No special actions if energy rises.
 SCF Done:  E(RB3LYP) =  -1526.13135960     A.U. after    3 cycles
            NFock=  3  Conv=0.98D-09     -V/T= 2.0093

 **********************************************************************

            Population analysis using the SCF Density.

 **********************************************************************

 Alpha  occ. eigenvalues --  -19.43321 -19.30562 -19.30200 -19.25166 -19.24621
 Alpha  occ. eigenvalues --  -19.23735 -19.21024 -14.47340 -14.45890 -14.44602
 Alpha  occ. eigenvalues --  -14.36894 -10.53550 -10.42797 -10.41008 -10.38444
 Alpha  occ. eigenvalues --  -10.38169 -10.36315 -10.35189 -10.33587 -10.33470
 Alpha  occ. eigenvalues --  -10.31074 -10.28357 -10.26690 -10.26660 -10.26097
 Alpha  occ. eigenvalues --  -10.25587 -10.25457 -10.25271 -10.25078 -10.24619
 Alpha  occ. eigenvalues --  -10.24554  -1.33763  -1.21331  -1.15966  -1.15780
 Alpha  occ. eigenvalues --   -1.13146  -1.12106  -1.11834  -1.04701  -1.02418
 Alpha  occ. eigenvalues --   -1.01634  -0.98175  -0.93681  -0.91825  -0.89265
 Alpha  occ. eigenvalues --   -0.87269  -0.86150  -0.83598  -0.81022  -0.80881
 Alpha  occ. eigenvalues --   -0.77340  -0.76982  -0.74403  -0.72818  -0.71804
 Alpha  occ. eigenvalues --   -0.69846  -0.68873  -0.68469  -0.68166  -0.67724
 Alpha  occ. eigenvalues --   -0.67588  -0.66593  -0.65406  -0.65202  -0.64668
 Alpha  occ. eigenvalues --   -0.64391  -0.61384  -0.60845  -0.60628  -0.60396
 Alpha  occ. eigenvalues --   -0.59863  -0.59409  -0.57841  -0.56844  -0.55926
 Alpha  occ. eigenvalues --   -0.55675  -0.55137  -0.54606  -0.54475  -0.54112
 Alpha  occ. eigenvalues --   -0.53649  -0.53014  -0.52250  -0.52112  -0.51460
 Alpha  occ. eigenvalues --   -0.51053  -0.50463  -0.50194  -0.49677  -0.48706
 Alpha  occ. eigenvalues --   -0.48312  -0.47717  -0.47583  -0.46822  -0.46469
 Alpha  occ. eigenvalues --   -0.46079  -0.45793  -0.45763  -0.44730  -0.44101
 Alpha  occ. eigenvalues --   -0.43304  -0.42484  -0.42132  -0.41046  -0.40462
 Alpha  occ. eigenvalues --   -0.39902  -0.39791  -0.39380  -0.38852  -0.38337
 Alpha  occ. eigenvalues --   -0.38218  -0.35994  -0.35334  -0.33777  -0.31372
 Alpha  occ. eigenvalues --   -0.29185  -0.27981
 Alpha virt. eigenvalues --   -0.20713  -0.20032  -0.10802  -0.09920  -0.07952
 Alpha virt. eigenvalues --   -0.07189  -0.06236  -0.05155  -0.04021  -0.03466
 Alpha virt. eigenvalues --   -0.02504  -0.02443  -0.00035   0.01089   0.01191
 Alpha virt. eigenvalues --    0.01380   0.02398   0.02544   0.03097   0.03410
 Alpha virt. eigenvalues --    0.03717   0.04281   0.04732   0.05321   0.05929
 Alpha virt. eigenvalues --    0.06503   0.06848   0.07171   0.07451   0.08006
 Alpha virt. eigenvalues --    0.08475   0.08776   0.09059   0.09622   0.10171
 Alpha virt. eigenvalues --    0.10406   0.11106   0.11151   0.12018   0.12353
 Alpha virt. eigenvalues --    0.12375   0.13325   0.13572   0.13812   0.14200
 Alpha virt. eigenvalues --    0.14519   0.15238   0.15473   0.16026   0.16640
 Alpha virt. eigenvalues --    0.17408   0.17960   0.18397   0.19572   0.19913
 Alpha virt. eigenvalues --    0.21368   0.21509   0.23748   0.24705   0.25322
 Alpha virt. eigenvalues --    0.26754   0.27686   0.28380   0.29602   0.30376
 Alpha virt. eigenvalues --    0.30822   0.32066   0.34238   0.37215   0.38447
 Alpha virt. eigenvalues --    0.39923   0.40625   0.40922   0.41305   0.42574
 Alpha virt. eigenvalues --    0.42989   0.43861   0.44650   0.45624   0.46232
 Alpha virt. eigenvalues --    0.46603   0.46750   0.47150   0.47812   0.48084
 Alpha virt. eigenvalues --    0.48740   0.49855   0.50062   0.50645   0.51151
 Alpha virt. eigenvalues --    0.51393   0.51896   0.52353   0.52989   0.53227
 Alpha virt. eigenvalues --    0.53437   0.54868   0.55207   0.55537   0.56087
 Alpha virt. eigenvalues --    0.56577   0.57201   0.57827   0.58355   0.58697
 Alpha virt. eigenvalues --    0.58904   0.59152   0.59456   0.60136   0.60233
 Alpha virt. eigenvalues --    0.61382   0.61927   0.63469   0.63646   0.64268
 Alpha virt. eigenvalues --    0.65101   0.65960   0.67177   0.67380   0.67532
 Alpha virt. eigenvalues --    0.67868   0.68625   0.69187   0.69418   0.69506
 Alpha virt. eigenvalues --    0.69911   0.71199   0.71750   0.72660   0.73017
 Alpha virt. eigenvalues --    0.73642   0.74224   0.74659   0.75207   0.75681
 Alpha virt. eigenvalues --    0.76205   0.76600   0.77102   0.77465   0.77849
 Alpha virt. eigenvalues --    0.78196   0.78384   0.78945   0.79385   0.80235
 Alpha virt. eigenvalues --    0.80558   0.81229   0.81600   0.82229   0.82583
 Alpha virt. eigenvalues --    0.82959   0.83108   0.83562   0.83778   0.84409
 Alpha virt. eigenvalues --    0.84715   0.85478   0.85853   0.86118   0.86671
 Alpha virt. eigenvalues --    0.87266   0.88063   0.88430   0.88915   0.89107
 Alpha virt. eigenvalues --    0.89157   0.90164   0.90868   0.91059   0.91332
 Alpha virt. eigenvalues --    0.92250   0.92534   0.93527   0.94161   0.95722
 Alpha virt. eigenvalues --    0.96164   0.96517   0.97353   0.97956   0.98079
 Alpha virt. eigenvalues --    0.99482   0.99955   1.01182   1.01963   1.03584
 Alpha virt. eigenvalues --    1.04574   1.06690   1.07162   1.08165   1.09440
 Alpha virt. eigenvalues --    1.10061   1.10413   1.11557   1.12173   1.14056
 Alpha virt. eigenvalues --    1.15666   1.16250   1.17595   1.18286   1.19332
 Alpha virt. eigenvalues --    1.20349   1.21011   1.21785   1.23785   1.24336
 Alpha virt. eigenvalues --    1.25078   1.26126   1.26473   1.28853   1.29499
 Alpha virt. eigenvalues --    1.30129   1.30421   1.31598   1.32002   1.32982
 Alpha virt. eigenvalues --    1.34373   1.34489   1.36955   1.37966   1.38403
 Alpha virt. eigenvalues --    1.38927   1.40100   1.40151   1.41805   1.43099
 Alpha virt. eigenvalues --    1.44171   1.44444   1.45192   1.46860   1.48072
 Alpha virt. eigenvalues --    1.49201   1.49928   1.51784   1.52685   1.52825
 Alpha virt. eigenvalues --    1.54736   1.55278   1.57045   1.58773   1.59790
 Alpha virt. eigenvalues --    1.59996   1.60271   1.61141   1.62649   1.63213
 Alpha virt. eigenvalues --    1.65275   1.66016   1.67052   1.67489   1.67750
 Alpha virt. eigenvalues --    1.69238   1.69494   1.70027   1.70743   1.71222
 Alpha virt. eigenvalues --    1.71754   1.71965   1.72226   1.72556   1.73906
 Alpha virt. eigenvalues --    1.75218   1.75747   1.76814   1.77205   1.78326
 Alpha virt. eigenvalues --    1.79540   1.80105   1.80733   1.81072   1.81465
 Alpha virt. eigenvalues --    1.82460   1.82795   1.83533   1.84153   1.84823
 Alpha virt. eigenvalues --    1.86164   1.86982   1.87601   1.88024   1.88519
 Alpha virt. eigenvalues --    1.89088   1.89817   1.90301   1.91197   1.91650
 Alpha virt. eigenvalues --    1.91941   1.92325   1.93065   1.93563   1.94372
 Alpha virt. eigenvalues --    1.94825   1.96179   1.97153   1.98121   1.99507
 Alpha virt. eigenvalues --    2.00137   2.01627   2.02026   2.02553   2.03177
 Alpha virt. eigenvalues --    2.05588   2.06583   2.07450   2.08095   2.08573
 Alpha virt. eigenvalues --    2.11097   2.12142   2.12477   2.13060   2.13588
 Alpha virt. eigenvalues --    2.17062   2.18829   2.19624   2.20302   2.21063
 Alpha virt. eigenvalues --    2.22313   2.22642   2.23357   2.24918   2.25167
 Alpha virt. eigenvalues --    2.25990   2.26201   2.28509   2.29210   2.30848
 Alpha virt. eigenvalues --    2.31740   2.33197   2.33523   2.34335   2.35058
 Alpha virt. eigenvalues --    2.36303   2.37871   2.39575   2.40663   2.41393
 Alpha virt. eigenvalues --    2.42399   2.43177   2.44689   2.45028   2.46660
 Alpha virt. eigenvalues --    2.49922   2.50665   2.52875   2.53672   2.54753
 Alpha virt. eigenvalues --    2.55134   2.56142   2.56887   2.57867   2.59310
 Alpha virt. eigenvalues --    2.59826   2.60509   2.60814   2.62881   2.63897
 Alpha virt. eigenvalues --    2.65786   2.67308   2.68028   2.70526   2.72490
 Alpha virt. eigenvalues --    2.73382   2.74036   2.75875   2.76427   2.78484
 Alpha virt. eigenvalues --    2.81654   2.83835   2.84984   2.86931   2.90314
 Alpha virt. eigenvalues --    2.93397   2.93674   2.95828   2.98274   3.00320
 Alpha virt. eigenvalues --    3.04643   3.05890   3.08110   3.35408   3.52469
 Alpha virt. eigenvalues --    3.71410   3.72138   3.77589   3.88046   3.92527
 Alpha virt. eigenvalues --    3.95281   3.96913   4.04583   4.05502   4.05677
 Alpha virt. eigenvalues --    4.06656   4.09299   4.11297   4.14936   4.18994
 Alpha virt. eigenvalues --    4.22584   4.24784   4.26040   4.28029   4.29802
 Alpha virt. eigenvalues --    4.32858   4.34052   4.37888   4.43498   4.44461
 Alpha virt. eigenvalues --    4.48500   4.54261   4.57918   4.60884   4.69937
          Condensed to atoms (all electrons):
 Mulliken charges:
               1
     1  N   -0.767090
     2  H    0.332608
     3  H    0.361113
     4  C   -0.069534
     5  H    0.191920
     6  C    0.657614
     7  C   -0.311188
     8  H    0.190334
     9  H    0.209692
    10  O   -0.542615
    11  C   -0.436006
    12  H    0.340857
    13  H    0.272588
    14  C    0.626257
    15  O   -0.217054
    16  O   -0.785254
    17  N   -0.596072
    18  H    0.370258
    19  C   -0.067820
    20  H    0.162545
    21  C    0.660754
    22  C   -0.355878
    23  H    0.197506
    24  H    0.155280
    25  O   -0.518725
    26  C    0.139635
    27  C   -0.192099
    28  H    0.125863
    29  C   -0.189805
    30  H    0.152875
    31  C   -0.156415
    32  H    0.151013
    33  C   -0.195535
    34  H    0.128658
    35  O   -0.634661
    36  H    0.412659
    37  C    0.353025
    38  N   -0.604438
    39  H    0.332535
    40  C   -0.026833
    41  H    0.209547
    42  C    0.605099
    43  C   -0.307098
    44  H    0.140731
    45  H    0.181428
    46  O   -0.506374
    47  C   -0.266098
    48  H    0.131979
    49  H    0.158368
    50  C   -0.235850
    51  H    0.125471
    52  H    0.151457
    53  C   -0.149997
    54  H    0.118360
    55  H    0.150894
    56  N   -0.716803
    57  H    0.308574
    58  H    0.297054
    59  O   -0.540863
    60  H    0.433134
    61  H    0.433890
    62  H    0.418529
 Sum of Mulliken charges =   1.00000
 Mulliken charges with hydrogens summed into heavy atoms:
               1
     1  N   -0.073368
     4  C    0.122387
     6  C    0.657614
     7  C    0.088839
    10  O   -0.542615
    11  C    0.177439
    14  C    0.626257
    15  O   -0.217054
    16  O    0.081770
    17  N   -0.225815
    19  C    0.094725
    21  C    0.660754
    22  C   -0.003092
    25  O   -0.518725
    26  C    0.139635
    27  C   -0.066236
    29  C   -0.036931
    31  C   -0.005402
    33  C   -0.066877
    35  O   -0.222002
    37  C    0.353025
    38  N   -0.271904
    40  C    0.182714
    42  C    0.605099
    43  C    0.015061
    46  O   -0.506374
    47  C    0.024250
    50  C    0.041078
    53  C    0.119258
    56  N   -0.111174
    59  O   -0.122334
 Electronic spatial extent (au):  <R**2>=          18581.7584
 Charge=              1.0000 electrons
 Dipole moment (field-independent basis, Debye):
    X=             -3.8944    Y=             -9.4814    Z=             10.7409  Tot=             14.8469
 Quadrupole moment (field-independent basis, Debye-Ang):
   XX=           -144.3003   YY=            -93.9778   ZZ=           -116.0171
   XY=             44.1099   XZ=            -29.8093   YZ=            -41.0137
 Traceless Quadrupole moment (field-independent basis, Debye-Ang):
   XX=            -26.2019   YY=             24.1206   ZZ=              2.0813
   XY=             44.1099   XZ=            -29.8093   YZ=            -41.0137
 Octapole moment (field-independent basis, Debye-Ang**2):
  XXX=           -332.8971  YYY=           -385.7250  ZZZ=            280.9783  XYY=           -256.2030
  XXY=            -57.8920  XXZ=            132.7562  XZZ=            -49.8162  YZZ=           -127.7550
  YYZ=            265.5117  XYZ=             44.8625
 Hexadecapole moment (field-independent basis, Debye-Ang**3):
 XXXX=          -7990.6169 YYYY=          -2922.3782 ZZZZ=          -7894.9370 XXXY=          -1376.7537
 XXXZ=            467.3010 YYYX=           -371.3886 YYYZ=            869.5650 ZZZX=           -202.7268
 ZZZY=           1865.0839 XXYY=          -1194.3076 XXZZ=          -2459.9080 YYZZ=          -2034.2416
 XXYZ=            155.7171 YYXZ=           -377.6734 ZZXY=           -347.1757
 N-N= 3.183144558680D+03 E-N=-9.902503691297D+03  KE= 1.512048099607D+03
 Unable to Open any file for archive entry.
 1\1\GINC-QML-000\SP\RB3LYP\6-31G(d)\C20H31N4O7(1+)\KENGMITH\24-May-202
 2\0\\# B3LYP/6-31G* guess=read geom=check nosymm integral(ultrafinegri
 d)\\Candidate Structure: Conf:112 Charge calc in gas phase\\1,1\N,0,-1
 .1510183308,0.5590394119,3.2317919139\H,0,-1.414074418,0.8150568227,4.
 1794201461\H,0,-0.1419551831,0.409214236,3.1890589915\C,0,-1.867305598
 6,-0.6175443218,2.7613360987\H,0,-2.9262754447,-0.4996288394,3.0267022
 572\C,0,-1.7951897562,-0.7097299535,1.2134615434\C,0,-1.3285481672,-1.
 9268315267,3.4079882227\H,0,-1.4048694442,-1.848721175,4.4964739232\H,
 0,-0.270077907,-2.0244515544,3.1445692868\O,0,-2.0720938338,-1.7715746
 58,0.6257449002\C,0,-2.1314910297,-3.1665219838,2.9015234717\H,0,-2.22
 77065234,-2.9686432647,1.7783678431\H,0,-3.1402873441,-3.2753031944,3.
 3096362034\C,0,-1.4314237716,-4.3811010271,3.0542689694\O,0,-0.6617673
 436,-5.2118528886,3.1682289015\O,0,-3.4034014768,-5.6410304615,2.48749
 18824\N,0,-1.4361373593,0.430474668,0.6075522796\H,0,-1.232018669,1.17
 30854517,1.2740734548\C,0,-0.881618458,0.5614140416,-0.7579132019\H,0,
 -0.8179108241,1.6396857434,-0.9401161507\C,0,0.5416420616,-0.041050762
 7,-0.6721455047\C,0,-1.7343033496,-0.0740882378,-1.8679482881\H,0,-1.6
 822188961,-1.1591640204,-1.7672965203\H,0,-2.7753182733,0.224771421,-1
 .7003381438\O,0,0.7736546907,-1.2215835967,-0.8921183138\C,0,-1.273958
 6611,0.3675476851,-3.242847409\C,0,-1.7543035525,1.5564039031,-3.81402
 29511\H,0,-2.4875289069,2.1535712693,-3.2747483452\C,0,-0.3479189572,-
 0.3857945173,-3.9744847995\H,0,0.0434650994,-1.3071400035,-3.552466335
 1\C,0,-1.3308130948,1.9848701149,-5.0674539008\H,0,-1.7123058461,2.898
 7031078,-5.511578623\C,0,0.0853783999,0.0292622958,-5.2335628369\H,0,0
 .8006727432,-0.5744124324,-5.7893096313\O,0,-0.025474327,1.6806000964,
 -7.0106631014\H,0,0.5846717413,1.0469533361,-7.4195653723\C,0,-0.40523
 78973,1.2174716907,-5.7851028877\N,0,1.5003368523,0.8174659712,-0.2110
 708979\H,0,1.2456891203,1.7633329134,0.0390097107\C,0,2.7804652083,0.3
 16922275,0.2485413109\H,0,3.1801989441,-0.3602468851,-0.5126675781\C,0
 ,2.6022914515,-0.5167236175,1.5228929961\C,0,3.7829675723,1.4654977221
 ,0.4879531693\H,0,3.3649913662,2.155808535,1.2362217644\H,0,4.68599859
 59,1.0351936642,0.9340212135\O,0,1.6394091483,-0.4975259428,2.27023798
 36\C,0,4.1590351205,2.228021408,-0.7902080106\H,0,3.2597190849,2.66235
 56799,-1.2496020753\H,0,4.5709764665,1.5150832864,-1.5160609194\C,0,5.
 189952993,3.3326215144,-0.5248912299\H,0,4.7903501671,4.0395010341,0.2
 166888239\H,0,6.0950807636,2.885780954,-0.0943905915\C,0,5.5908483188,
 4.1134038569,-1.7829683906\H,0,4.7107171628,4.6600831321,-2.1687944961
 \H,0,6.3255661473,4.8733165525,-1.4945040535\N,0,6.2230875004,3.235493
 4919,-2.7758556155\H,0,6.7617446317,3.7912689439,-3.4366850039\H,0,5.5
 139505923,2.7591901275,-3.3297107235\O,0,3.6828579296,-1.2785015131,1.
 7499374499\H,0,-3.4270355072,-6.5609930678,2.7977672634\H,0,-3.7309675
 812,-5.6786342892,1.5739979943\H,0,3.5449839395,-1.7515922625,2.592137
 8723\\Version=ES64L-G16RevC.01\HF=-1526.1313596\RMSD=9.836e-10\Dipole=
 -2.466656,-3.4921089,4.9680497\Quadrupole=-19.4804548,17.9330399,1.547
 4149,32.7946289,-22.1625026,-30.4926774\PG=C01 [X(C20H31N4O7)]\\@
 The archive entry for this job was punched.


 THE TEST OF A FIRST RATE INTELLIGENCE IS THE ABILITY TO HOLD TWO OPPOSED
 IDEAS IN THE MIND AT THE SAME TIME, AND STILL RETAIN THE ABILITY TO FUNCTION.
 ONE SHOULD, FOR EXAMPLE, BE ABLE TO SEE THAT THINGS ARE HOPELESS AND YET BE
 DETERMINED TO MAKE THEM OTHERWISE.

                                                       -- F. SCOTT FITZGERALD
 Job cpu time:       0 days  0 hours  3 minutes 56.5 seconds.
 Elapsed time:       0 days  0 hours  0 minutes 59.6 seconds.
 File lengths (MBytes):  RWF=    264 Int=      0 D2E=      0 Chk=     40 Scr=     16
 Normal termination of Gaussian 16 at Tue May 24 03:31:08 2022.
