 Entering Gaussian System, Link 0=/opt/software/Gaussian/g16-AVX2-C.01/g16/g16
 Input=charge-conf-34.com
 Output=charge-conf-34.log
 Initial command:
 /opt/software/Gaussian/g16-AVX2-C.01/g16/l1.exe "/mnt/gs18/scratch/users/kengmith/Gau-104461.inp" -scrdir="/mnt/gs18/scratch/users/kengmith/"
 Entering Link 1 = /opt/software/Gaussian/g16-AVX2-C.01/g16/l1.exe PID=    104477.
  
 Copyright (c) 1988-2019, Gaussian, Inc.  All Rights Reserved.
  
 This is part of the Gaussian(R) 16 program.  It is based on
 the Gaussian(R) 09 system (copyright 2009, Gaussian, Inc.),
 the Gaussian(R) 03 system (copyright 2003, Gaussian, Inc.),
 the Gaussian(R) 98 system (copyright 1998, Gaussian, Inc.),
 the Gaussian(R) 94 system (copyright 1995, Gaussian, Inc.),
 the Gaussian 92(TM) system (copyright 1992, Gaussian, Inc.),
 the Gaussian 90(TM) system (copyright 1990, Gaussian, Inc.),
 the Gaussian 88(TM) system (copyright 1988, Gaussian, Inc.),
 the Gaussian 86(TM) system (copyright 1986, Carnegie Mellon
 University), and the Gaussian 82(TM) system (copyright 1983,
 Carnegie Mellon University). Gaussian is a federally registered
 trademark of Gaussian, Inc.
  
 This software contains proprietary and confidential information,
 including trade secrets, belonging to Gaussian, Inc.
  
 This software is provided under written license and may be
 used, copied, transmitted, or stored only in accord with that
 written license.
  
 The following legend is applicable only to US Government
 contracts under FAR:
  
                    RESTRICTED RIGHTS LEGEND
  
 Use, reproduction and disclosure by the US Government is
 subject to restrictions as set forth in subparagraphs (a)
 and (c) of the Commercial Computer Software - Restricted
 Rights clause in FAR 52.227-19.
  
 Gaussian, Inc.
 340 Quinnipiac St., Bldg. 40, Wallingford CT 06492
  
  
 ---------------------------------------------------------------
 Warning -- This program may not be used in any manner that
 competes with the business of Gaussian, Inc. or will provide
 assistance to any competitor of Gaussian, Inc.  The licensee
 of this program is prohibited from giving any competitor of
 Gaussian, Inc. access to this program.  By using this program,
 the user acknowledges that Gaussian, Inc. is engaged in the
 business of creating and licensing software in the field of
 computational chemistry and represents and warrants to the
 licensee that it is not a competitor of Gaussian, Inc. and that
 it will not use this program in any manner prohibited above.
 ---------------------------------------------------------------
  

 Cite this work as:
 Gaussian 16, Revision C.01,
 M. J. Frisch, G. W. Trucks, H. B. Schlegel, G. E. Scuseria, 
 M. A. Robb, J. R. Cheeseman, G. Scalmani, V. Barone, 
 G. A. Petersson, H. Nakatsuji, X. Li, M. Caricato, A. V. Marenich, 
 J. Bloino, B. G. Janesko, R. Gomperts, B. Mennucci, H. P. Hratchian, 
 J. V. Ortiz, A. F. Izmaylov, J. L. Sonnenberg, D. Williams-Young, 
 F. Ding, F. Lipparini, F. Egidi, J. Goings, B. Peng, A. Petrone, 
 T. Henderson, D. Ranasinghe, V. G. Zakrzewski, J. Gao, N. Rega, 
 G. Zheng, W. Liang, M. Hada, M. Ehara, K. Toyota, R. Fukuda, 
 J. Hasegawa, M. Ishida, T. Nakajima, Y. Honda, O. Kitao, H. Nakai, 
 T. Vreven, K. Throssell, J. A. Montgomery, Jr., J. E. Peralta, 
 F. Ogliaro, M. J. Bearpark, J. J. Heyd, E. N. Brothers, K. N. Kudin, 
 V. N. Staroverov, T. A. Keith, R. Kobayashi, J. Normand, 
 K. Raghavachari, A. P. Rendell, J. C. Burant, S. S. Iyengar, 
 J. Tomasi, M. Cossi, J. M. Millam, M. Klene, C. Adamo, R. Cammi, 
 J. W. Ochterski, R. L. Martin, K. Morokuma, O. Farkas, 
 J. B. Foresman, and D. J. Fox, Gaussian, Inc., Wallingford CT, 2019.
 
 ******************************************
 Gaussian 16:  ES64L-G16RevC.01  3-Jul-2019
                 2-Jun-2022 
 ******************************************
 %mem=8gb
 %nproc=4
 Will use up to    4 processors via shared memory.
 %chk=conf-34.chk
 ----------------------------------------------------------------------
 # B3LYP/6-31G* empiricaldispersion=gd3 guess=read geom=check nosymm in
 tegral(ultrafinegrid)
 ----------------------------------------------------------------------
 1/29=2,38=1,172=1/1;
 2/12=2,15=1,40=1/2;
 3/5=1,6=6,7=1,11=2,14=-4,25=1,30=1,74=-5,75=-5,116=-2,124=31/1,2,3;
 4/5=1/1;
 5/5=2,38=6/2;
 6/7=2,8=2,9=2,10=2,28=1/1;
 99/5=1,9=1/99;
 -----------------------------------------------------
 Candidate Structure: Conf:34 Charge calc in gas phase
 -----------------------------------------------------
 Structure from the checkpoint file:  "conf-34.chk"
 Charge =  1 Multiplicity = 1
 Redundant internal coordinates found in file.  (old form).
 N,0,-3.9955143986,4.3068909405,1.8588503565
 H,0,-4.4063817153,5.2366405303,1.9104579308
 H,0,-3.2841177829,4.2427139275,2.5847006767
 C,0,-3.3862313828,4.1003136351,0.5501152877
 H,0,-4.1791139292,4.160171596,-0.2008514976
 C,0,-2.7968144896,2.6929736446,0.5749349702
 C,0,-2.2691812683,5.1062405974,0.1419013985
 H,0,-2.7031602781,6.1114097578,0.2022914431
 H,0,-1.4699611029,5.0519382913,0.8911619452
 O,0,-2.0229162928,2.3483776507,1.4879788457
 C,0,-1.7324097771,4.8293079362,-1.2440013054
 C,0,-0.5672988858,4.0740803143,-1.4208761255
 H,0,-0.0090640354,3.7420064465,-0.5500165517
 C,0,-2.4457612085,5.2426774484,-2.3788400257
 H,0,-3.3459806626,5.8420632612,-2.2583864599
 C,0,-0.1274830265,3.7249403659,-2.6988949129
 H,0,0.7781404319,3.1350949266,-2.8095662679
 C,0,-2.0076467561,4.9002719249,-3.6589866011
 H,0,-2.5648993688,5.2368735189,-4.528793461
 C,0,-0.8487912405,4.1348280536,-3.8217943639
 H,0,-0.5050084032,3.8726936339,-4.8183620303
 N,0,-3.0947429493,1.7970393912,-0.3903532541
 C,0,-2.551706038,0.4441156373,-0.2557343936
 H,0,-3.0478724584,-0.0808978191,0.5706098041
 C,0,-1.081900301,0.4564361814,0.0387442756
 C,0,-2.8558788824,-0.2132360434,-1.6268804678
 H,0,-2.0374457591,-0.0025929322,-2.3229671449
 H,0,-2.9734306186,-1.2957184793,-1.5408012465
 O,0,-0.266570681,1.0817809147,-0.7763692
 C,0,-4.1322977787,0.5190750135,-2.0728821459
 H,0,-4.2997717417,0.4399426862,-3.1494582772
 H,0,-5.0067127203,0.1041171536,-1.5602477793
 C,0,-3.8909193154,1.9656201714,-1.6254363859
 H,0,-4.8197121924,2.4974614365,-1.4114632161
 H,0,-3.3129585306,2.5393213899,-2.3569148346
 N,0,-0.4576533267,-0.2488274094,0.9471020748
 H,0,-0.934336335,-0.7171431107,1.708632844
 C,0,1.0044028769,-0.1135681993,0.8512924737
 H,0,1.3756300363,0.407749311,1.7381021523
 C,0,1.1106305093,0.8462309458,-0.324194293
 C,0,1.7261308082,-1.4541392037,0.6207683416
 H,0,1.3880730172,-1.8922218713,-0.3266981896
 H,0,1.4108975499,-2.1381183869,1.4192123853
 O,0,2.0170964167,1.3038013928,-0.9232246665
 C,0,3.2539008971,-1.3070696903,0.637944469
 H,0,3.5674001337,-0.6049773632,-0.1435818937
 H,0,3.5603305717,-0.8652920611,1.5965606759
 C,0,3.9543854352,-2.6568255754,0.4449328735
 H,0,3.6516512786,-3.0907796986,-0.5197528092
 H,0,3.63940982,-3.3672332503,1.2194441909
 C,0,5.4815756794,-2.542032405,0.4892194188
 H,0,5.8113370628,-1.8076126087,-0.2699736075
 H,0,5.7797106335,-2.1357677584,1.4643362404
 N,0,6.0850138161,-3.8685266797,0.3547116262
 H,0,7.0870427584,-3.8175927066,0.5270062292
 H,0,5.979290113,-4.2043158122,-0.6017202783
 O,0,0.6828854708,2.6343599186,1.6179897158
 H,0,-0.2656211165,2.8117763121,1.7731924245
 H,0,1.1345984334,3.4893166471,1.6683823169
 Recover connectivity data from disk.
                           ----------------------------
                           !    Current Parameters    !
                           ! (Angstroms and Degrees)  !
 --------------------------                            --------------------------
 ! Name  Definition              Value                                          !
 --------------------------------------------------------------------------------
 ! R1    R(1,2)                  1.0178                                         !
 ! R2    R(1,3)                  1.0184                                         !
 ! R3    R(1,4)                  1.4583                                         !
 ! R4    R(4,5)                  1.0937                                         !
 ! R5    R(4,6)                  1.526                                          !
 ! R6    R(4,7)                  1.5577                                         !
 ! R7    R(6,10)                 1.2455                                         !
 ! R8    R(6,22)                 1.3503                                         !
 ! R9    R(7,8)                  1.0965                                         !
 ! R10   R(7,9)                  1.0969                                         !
 ! R11   R(7,11)                 1.5118                                         !
 ! R12   R(11,12)                1.3997                                         !
 ! R13   R(11,14)                1.4027                                         !
 ! R14   R(12,13)                1.0864                                         !
 ! R15   R(12,16)                1.3959                                         !
 ! R16   R(14,15)                1.0882                                         !
 ! R17   R(14,18)                1.3957                                         !
 ! R18   R(16,17)                1.0864                                         !
 ! R19   R(16,20)                1.3961                                         !
 ! R20   R(18,19)                1.0865                                         !
 ! R21   R(18,20)                1.3983                                         !
 ! R22   R(20,21)                1.0863                                         !
 ! R23   R(22,23)                1.464                                          !
 ! R24   R(22,33)                1.4791                                         !
 ! R25   R(23,24)                1.0976                                         !
 ! R26   R(23,25)                1.4991                                         !
 ! R27   R(23,26)                1.5507                                         !
 ! R28   R(25,29)                1.3116                                         !
 ! R29   R(25,36)                1.3085                                         !
 ! R30   R(26,27)                1.0949                                         !
 ! R31   R(26,28)                1.0922                                         !
 ! R32   R(26,30)                1.5377                                         !
 ! R33   R(30,31)                1.0924                                         !
 ! R34   R(30,32)                1.0953                                         !
 ! R35   R(30,33)                1.5333                                         !
 ! R36   R(33,34)                1.0915                                         !
 ! R37   R(33,35)                1.0946                                         !
 ! R38   R(36,37)                1.0132                                         !
 ! R39   R(36,38)                1.4714                                         !
 ! R40   R(38,39)                1.0936                                         !
 ! R41   R(38,40)                1.5213                                         !
 ! R42   R(38,41)                1.5399                                         !
 ! R43   R(40,44)                1.1789                                         !
 ! R44   R(40,57)                2.6744                                         !
 ! R45   R(41,42)                1.0972                                         !
 ! R46   R(41,43)                1.0976                                         !
 ! R47   R(41,45)                1.5349                                         !
 ! R48   R(45,46)                1.0964                                         !
 ! R49   R(45,47)                1.0991                                         !
 ! R50   R(45,48)                1.5329                                         !
 ! R51   R(48,49)                1.1003                                         !
 ! R52   R(48,50)                1.0972                                         !
 ! R53   R(48,51)                1.5321                                         !
 ! R54   R(51,52)                1.1066                                         !
 ! R55   R(51,53)                1.0976                                         !
 ! R56   R(51,54)                1.4635                                         !
 ! R57   R(54,55)                1.018                                          !
 ! R58   R(54,56)                1.0192                                         !
 ! R59   R(57,58)                0.9774                                         !
 ! R60   R(57,59)                0.9683                                         !
 ! A1    A(2,1,3)              107.6636                                         !
 ! A2    A(2,1,4)              110.0941                                         !
 ! A3    A(3,1,4)              109.8077                                         !
 ! A4    A(1,4,5)              107.7919                                         !
 ! A5    A(1,4,6)              106.1063                                         !
 ! A6    A(1,4,7)              116.3161                                         !
 ! A7    A(5,4,6)              109.9778                                         !
 ! A8    A(5,4,7)              107.7339                                         !
 ! A9    A(6,4,7)              108.8353                                         !
 ! A10   A(4,6,10)             120.4694                                         !
 ! A11   A(4,6,22)             121.0028                                         !
 ! A12   A(10,6,22)            118.5272                                         !
 ! A13   A(4,7,8)              107.0816                                         !
 ! A14   A(4,7,9)              108.1524                                         !
 ! A15   A(4,7,11)             112.1212                                         !
 ! A16   A(8,7,9)              107.2262                                         !
 ! A17   A(8,7,11)             111.0346                                         !
 ! A18   A(9,7,11)             111.0041                                         !
 ! A19   A(7,11,12)            120.6792                                         !
 ! A20   A(7,11,14)            120.4717                                         !
 ! A21   A(12,11,14)           118.6914                                         !
 ! A22   A(11,12,13)           119.4291                                         !
 ! A23   A(11,12,16)           120.8576                                         !
 ! A24   A(13,12,16)           119.7049                                         !
 ! A25   A(11,14,15)           119.5689                                         !
 ! A26   A(11,14,18)           120.6718                                         !
 ! A27   A(15,14,18)           119.758                                          !
 ! A28   A(12,16,17)           119.4514                                         !
 ! A29   A(12,16,20)           120.0091                                         !
 ! A30   A(17,16,20)           120.5394                                         !
 ! A31   A(14,18,19)           119.8214                                         !
 ! A32   A(14,18,20)           120.0812                                         !
 ! A33   A(19,18,20)           120.0955                                         !
 ! A34   A(16,20,18)           119.6848                                         !
 ! A35   A(16,20,21)           120.2321                                         !
 ! A36   A(18,20,21)           120.0777                                         !
 ! A37   A(6,22,23)            117.7482                                         !
 ! A38   A(6,22,33)            129.7983                                         !
 ! A39   A(23,22,33)           112.4429                                         !
 ! A40   A(22,23,24)           110.0956                                         !
 ! A41   A(22,23,25)           111.9715                                         !
 ! A42   A(22,23,26)           103.7493                                         !
 ! A43   A(24,23,25)           107.4137                                         !
 ! A44   A(24,23,26)           111.9788                                         !
 ! A45   A(25,23,26)           111.685                                          !
 ! A46   A(23,25,29)           119.4289                                         !
 ! A47   A(23,25,36)           126.848                                          !
 ! A48   A(29,25,36)           113.0691                                         !
 ! A49   A(23,26,27)           109.5101                                         !
 ! A50   A(23,26,28)           111.8109                                         !
 ! A51   A(23,26,30)           102.5567                                         !
 ! A52   A(27,26,28)           108.7372                                         !
 ! A53   A(27,26,30)           110.1501                                         !
 ! A54   A(28,26,30)           113.9231                                         !
 ! A55   A(26,30,31)           112.2477                                         !
 ! A56   A(26,30,32)           110.2752                                         !
 ! A57   A(26,30,33)           103.5317                                         !
 ! A58   A(31,30,32)           108.1455                                         !
 ! A59   A(31,30,33)           112.3381                                         !
 ! A60   A(32,30,33)           110.2753                                         !
 ! A61   A(22,33,30)           102.7613                                         !
 ! A62   A(22,33,34)           110.4809                                         !
 ! A63   A(22,33,35)           109.4824                                         !
 ! A64   A(30,33,34)           112.5168                                         !
 ! A65   A(30,33,35)           112.4927                                         !
 ! A66   A(34,33,35)           108.9609                                         !
 ! A67   A(25,36,37)           123.125                                          !
 ! A68   A(25,36,38)           112.2893                                         !
 ! A69   A(37,36,38)           123.9821                                         !
 ! A70   A(36,38,39)           109.1659                                         !
 ! A71   A(36,38,40)           100.2355                                         !
 ! A72   A(36,38,41)           113.2931                                         !
 ! A73   A(39,38,40)           107.585                                          !
 ! A74   A(39,38,41)           112.166                                          !
 ! A75   A(40,38,41)           113.632                                          !
 ! A76   A(38,40,44)           133.7237                                         !
 ! A77   A(38,40,57)            81.3456                                         !
 ! A78   A(44,40,57)           103.4426                                         !
 ! A79   A(38,41,42)           109.418                                          !
 ! A80   A(38,41,43)           107.3975                                         !
 ! A81   A(38,41,45)           112.4218                                         !
 ! A82   A(42,41,43)           106.9099                                         !
 ! A83   A(42,41,45)           110.768                                          !
 ! A84   A(43,41,45)           109.7205                                         !
 ! A85   A(41,45,46)           109.7547                                         !
 ! A86   A(41,45,47)           109.0125                                         !
 ! A87   A(41,45,48)           111.6576                                         !
 ! A88   A(46,45,47)           106.5353                                         !
 ! A89   A(46,45,48)           110.0874                                         !
 ! A90   A(47,45,48)           109.6541                                         !
 ! A91   A(45,48,49)           109.3873                                         !
 ! A92   A(45,48,50)           110.4914                                         !
 ! A93   A(45,48,51)           112.6984                                         !
 ! A94   A(49,48,50)           106.5331                                         !
 ! A95   A(49,48,51)           109.2173                                         !
 ! A96   A(50,48,51)           108.3164                                         !
 ! A97   A(48,51,52)           109.0829                                         !
 ! A98   A(48,51,53)           108.9141                                         !
 ! A99   A(48,51,54)           109.903                                          !
 ! A100  A(52,51,53)           106.4338                                         !
 ! A101  A(52,51,54)           114.5591                                         !
 ! A102  A(53,51,54)           107.7664                                         !
 ! A103  A(51,54,55)           110.1787                                         !
 ! A104  A(51,54,56)           110.0055                                         !
 ! A105  A(55,54,56)           106.1064                                         !
 ! A106  A(40,57,58)           113.0734                                         !
 ! A107  A(40,57,59)           123.6107                                         !
 ! A108  A(58,57,59)           106.5109                                         !
 ! D1    D(2,1,4,5)            -62.5067                                         !
 ! D2    D(2,1,4,6)            179.7092                                         !
 ! D3    D(2,1,4,7)             58.5308                                         !
 ! D4    D(3,1,4,5)            179.1225                                         !
 ! D5    D(3,1,4,6)             61.3384                                         !
 ! D6    D(3,1,4,7)            -59.84                                           !
 ! D7    D(1,4,6,10)           -52.8775                                         !
 ! D8    D(1,4,6,22)           127.4259                                         !
 ! D9    D(5,4,6,10)          -169.1973                                         !
 ! D10   D(5,4,6,22)            11.1062                                         !
 ! D11   D(7,4,6,10)            72.9991                                         !
 ! D12   D(7,4,6,22)          -106.6974                                         !
 ! D13   D(1,4,7,8)            -56.3441                                         !
 ! D14   D(1,4,7,9)             58.9197                                         !
 ! D15   D(1,4,7,11)          -178.3658                                         !
 ! D16   D(5,4,7,8)             64.7243                                         !
 ! D17   D(5,4,7,9)            179.9881                                         !
 ! D18   D(5,4,7,11)           -57.2974                                         !
 ! D19   D(6,4,7,8)           -176.0611                                         !
 ! D20   D(6,4,7,9)            -60.7973                                         !
 ! D21   D(6,4,7,11)            61.9172                                         !
 ! D22   D(4,6,22,23)         -176.5552                                         !
 ! D23   D(4,6,22,33)            4.7283                                         !
 ! D24   D(10,6,22,23)           3.7425                                         !
 ! D25   D(10,6,22,33)        -174.974                                          !
 ! D26   D(4,7,11,12)          -96.4482                                         !
 ! D27   D(4,7,11,14)           78.9284                                         !
 ! D28   D(8,7,11,12)          143.8143                                         !
 ! D29   D(8,7,11,14)          -40.8092                                         !
 ! D30   D(9,7,11,12)           24.6366                                         !
 ! D31   D(9,7,11,14)         -159.9868                                         !
 ! D32   D(7,11,12,13)          -4.1396                                         !
 ! D33   D(7,11,12,16)         174.8029                                         !
 ! D34   D(14,11,12,13)       -179.5971                                         !
 ! D35   D(14,11,12,16)         -0.6546                                         !
 ! D36   D(7,11,14,15)           5.3728                                         !
 ! D37   D(7,11,14,18)        -175.0436                                         !
 ! D38   D(12,11,14,15)       -179.1599                                         !
 ! D39   D(12,11,14,18)          0.4237                                         !
 ! D40   D(11,12,16,17)       -179.7841                                         !
 ! D41   D(11,12,16,20)          0.2992                                         !
 ! D42   D(13,12,16,17)         -0.8446                                         !
 ! D43   D(13,12,16,20)        179.2387                                         !
 ! D44   D(11,14,18,19)       -179.3412                                         !
 ! D45   D(11,14,18,20)          0.1617                                         !
 ! D46   D(15,14,18,19)          0.2416                                         !
 ! D47   D(15,14,18,20)        179.7445                                         !
 ! D48   D(12,16,20,18)          0.2965                                         !
 ! D49   D(12,16,20,21)        179.4546                                         !
 ! D50   D(17,16,20,18)       -179.6192                                         !
 ! D51   D(17,16,20,21)         -0.4612                                         !
 ! D52   D(14,18,20,16)         -0.5246                                         !
 ! D53   D(14,18,20,21)       -179.6839                                         !
 ! D54   D(19,18,20,16)        178.9769                                         !
 ! D55   D(19,18,20,21)         -0.1824                                         !
 ! D56   D(6,22,23,24)          70.2345                                         !
 ! D57   D(6,22,23,25)         -49.187                                          !
 ! D58   D(6,22,23,26)        -169.7785                                         !
 ! D59   D(33,22,23,24)       -110.8324                                         !
 ! D60   D(33,22,23,25)        129.7461                                         !
 ! D61   D(33,22,23,26)          9.1546                                         !
 ! D62   D(6,22,33,30)        -166.2815                                         !
 ! D63   D(6,22,33,34)         -46.0337                                         !
 ! D64   D(6,22,33,35)          73.9695                                         !
 ! D65   D(23,22,33,30)         14.9475                                         !
 ! D66   D(23,22,33,34)        135.1953                                         !
 ! D67   D(23,22,33,35)       -104.8015                                         !
 ! D68   D(22,23,25,29)        -56.0566                                         !
 ! D69   D(22,23,25,36)        133.89                                           !
 ! D70   D(24,23,25,29)       -177.0427                                         !
 ! D71   D(24,23,25,36)         12.9039                                         !
 ! D72   D(26,23,25,29)         59.8073                                         !
 ! D73   D(26,23,25,36)       -110.2461                                         !
 ! D74   D(22,23,26,27)         87.5988                                         !
 ! D75   D(22,23,26,28)       -151.8128                                         !
 ! D76   D(22,23,26,30)        -29.3592                                         !
 ! D77   D(24,23,26,27)       -153.7027                                         !
 ! D78   D(24,23,26,28)        -33.1143                                         !
 ! D79   D(24,23,26,30)         89.3392                                         !
 ! D80   D(25,23,26,27)        -33.186                                          !
 ! D81   D(25,23,26,28)         87.4024                                         !
 ! D82   D(25,23,26,30)       -150.1441                                         !
 ! D83   D(23,25,36,37)        -15.7012                                         !
 ! D84   D(23,25,36,38)        172.8948                                         !
 ! D85   D(29,25,36,37)        173.71                                           !
 ! D86   D(29,25,36,38)          2.3059                                         !
 ! D87   D(23,26,30,31)        160.1748                                         !
 ! D88   D(23,26,30,32)        -79.1733                                         !
 ! D89   D(23,26,30,33)         38.788                                          !
 ! D90   D(27,26,30,31)         43.675                                          !
 ! D91   D(27,26,30,32)        164.327                                          !
 ! D92   D(27,26,30,33)        -77.7118                                         !
 ! D93   D(28,26,30,31)        -78.8122                                         !
 ! D94   D(28,26,30,32)         41.8398                                         !
 ! D95   D(28,26,30,33)        159.801                                          !
 ! D96   D(26,30,33,22)        -33.0288                                         !
 ! D97   D(26,30,33,34)       -151.8614                                         !
 ! D98   D(26,30,33,35)         84.6103                                         !
 ! D99   D(31,30,33,22)       -154.3548                                         !
 ! D100  D(31,30,33,34)         86.8126                                         !
 ! D101  D(31,30,33,35)        -36.7157                                         !
 ! D102  D(32,30,33,22)         84.9324                                         !
 ! D103  D(32,30,33,34)        -33.9003                                         !
 ! D104  D(32,30,33,35)       -157.4286                                         !
 ! D105  D(25,36,38,39)        113.1361                                         !
 ! D106  D(25,36,38,40)          0.3195                                         !
 ! D107  D(25,36,38,41)       -121.0952                                         !
 ! D108  D(37,36,38,39)        -58.1816                                         !
 ! D109  D(37,36,38,40)       -170.9981                                         !
 ! D110  D(37,36,38,41)         67.5872                                         !
 ! D111  D(36,38,40,44)       -176.6084                                         !
 ! D112  D(36,38,40,57)         83.033                                          !
 ! D113  D(39,38,40,44)         69.3628                                         !
 ! D114  D(39,38,40,57)        -30.9959                                         !
 ! D115  D(41,38,40,44)        -55.4356                                         !
 ! D116  D(41,38,40,57)       -155.7943                                         !
 ! D117  D(36,38,41,42)         61.1422                                         !
 ! D118  D(36,38,41,43)        -54.5571                                         !
 ! D119  D(36,38,41,45)       -175.3418                                         !
 ! D120  D(39,38,41,42)       -174.7079                                         !
 ! D121  D(39,38,41,43)         69.5928                                         !
 ! D122  D(39,38,41,45)        -51.1919                                         !
 ! D123  D(40,38,41,42)        -52.4078                                         !
 ! D124  D(40,38,41,43)       -168.1071                                         !
 ! D125  D(40,38,41,45)         71.1082                                         !
 ! D126  D(38,40,57,58)        -88.931                                          !
 ! D127  D(38,40,57,59)        140.2206                                         !
 ! D128  D(44,40,57,58)        138.0333                                         !
 ! D129  D(44,40,57,59)          7.1848                                         !
 ! D130  D(38,41,45,46)        -59.1837                                         !
 ! D131  D(38,41,45,47)         57.1499                                         !
 ! D132  D(38,41,45,48)        178.455                                          !
 ! D133  D(42,41,45,46)         63.5758                                         !
 ! D134  D(42,41,45,47)        179.9094                                         !
 ! D135  D(42,41,45,48)        -58.7855                                         !
 ! D136  D(43,41,45,46)       -178.6235                                         !
 ! D137  D(43,41,45,47)        -62.2899                                         !
 ! D138  D(43,41,45,48)         59.0152                                         !
 ! D139  D(41,45,48,49)         59.5748                                         !
 ! D140  D(41,45,48,50)        -57.3978                                         !
 ! D141  D(41,45,48,51)       -178.7283                                         !
 ! D142  D(46,45,48,49)        -62.5956                                         !
 ! D143  D(46,45,48,50)       -179.5682                                         !
 ! D144  D(46,45,48,51)         59.1014                                         !
 ! D145  D(47,45,48,49)       -179.493                                          !
 ! D146  D(47,45,48,50)         63.5344                                         !
 ! D147  D(47,45,48,51)        -57.7961                                         !
 ! D148  D(45,48,51,52)        -55.9636                                         !
 ! D149  D(45,48,51,53)         59.8207                                         !
 ! D150  D(45,48,51,54)        177.667                                          !
 ! D151  D(49,48,51,52)         65.8296                                         !
 ! D152  D(49,48,51,53)       -178.3861                                         !
 ! D153  D(49,48,51,54)        -60.5399                                         !
 ! D154  D(50,48,51,52)       -178.5228                                         !
 ! D155  D(50,48,51,53)        -62.7384                                         !
 ! D156  D(50,48,51,54)         55.1078                                         !
 ! D157  D(48,51,54,55)       -171.2704                                         !
 ! D158  D(48,51,54,56)         72.0921                                         !
 ! D159  D(52,51,54,55)         65.5176                                         !
 ! D160  D(52,51,54,56)        -51.1199                                         !
 ! D161  D(53,51,54,55)        -52.7146                                         !
 ! D162  D(53,51,54,56)       -169.3521                                         !
 --------------------------------------------------------------------------------
 Symmetry turned off by external request.
 Stoichiometry    C20H31N4O4(1+)
 Framework group  C1[X(C20H31N4O4)]
 Deg. of freedom   171
 Full point group                 C1      NOp   1
                          Input orientation:                          
 ---------------------------------------------------------------------
 Center     Atomic      Atomic             Coordinates (Angstroms)
 Number     Number       Type             X           Y           Z
 ---------------------------------------------------------------------
      1          7           0       -3.995514    4.306891    1.858850
      2          1           0       -4.406382    5.236641    1.910458
      3          1           0       -3.284118    4.242714    2.584701
      4          6           0       -3.386231    4.100314    0.550115
      5          1           0       -4.179114    4.160172   -0.200851
      6          6           0       -2.796814    2.692974    0.574935
      7          6           0       -2.269181    5.106241    0.141901
      8          1           0       -2.703160    6.111410    0.202291
      9          1           0       -1.469961    5.051938    0.891162
     10          8           0       -2.022916    2.348378    1.487979
     11          6           0       -1.732410    4.829308   -1.244001
     12          6           0       -0.567299    4.074080   -1.420876
     13          1           0       -0.009064    3.742006   -0.550017
     14          6           0       -2.445761    5.242677   -2.378840
     15          1           0       -3.345981    5.842063   -2.258386
     16          6           0       -0.127483    3.724940   -2.698895
     17          1           0        0.778140    3.135095   -2.809566
     18          6           0       -2.007647    4.900272   -3.658987
     19          1           0       -2.564899    5.236874   -4.528793
     20          6           0       -0.848791    4.134828   -3.821794
     21          1           0       -0.505008    3.872694   -4.818362
     22          7           0       -3.094743    1.797039   -0.390353
     23          6           0       -2.551706    0.444116   -0.255734
     24          1           0       -3.047872   -0.080898    0.570610
     25          6           0       -1.081900    0.456436    0.038744
     26          6           0       -2.855879   -0.213236   -1.626880
     27          1           0       -2.037446   -0.002593   -2.322967
     28          1           0       -2.973431   -1.295718   -1.540801
     29          8           0       -0.266571    1.081781   -0.776369
     30          6           0       -4.132298    0.519075   -2.072882
     31          1           0       -4.299772    0.439943   -3.149458
     32          1           0       -5.006713    0.104117   -1.560248
     33          6           0       -3.890919    1.965620   -1.625436
     34          1           0       -4.819712    2.497461   -1.411463
     35          1           0       -3.312959    2.539321   -2.356915
     36          7           0       -0.457653   -0.248827    0.947102
     37          1           0       -0.934336   -0.717143    1.708633
     38          6           0        1.004403   -0.113568    0.851292
     39          1           0        1.375630    0.407749    1.738102
     40          6           0        1.110631    0.846231   -0.324194
     41          6           0        1.726131   -1.454139    0.620768
     42          1           0        1.388073   -1.892222   -0.326698
     43          1           0        1.410898   -2.138118    1.419212
     44          8           0        2.017096    1.303801   -0.923225
     45          6           0        3.253901   -1.307070    0.637944
     46          1           0        3.567400   -0.604977   -0.143582
     47          1           0        3.560331   -0.865292    1.596561
     48          6           0        3.954385   -2.656826    0.444933
     49          1           0        3.651651   -3.090780   -0.519753
     50          1           0        3.639410   -3.367233    1.219444
     51          6           0        5.481576   -2.542032    0.489219
     52          1           0        5.811337   -1.807613   -0.269974
     53          1           0        5.779711   -2.135768    1.464336
     54          7           0        6.085014   -3.868527    0.354712
     55          1           0        7.087043   -3.817593    0.527006
     56          1           0        5.979290   -4.204316   -0.601720
     57          8           0        0.682885    2.634360    1.617990
     58          1           0       -0.265621    2.811776    1.773192
     59          1           0        1.134598    3.489317    1.668382
 ---------------------------------------------------------------------
 Rotational constants (GHZ):           0.3057702           0.0905243           0.0866321
 Standard basis: 6-31G(d) (6D, 7F)
   482 basis functions,   908 primitive gaussians,   482 cartesian basis functions
   105 alpha electrons      105 beta electrons
       nuclear repulsion energy      2860.4503155868 Hartrees.
 NAtoms=   59 NActive=   59 NUniq=   59 SFac= 1.00D+00 NAtFMM=   60 NAOKFM=F Big=F
 Integral buffers will be    131072 words long.
 Raffenetti 2 integral format.
 Two-electron integral symmetry is turned off.
 Nuclear repulsion after empirical dispersion term =     2860.3757561489 Hartrees.
 One-electron integrals computed using PRISM.
 NBasis=   482 RedAO= T EigKep=  4.48D-04  NBF=   482
 NBsUse=   482 1.00D-06 EigRej= -1.00D+00 NBFU=   482
 Initial guess from the checkpoint file:  "conf-34.chk"
 B after Tr=     0.000000    0.000000    0.000000
         Rot=    1.000000    0.000000    0.000000    0.000000 Ang=   0.00 deg.
 Requested convergence on RMS density matrix=1.00D-08 within 128 cycles.
 Requested convergence on MAX density matrix=1.00D-06.
 Requested convergence on             energy=1.00D-06.
 No special actions if energy rises.
 SCF Done:  E(RB3LYP) =  -1300.56501962     A.U. after    1 cycles
            NFock=  1  Conv=0.58D-08     -V/T= 2.0094

 **********************************************************************

            Population analysis using the SCF Density.

 **********************************************************************

 Alpha  occ. eigenvalues --  -19.38175 -19.31425 -19.25834 -19.25664 -14.56841
 Alpha  occ. eigenvalues --  -14.50919 -14.41826 -14.37950 -10.50017 -10.48659
 Alpha  occ. eigenvalues --  -10.42072 -10.40222 -10.40166 -10.34917 -10.33825
 Alpha  occ. eigenvalues --  -10.33777 -10.32847 -10.32013 -10.29355 -10.29182
 Alpha  occ. eigenvalues --  -10.28956 -10.28281 -10.28006 -10.27907 -10.27840
 Alpha  occ. eigenvalues --  -10.27783 -10.27739 -10.26858  -1.30685  -1.22047
 Alpha  occ. eigenvalues --   -1.17830  -1.13175  -1.11345  -1.08651  -0.99677
 Alpha  occ. eigenvalues --   -0.96696  -0.94971  -0.94610  -0.93422  -0.90986
 Alpha  occ. eigenvalues --   -0.87647  -0.87118  -0.83375  -0.82414  -0.81939
 Alpha  occ. eigenvalues --   -0.81141  -0.78699  -0.78012  -0.75110  -0.74037
 Alpha  occ. eigenvalues --   -0.72352  -0.70952  -0.69579  -0.67902  -0.67384
 Alpha  occ. eigenvalues --   -0.66828  -0.66611  -0.64806  -0.64677  -0.63729
 Alpha  occ. eigenvalues --   -0.62653  -0.60511  -0.60337  -0.59407  -0.58785
 Alpha  occ. eigenvalues --   -0.58053  -0.57829  -0.56603  -0.56457  -0.55927
 Alpha  occ. eigenvalues --   -0.55423  -0.55062  -0.54825  -0.54550  -0.53999
 Alpha  occ. eigenvalues --   -0.53891  -0.53089  -0.51737  -0.51596  -0.50813
 Alpha  occ. eigenvalues --   -0.50732  -0.50005  -0.49460  -0.49147  -0.48946
 Alpha  occ. eigenvalues --   -0.48726  -0.47991  -0.47585  -0.46670  -0.46379
 Alpha  occ. eigenvalues --   -0.45889  -0.44708  -0.44577  -0.43532  -0.43193
 Alpha  occ. eigenvalues --   -0.43071  -0.42518  -0.41660  -0.41139  -0.39540
 Alpha  occ. eigenvalues --   -0.38662  -0.34993  -0.33951  -0.32661  -0.30229
 Alpha virt. eigenvalues --   -0.19799  -0.14471  -0.12084  -0.09448  -0.09171
 Alpha virt. eigenvalues --   -0.07700  -0.04934  -0.04311  -0.03102  -0.02362
 Alpha virt. eigenvalues --   -0.01586  -0.00478   0.00069   0.00577   0.00854
 Alpha virt. eigenvalues --    0.01350   0.01426   0.02400   0.02797   0.03234
 Alpha virt. eigenvalues --    0.03622   0.03999   0.04549   0.05012   0.05223
 Alpha virt. eigenvalues --    0.05340   0.05826   0.06198   0.06787   0.07267
 Alpha virt. eigenvalues --    0.07785   0.08017   0.08351   0.08597   0.08984
 Alpha virt. eigenvalues --    0.09133   0.09660   0.10030   0.10471   0.10759
 Alpha virt. eigenvalues --    0.11220   0.11429   0.11819   0.12146   0.12739
 Alpha virt. eigenvalues --    0.12936   0.13750   0.14280   0.14538   0.15059
 Alpha virt. eigenvalues --    0.15981   0.16529   0.16937   0.17667   0.20377
 Alpha virt. eigenvalues --    0.21217   0.22026   0.22631   0.23193   0.24442
 Alpha virt. eigenvalues --    0.25186   0.25898   0.26641   0.29740   0.32964
 Alpha virt. eigenvalues --    0.35994   0.36331   0.36706   0.37853   0.38243
 Alpha virt. eigenvalues --    0.38869   0.39715   0.41059   0.41752   0.43125
 Alpha virt. eigenvalues --    0.43373   0.43442   0.44064   0.45027   0.45356
 Alpha virt. eigenvalues --    0.45860   0.46402   0.46831   0.47650   0.47786
 Alpha virt. eigenvalues --    0.48283   0.48738   0.49785   0.50200   0.50754
 Alpha virt. eigenvalues --    0.51272   0.51652   0.51882   0.52486   0.53003
 Alpha virt. eigenvalues --    0.53105   0.53760   0.54260   0.54975   0.55627
 Alpha virt. eigenvalues --    0.56008   0.56520   0.57503   0.58313   0.59246
 Alpha virt. eigenvalues --    0.59655   0.60248   0.61249   0.62265   0.62922
 Alpha virt. eigenvalues --    0.63755   0.64848   0.65066   0.66034   0.66870
 Alpha virt. eigenvalues --    0.67131   0.68107   0.68455   0.68650   0.69516
 Alpha virt. eigenvalues --    0.70167   0.70585   0.71923   0.72456   0.73096
 Alpha virt. eigenvalues --    0.73385   0.73794   0.74229   0.74487   0.74614
 Alpha virt. eigenvalues --    0.75074   0.75598   0.75769   0.76149   0.76967
 Alpha virt. eigenvalues --    0.77078   0.78062   0.78476   0.79187   0.79764
 Alpha virt. eigenvalues --    0.79849   0.80614   0.81537   0.81923   0.82142
 Alpha virt. eigenvalues --    0.82549   0.83118   0.83196   0.83947   0.84296
 Alpha virt. eigenvalues --    0.84737   0.85181   0.85739   0.86220   0.86691
 Alpha virt. eigenvalues --    0.87870   0.88380   0.89208   0.89498   0.89876
 Alpha virt. eigenvalues --    0.90131   0.90987   0.91187   0.91941   0.92805
 Alpha virt. eigenvalues --    0.94716   0.95159   0.96618   0.98126   0.98639
 Alpha virt. eigenvalues --    0.99608   1.00229   1.01320   1.02481   1.04104
 Alpha virt. eigenvalues --    1.04358   1.04688   1.05693   1.06316   1.07243
 Alpha virt. eigenvalues --    1.09490   1.12436   1.12972   1.14035   1.15850
 Alpha virt. eigenvalues --    1.17032   1.17338   1.18498   1.20783   1.21177
 Alpha virt. eigenvalues --    1.21956   1.23951   1.26072   1.27168   1.27424
 Alpha virt. eigenvalues --    1.29278   1.30404   1.32559   1.33389   1.34412
 Alpha virt. eigenvalues --    1.34823   1.36533   1.37189   1.37786   1.38448
 Alpha virt. eigenvalues --    1.39425   1.39617   1.40185   1.40652   1.40898
 Alpha virt. eigenvalues --    1.42416   1.43259   1.44117   1.45067   1.46825
 Alpha virt. eigenvalues --    1.47829   1.48123   1.52370   1.53444   1.57091
 Alpha virt. eigenvalues --    1.57646   1.59308   1.59554   1.60665   1.60879
 Alpha virt. eigenvalues --    1.61992   1.63461   1.64520   1.64861   1.66436
 Alpha virt. eigenvalues --    1.66737   1.68289   1.68989   1.69583   1.69922
 Alpha virt. eigenvalues --    1.71039   1.71309   1.72548   1.72953   1.73720
 Alpha virt. eigenvalues --    1.75210   1.76217   1.76541   1.77219   1.78982
 Alpha virt. eigenvalues --    1.79793   1.80095   1.81144   1.81804   1.82586
 Alpha virt. eigenvalues --    1.82914   1.83000   1.83955   1.84327   1.85742
 Alpha virt. eigenvalues --    1.86431   1.87874   1.88977   1.89352   1.89754
 Alpha virt. eigenvalues --    1.90089   1.90513   1.91073   1.92149   1.92483
 Alpha virt. eigenvalues --    1.93110   1.93865   1.94981   1.96508   1.97317
 Alpha virt. eigenvalues --    1.98088   1.99099   1.99481   2.00829   2.02139
 Alpha virt. eigenvalues --    2.02379   2.03223   2.05793   2.06116   2.06395
 Alpha virt. eigenvalues --    2.07308   2.07823   2.09233   2.10892   2.11782
 Alpha virt. eigenvalues --    2.13603   2.14425   2.15289   2.16035   2.17722
 Alpha virt. eigenvalues --    2.18593   2.18948   2.21541   2.21950   2.23485
 Alpha virt. eigenvalues --    2.24263   2.25405   2.26049   2.27427   2.28647
 Alpha virt. eigenvalues --    2.29252   2.29840   2.30888   2.31888   2.33387
 Alpha virt. eigenvalues --    2.34446   2.35412   2.37107   2.37894   2.39122
 Alpha virt. eigenvalues --    2.41093   2.42783   2.43941   2.46534   2.47262
 Alpha virt. eigenvalues --    2.48384   2.48523   2.50331   2.50717   2.51738
 Alpha virt. eigenvalues --    2.52835   2.53001   2.55455   2.56767   2.58014
 Alpha virt. eigenvalues --    2.60885   2.61076   2.62065   2.63854   2.64836
 Alpha virt. eigenvalues --    2.65691   2.66222   2.69128   2.70037   2.70210
 Alpha virt. eigenvalues --    2.72270   2.73031   2.74024   2.75866   2.81625
 Alpha virt. eigenvalues --    2.83944   2.86286   2.88319   2.94133   2.95351
 Alpha virt. eigenvalues --    2.97283   3.09246   3.10747   3.31919   3.67577
 Alpha virt. eigenvalues --    3.70299   3.71500   3.83783   3.92729   4.01645
 Alpha virt. eigenvalues --    4.02952   4.05276   4.06068   4.07261   4.09467
 Alpha virt. eigenvalues --    4.14461   4.17407   4.18916   4.23375   4.24691
 Alpha virt. eigenvalues --    4.25508   4.30406   4.32535   4.33908   4.36130
 Alpha virt. eigenvalues --    4.38068   4.46249   4.48224   4.57368   4.61235
 Alpha virt. eigenvalues --    4.63646   4.66422
          Condensed to atoms (all electrons):
 Mulliken charges:
               1
     1  N   -0.706341
     2  H    0.320975
     3  H    0.317996
     4  C   -0.067261
     5  H    0.159618
     6  C    0.677774
     7  C   -0.367287
     8  H    0.168745
     9  H    0.141854
    10  O   -0.593485
    11  C    0.155901
    12  C   -0.191508
    13  H    0.116811
    14  C   -0.196492
    15  H    0.137881
    16  C   -0.141020
    17  H    0.150248
    18  C   -0.133287
    19  H    0.151934
    20  C   -0.137088
    21  H    0.149905
    22  N   -0.450077
    23  C   -0.030249
    24  H    0.194693
    25  C    0.731294
    26  C   -0.321555
    27  H    0.194295
    28  H    0.190267
    29  O   -0.448177
    30  C   -0.312460
    31  H    0.193705
    32  H    0.182878
    33  C   -0.139731
    34  H    0.195090
    35  H    0.210302
    36  N   -0.613641
    37  H    0.391709
    38  C   -0.043568
    39  H    0.268983
    40  C    0.661728
    41  C   -0.274545
    42  H    0.164020
    43  H    0.172571
    44  O   -0.373326
    45  C   -0.285261
    46  H    0.175144
    47  H    0.152990
    48  C   -0.252561
    49  H    0.135033
    50  H    0.158589
    51  C   -0.137497
    52  H    0.121831
    53  H    0.146682
    54  N   -0.715243
    55  H    0.310330
    56  H    0.299307
    57  O   -0.826458
    58  H    0.440143
    59  H    0.416890
 Sum of Mulliken charges =   1.00000
 Mulliken charges with hydrogens summed into heavy atoms:
               1
     1  N   -0.067370
     4  C    0.092357
     6  C    0.677774
     7  C   -0.056687
    10  O   -0.593485
    11  C    0.155901
    12  C   -0.074698
    14  C   -0.058611
    16  C    0.009228
    18  C    0.018647
    20  C    0.012817
    22  N   -0.450077
    23  C    0.164444
    25  C    0.731294
    26  C    0.063007
    29  O   -0.448177
    30  C    0.064124
    33  C    0.265661
    36  N   -0.221932
    38  C    0.225415
    40  C    0.661728
    41  C    0.062046
    44  O   -0.373326
    45  C    0.042873
    48  C    0.041061
    51  C    0.131016
    54  N   -0.105605
    57  O    0.030575
 Electronic spatial extent (au):  <R**2>=          15324.4297
 Charge=              1.0000 electrons
 Dipole moment (field-independent basis, Debye):
    X=             -5.6245    Y=              4.2352    Z=             -1.0397  Tot=              7.1171
 Quadrupole moment (field-independent basis, Debye-Ang):
   XX=           -113.6427   YY=           -127.8570   ZZ=           -145.9738
   XY=            -24.4852   XZ=             11.4312   YZ=              2.8697
 Traceless Quadrupole moment (field-independent basis, Debye-Ang):
   XX=             15.5151   YY=              1.3009   ZZ=            -16.8160
   XY=            -24.4852   XZ=             11.4312   YZ=              2.8697
 Octapole moment (field-independent basis, Debye-Ang**2):
  XXX=            284.5437  YYY=           -519.9797  ZZZ=            167.0384  XYY=            -48.2128
  XXY=           -218.1854  XXZ=             -1.5890  XZZ=             49.7772  YZZ=           -203.1221
  YYZ=             76.0746  XYZ=             51.4128
 Hexadecapole moment (field-independent basis, Debye-Ang**3):
 XXXX=          -6855.9024 YYYY=          -8267.3408 ZZZZ=          -2394.9047 XXXY=           2181.5031
 XXXZ=           -493.0280 YYYX=           2297.1392 YYYZ=           1349.9669 ZZZX=           -569.3600
 ZZZY=            855.5337 XXYY=          -2365.9629 XXZZ=          -1750.9390 YYZZ=          -1718.0061
 XXYZ=            392.7557 YYXZ=           -305.0699 ZZXY=            863.7199
 N-N= 2.860375756149D+03 E-N=-8.721626605412D+03  KE= 1.288423759808D+03
 Unable to Open any file for archive entry.
 1\1\GINC-AMR-134\SP\RB3LYP\6-31G(d)\C20H31N4O4(1+)\KENGMITH\02-Jun-202
 2\0\\# B3LYP/6-31G* empiricaldispersion=gd3 guess=read geom=check nosy
 mm integral(ultrafinegrid)\\Candidate Structure: Conf:34 Charge calc i
 n gas phase\\1,1\N,0,-3.9955143986,4.3068909405,1.8588503565\H,0,-4.40
 63817153,5.2366405303,1.9104579308\H,0,-3.2841177829,4.2427139275,2.58
 47006767\C,0,-3.3862313828,4.1003136351,0.5501152877\H,0,-4.1791139292
 ,4.160171596,-0.2008514976\C,0,-2.7968144896,2.6929736446,0.5749349702
 \C,0,-2.2691812683,5.1062405974,0.1419013985\H,0,-2.7031602781,6.11140
 97578,0.2022914431\H,0,-1.4699611029,5.0519382913,0.8911619452\O,0,-2.
 0229162928,2.3483776507,1.4879788457\C,0,-1.7324097771,4.8293079362,-1
 .2440013054\C,0,-0.5672988858,4.0740803143,-1.4208761255\H,0,-0.009064
 0354,3.7420064465,-0.5500165517\C,0,-2.4457612085,5.2426774484,-2.3788
 400257\H,0,-3.3459806626,5.8420632612,-2.2583864599\C,0,-0.1274830265,
 3.7249403659,-2.6988949129\H,0,0.7781404319,3.1350949266,-2.8095662679
 \C,0,-2.0076467561,4.9002719249,-3.6589866011\H,0,-2.5648993688,5.2368
 735189,-4.528793461\C,0,-0.8487912405,4.1348280536,-3.8217943639\H,0,-
 0.5050084032,3.8726936339,-4.8183620303\N,0,-3.0947429493,1.7970393912
 ,-0.3903532541\C,0,-2.551706038,0.4441156373,-0.2557343936\H,0,-3.0478
 724584,-0.0808978191,0.5706098041\C,0,-1.081900301,0.4564361814,0.0387
 442756\C,0,-2.8558788824,-0.2132360434,-1.6268804678\H,0,-2.0374457591
 ,-0.0025929322,-2.3229671449\H,0,-2.9734306186,-1.2957184793,-1.540801
 2465\O,0,-0.266570681,1.0817809147,-0.7763692\C,0,-4.1322977787,0.5190
 750135,-2.0728821459\H,0,-4.2997717417,0.4399426862,-3.1494582772\H,0,
 -5.0067127203,0.1041171536,-1.5602477793\C,0,-3.8909193154,1.965620171
 4,-1.6254363859\H,0,-4.8197121924,2.4974614365,-1.4114632161\H,0,-3.31
 29585306,2.5393213899,-2.3569148346\N,0,-0.4576533267,-0.2488274094,0.
 9471020748\H,0,-0.934336335,-0.7171431107,1.708632844\C,0,1.0044028769
 ,-0.1135681993,0.8512924737\H,0,1.3756300363,0.407749311,1.7381021523\
 C,0,1.1106305093,0.8462309458,-0.324194293\C,0,1.7261308082,-1.4541392
 037,0.6207683416\H,0,1.3880730172,-1.8922218713,-0.3266981896\H,0,1.41
 08975499,-2.1381183869,1.4192123853\O,0,2.0170964167,1.3038013928,-0.9
 232246665\C,0,3.2539008971,-1.3070696903,0.637944469\H,0,3.5674001337,
 -0.6049773632,-0.1435818937\H,0,3.5603305717,-0.8652920611,1.596560675
 9\C,0,3.9543854352,-2.6568255754,0.4449328735\H,0,3.6516512786,-3.0907
 796986,-0.5197528092\H,0,3.63940982,-3.3672332503,1.2194441909\C,0,5.4
 815756794,-2.542032405,0.4892194188\H,0,5.8113370628,-1.8076126087,-0.
 2699736075\H,0,5.7797106335,-2.1357677584,1.4643362404\N,0,6.085013816
 1,-3.8685266797,0.3547116262\H,0,7.0870427584,-3.8175927066,0.52700622
 92\H,0,5.979290113,-4.2043158122,-0.6017202783\O,0,0.6828854708,2.6343
 599186,1.6179897158\H,0,-0.2656211165,2.8117763121,1.7731924245\H,0,1.
 1345984334,3.4893166471,1.6683823169\\Version=ES64L-G16RevC.01\HF=-130
 0.5650196\RMSD=5.815e-09\Dipole=-1.3536149,-1.148208,0.3085644\Quadrup
 ole=11.5351173,0.9671575,-12.5022748,-18.2041316,8.4987886,2.1335736\P
 G=C01 [X(C20H31N4O4)]\\@
 The archive entry for this job was punched.


 HOW IS IT THAT THE SKY FEEDS THE STARS?

                           -- LUCRETIUS
 Job cpu time:       0 days  0 hours  1 minutes  2.1 seconds.
 Elapsed time:       0 days  0 hours  0 minutes 16.0 seconds.
 File lengths (MBytes):  RWF=    240 Int=      0 D2E=      0 Chk=     32 Scr=     16
 Normal termination of Gaussian 16 at Thu Jun  2 02:55:23 2022.
