 Entering Gaussian System, Link 0=/opt/software/Gaussian/g16-AVX2-C.01/g16/g16
 Input=charge-conf-962.com
 Output=charge-conf-962.log
 Initial command:
 /opt/software/Gaussian/g16-AVX2-C.01/g16/l1.exe "/mnt/gs18/scratch/users/kengmith/Gau-96982.inp" -scrdir="/mnt/gs18/scratch/users/kengmith/"
 Entering Link 1 = /opt/software/Gaussian/g16-AVX2-C.01/g16/l1.exe PID=     96992.
  
 Copyright (c) 1988-2019, Gaussian, Inc.  All Rights Reserved.
  
 This is part of the Gaussian(R) 16 program.  It is based on
 the Gaussian(R) 09 system (copyright 2009, Gaussian, Inc.),
 the Gaussian(R) 03 system (copyright 2003, Gaussian, Inc.),
 the Gaussian(R) 98 system (copyright 1998, Gaussian, Inc.),
 the Gaussian(R) 94 system (copyright 1995, Gaussian, Inc.),
 the Gaussian 92(TM) system (copyright 1992, Gaussian, Inc.),
 the Gaussian 90(TM) system (copyright 1990, Gaussian, Inc.),
 the Gaussian 88(TM) system (copyright 1988, Gaussian, Inc.),
 the Gaussian 86(TM) system (copyright 1986, Carnegie Mellon
 University), and the Gaussian 82(TM) system (copyright 1983,
 Carnegie Mellon University). Gaussian is a federally registered
 trademark of Gaussian, Inc.
  
 This software contains proprietary and confidential information,
 including trade secrets, belonging to Gaussian, Inc.
  
 This software is provided under written license and may be
 used, copied, transmitted, or stored only in accord with that
 written license.
  
 The following legend is applicable only to US Government
 contracts under FAR:
  
                    RESTRICTED RIGHTS LEGEND
  
 Use, reproduction and disclosure by the US Government is
 subject to restrictions as set forth in subparagraphs (a)
 and (c) of the Commercial Computer Software - Restricted
 Rights clause in FAR 52.227-19.
  
 Gaussian, Inc.
 340 Quinnipiac St., Bldg. 40, Wallingford CT 06492
  
  
 ---------------------------------------------------------------
 Warning -- This program may not be used in any manner that
 competes with the business of Gaussian, Inc. or will provide
 assistance to any competitor of Gaussian, Inc.  The licensee
 of this program is prohibited from giving any competitor of
 Gaussian, Inc. access to this program.  By using this program,
 the user acknowledges that Gaussian, Inc. is engaged in the
 business of creating and licensing software in the field of
 computational chemistry and represents and warrants to the
 licensee that it is not a competitor of Gaussian, Inc. and that
 it will not use this program in any manner prohibited above.
 ---------------------------------------------------------------
  

 Cite this work as:
 Gaussian 16, Revision C.01,
 M. J. Frisch, G. W. Trucks, H. B. Schlegel, G. E. Scuseria, 
 M. A. Robb, J. R. Cheeseman, G. Scalmani, V. Barone, 
 G. A. Petersson, H. Nakatsuji, X. Li, M. Caricato, A. V. Marenich, 
 J. Bloino, B. G. Janesko, R. Gomperts, B. Mennucci, H. P. Hratchian, 
 J. V. Ortiz, A. F. Izmaylov, J. L. Sonnenberg, D. Williams-Young, 
 F. Ding, F. Lipparini, F. Egidi, J. Goings, B. Peng, A. Petrone, 
 T. Henderson, D. Ranasinghe, V. G. Zakrzewski, J. Gao, N. Rega, 
 G. Zheng, W. Liang, M. Hada, M. Ehara, K. Toyota, R. Fukuda, 
 J. Hasegawa, M. Ishida, T. Nakajima, Y. Honda, O. Kitao, H. Nakai, 
 T. Vreven, K. Throssell, J. A. Montgomery, Jr., J. E. Peralta, 
 F. Ogliaro, M. J. Bearpark, J. J. Heyd, E. N. Brothers, K. N. Kudin, 
 V. N. Staroverov, T. A. Keith, R. Kobayashi, J. Normand, 
 K. Raghavachari, A. P. Rendell, J. C. Burant, S. S. Iyengar, 
 J. Tomasi, M. Cossi, J. M. Millam, M. Klene, C. Adamo, R. Cammi, 
 J. W. Ochterski, R. L. Martin, K. Morokuma, O. Farkas, 
 J. B. Foresman, and D. J. Fox, Gaussian, Inc., Wallingford CT, 2019.
 
 ******************************************
 Gaussian 16:  ES64L-G16RevC.01  3-Jul-2019
                 6-Jun-2022 
 ******************************************
 %mem=8gb
 %nproc=4
 Will use up to    4 processors via shared memory.
 %chk=conf-962.chk
 ----------------------------------------------------------------------
 # B3LYP/6-31G* empiricaldispersion=gd3 guess=read geom=check nosymm in
 tegral(ultrafinegrid)
 ----------------------------------------------------------------------
 1/29=2,38=1,172=1/1;
 2/12=2,15=1,40=1/2;
 3/5=1,6=6,7=1,11=2,14=-4,25=1,30=1,74=-5,75=-5,116=-2,124=31/1,2,3;
 4/5=1/1;
 5/5=2,38=6/2;
 6/7=2,8=2,9=2,10=2,28=1/1;
 99/5=1,9=1/99;
 ------------------------------------------------------
 Candidate Structure: Conf:962 Charge calc in gas phase
 ------------------------------------------------------
 Structure from the checkpoint file:  "conf-962.chk"
 Charge =  1 Multiplicity = 1
 Redundant internal coordinates found in file.  (old form).
 N,0,-5.8148989382,5.5230119847,3.1344746349
 H,0,-6.3020112881,5.5170852053,4.036123753
 H,0,-6.22414335,6.2500226388,2.5412971694
 H,0,-4.778686498,5.6981327656,3.3168385864
 C,0,-5.7582602567,4.1566620449,2.4796003243
 H,0,-6.601160483,3.5588167759,2.8310607922
 C,0,-4.3906669788,3.6109016432,2.9835850847
 C,0,-5.77738908,4.3253529693,0.9429549891
 H,0,-6.7922291391,4.5790226693,0.613417997
 H,0,-5.0923424774,5.1279117288,0.6542920225
 O,0,-3.5581421892,4.4566786914,3.3400496997
 C,0,-5.2346331283,3.045512998,0.2771514601
 N,0,-6.1231742033,2.0249449205,0.1714221441
 H,0,-5.7579764205,1.1133719765,-0.0820253673
 H,0,-7.1235414022,2.1532496726,0.2147710151
 O,0,-4.0468546075,2.9545192037,0.0162551107
 N,0,-4.2395831638,2.2930300866,2.9650008045
 H,0,-4.9555744267,1.7038245035,2.5313114132
 C,0,-2.9296424318,1.6308599275,2.9198415097
 H,0,-2.1901315154,2.3841566971,2.6316152527
 C,0,-3.0720884405,0.5830922198,1.7946028514
 C,0,-2.5191681917,0.9950388148,4.2725795131
 H,0,-1.5569786536,0.4972697669,4.0822728183
 O,0,-4.1959766789,0.2009005414,1.4369626677
 C,0,-3.5278729248,-0.0762741088,4.7318625143
 H,0,-3.7246341426,-0.7695611608,3.9050806652
 H,0,-4.4868377715,0.4138340768,4.9536856915
 C,0,-2.2944410984,2.0909035603,5.3235837293
 H,0,-3.2396505101,2.5853188385,5.5778754872
 H,0,-1.8777149536,1.6712674587,6.2429760384
 H,0,-1.6046720507,2.8594596468,4.9601074334
 C,0,-3.0644366777,-0.8779260795,5.9530087803
 H,0,-3.7809963487,-1.6721178345,6.1867021197
 H,0,-2.0926903511,-1.3508079706,5.7669219161
 H,0,-2.9663466656,-0.2507923729,6.8449937186
 N,0,-1.9269820539,0.1208567458,1.2883435657
 H,0,-1.015737974,0.4310895612,1.6174495762
 C,0,-1.8732792163,-0.849388592,0.2049250729
 H,0,-2.6312836198,-1.6176515339,0.3900331115
 C,0,-0.460688347,-1.4513938686,0.2407563426
 C,0,-2.1276803367,-0.1777245845,-1.1580416291
 H,0,-2.1846854601,-0.9236436623,-1.9570901856
 H,0,-3.0658358223,0.381918783,-1.1225972873
 H,0,-1.3165882517,0.519257848,-1.3925885324
 O,0,0.4508577711,-0.8740029028,0.841928119
 N,0,-0.3001267509,-2.5895175937,-0.457052838
 H,0,-1.0535440134,-2.9831819883,-1.0127500706
 C,0,1.0096979179,-3.1773697813,-0.7356165086
 H,0,1.6287465833,-3.073485877,0.1604447658
 C,0,1.6373051864,-2.4097112595,-1.9211981505
 C,0,0.8016571195,-4.6623607692,-1.1032678819
 H,0,1.7648123915,-5.0467841053,-1.4679083406
 O,0,1.5651465017,-2.8417287913,-3.0767571099
 C,0,0.328149329,-5.4989888493,0.0762640653
 H,0,1.0726579951,-5.4979662558,0.8796144875
 H,0,0.1628944493,-6.5290506663,-0.2510597706
 H,0,-0.6150050309,-5.1105283068,0.474678697
 O,0,-0.1870250865,-4.7469537474,-2.1273857998
 H,0,0.2199725544,-4.2933182263,-2.8942598072
 N,0,2.1928153299,-1.2242484741,-1.6018052421
 H,0,2.2883013398,-0.9637686398,-0.6259421254
 C,0,2.8251911156,-0.3652558364,-2.5894147556
 H,0,3.4330806031,-0.9881727366,-3.2615911214
 C,0,3.8153715204,0.5507327315,-1.8472929884
 C,0,1.7710777287,0.3398528401,-3.482332385
 H,0,1.152115515,1.0022069476,-2.8645914586
 H,0,1.1293297288,-0.4448031869,-3.9013905685
 O,0,4.2989710396,0.229598172,-0.7666003185
 O,0,2.3480258909,1.138382646,-4.5023196939
 H,0,2.9541378848,0.5695792799,-5.0526957108
 N,0,4.1517858889,1.6863034706,-2.5266763484
 H,0,3.6449538745,1.8348481413,-3.4071138139
 C,0,5.40538344,2.3735959591,-2.3077042163
 H,0,5.2706418643,3.4569560088,-2.2307548512
 H,0,5.8329431514,2.0181649441,-1.3646966064
 C,0,6.391380337,2.1238809576,-3.4583087161
 O,0,7.2921568049,2.9762220644,-3.6852741881
 N,0,6.2026103754,1.0102997911,-4.1486923025
 H,0,5.3382604992,0.4773589561,-3.9906075383
 C,0,6.6287659064,0.7149196085,-5.5115649283
 H,0,6.8494901687,1.656523343,-6.0222692229
 C,0,5.372715429,0.0859158561,-6.2442561525
 C,0,7.8128702704,-0.259573354,-5.5664551951
 H,0,7.5000258369,-1.1692973459,-5.0403765405
 H,0,7.9520429314,-0.5418271973,-6.6167994591
 O,0,5.4854587515,-0.0262858866,-7.463724154
 C,0,9.1289824748,0.25019269,-4.9488378523
 H,0,8.9117274596,0.8556614654,-4.0586982912
 H,0,9.7123373275,-0.6039354054,-4.5855546043
 C,0,10.0434008149,1.0223497846,-5.9175467853
 H,0,10.3344341616,0.3595824869,-6.7419706481
 H,0,10.9772817403,1.3021353906,-5.408123554
 C,0,9.4435695406,2.2665010795,-6.5670947695
 H,0,10.1597109793,2.739858378,-7.2452509949
 H,0,8.5388734809,2.0343531977,-7.1317448758
 N,0,9.0606877246,3.2953873364,-5.5314132893
 H,0,8.7178942062,4.1537263582,-5.9715084002
 H,0,9.8732414629,3.5530565147,-4.9633303235
 H,0,8.2731732021,2.9856959754,-4.8130880874
 O,0,4.4220633999,-0.2396078983,-5.4535941942
 Recover connectivity data from disk.
                           ----------------------------
                           !    Current Parameters    !
                           ! (Angstroms and Degrees)  !
 --------------------------                            --------------------------
 ! Name  Definition              Value                                          !
 --------------------------------------------------------------------------------
 ! R1    R(1,2)                  1.0248                                         !
 ! R2    R(1,3)                  1.0237                                         !
 ! R3    R(1,4)                  1.0666                                         !
 ! R4    R(1,5)                  1.5162                                         !
 ! R5    R(5,6)                  1.0915                                         !
 ! R6    R(5,7)                  1.5563                                         !
 ! R7    R(5,8)                  1.546                                          !
 ! R8    R(7,11)                 1.2392                                         !
 ! R9    R(7,17)                 1.3266                                         !
 ! R10   R(8,9)                  1.0967                                         !
 ! R11   R(8,10)                 1.0939                                         !
 ! R12   R(8,12)                 1.5414                                         !
 ! R13   R(12,13)                1.3573                                         !
 ! R14   R(12,16)                1.2195                                         !
 ! R15   R(13,14)                1.0142                                         !
 ! R16   R(13,15)                1.0095                                         !
 ! R17   R(17,18)                1.0237                                         !
 ! R18   R(17,19)                1.4685                                         !
 ! R19   R(19,20)                1.0943                                         !
 ! R20   R(19,21)                1.5441                                         !
 ! R21   R(19,22)                1.5501                                         !
 ! R22   R(21,24)                1.2398                                         !
 ! R23   R(21,36)                1.3346                                         !
 ! R24   R(22,23)                1.0999                                         !
 ! R25   R(22,25)                1.5415                                         !
 ! R26   R(22,28)                1.5349                                         !
 ! R27   R(25,26)                1.0968                                         !
 ! R28   R(25,27)                1.0996                                         !
 ! R29   R(25,32)                1.5325                                         !
 ! R30   R(28,29)                1.0966                                         !
 ! R31   R(28,30)                1.0932                                         !
 ! R32   R(28,31)                1.0948                                         !
 ! R33   R(32,33)                1.0949                                         !
 ! R34   R(32,34)                1.0966                                         !
 ! R35   R(32,35)                1.0948                                         !
 ! R36   R(36,37)                1.0173                                         !
 ! R37   R(36,38)                1.4554                                         !
 ! R38   R(38,39)                1.095                                          !
 ! R39   R(38,40)                1.5359                                         !
 ! R40   R(38,41)                1.5406                                         !
 ! R41   R(40,45)                1.2352                                         !
 ! R42   R(40,46)                1.3446                                         !
 ! R43   R(41,42)                1.0946                                         !
 ! R44   R(41,43)                1.093                                          !
 ! R45   R(41,44)                1.0948                                         !
 ! R46   R(46,47)                1.0156                                         !
 ! R47   R(46,48)                1.4625                                         !
 ! R48   R(48,49)                1.094                                          !
 ! R49   R(48,50)                1.5456                                         !
 ! R50   R(48,51)                1.5439                                         !
 ! R51   R(50,53)                1.2358                                         !
 ! R52   R(50,60)                1.3476                                         !
 ! R53   R(51,52)                1.0993                                         !
 ! R54   R(51,54)                1.5217                                         !
 ! R55   R(51,58)                1.426                                          !
 ! R56   R(54,55)                1.0953                                         !
 ! R57   R(54,56)                1.0934                                         !
 ! R58   R(54,57)                1.0951                                         !
 ! R59   R(58,59)                0.9796                                         !
 ! R60   R(60,61)                1.0145                                         !
 ! R61   R(60,62)                1.4537                                         !
 ! R62   R(62,63)                1.0997                                         !
 ! R63   R(62,64)                1.5396                                         !
 ! R64   R(62,65)                1.551                                          !
 ! R65   R(64,68)                1.2267                                         !
 ! R66   R(64,71)                1.3654                                         !
 ! R67   R(65,66)                1.097                                          !
 ! R68   R(65,67)                1.0969                                         !
 ! R69   R(65,69)                1.4181                                         !
 ! R70   R(69,70)                0.9969                                         !
 ! R71   R(71,72)                1.0267                                         !
 ! R72   R(71,73)                1.4463                                         !
 ! R73   R(73,74)                1.0944                                         !
 ! R74   R(73,75)                1.0947                                         !
 ! R75   R(73,76)                1.5357                                         !
 ! R76   R(76,77)                1.2607                                         !
 ! R77   R(76,78)                1.3238                                         !
 ! R78   R(78,79)                1.0277                                         !
 ! R79   R(78,80)                1.4582                                         !
 ! R80   R(80,81)                1.0937                                         !
 ! R81   R(80,82)                1.5843                                         !
 ! R82   R(80,83)                1.5345                                         !
 ! R83   R(82,86)                1.2298                                         !
 ! R84   R(82,100)               1.2786                                         !
 ! R85   R(83,84)                1.0965                                         !
 ! R86   R(83,85)                1.0965                                         !
 ! R87   R(83,87)                1.5406                                         !
 ! R88   R(87,88)                1.0982                                         !
 ! R89   R(87,89)                1.0963                                         !
 ! R90   R(87,90)                1.5397                                         !
 ! R91   R(90,91)                1.0971                                         !
 ! R92   R(90,92)                1.1                                            !
 ! R93   R(90,93)                1.5263                                         !
 ! R94   R(93,94)                1.094                                          !
 ! R95   R(93,95)                1.0914                                         !
 ! R96   R(93,96)                1.5093                                         !
 ! R97   R(96,97)                1.0237                                         !
 ! R98   R(96,98)                1.0244                                         !
 ! R99   R(96,99)                1.11                                           !
 ! A1    A(2,1,3)              108.899                                          !
 ! A2    A(2,1,4)              108.1971                                         !
 ! A3    A(2,1,5)              113.1124                                         !
 ! A4    A(3,1,4)              111.7687                                         !
 ! A5    A(3,1,5)              113.8696                                         !
 ! A6    A(4,1,5)              100.6908                                         !
 ! A7    A(1,5,6)              109.0053                                         !
 ! A8    A(1,5,7)              102.0618                                         !
 ! A9    A(1,5,8)              109.2994                                         !
 ! A10   A(6,5,7)              112.4723                                         !
 ! A11   A(6,5,8)              111.7312                                         !
 ! A12   A(7,5,8)              111.7777                                         !
 ! A13   A(5,7,11)             116.3709                                         !
 ! A14   A(5,7,17)             116.3525                                         !
 ! A15   A(11,7,17)            127.2686                                         !
 ! A16   A(5,8,9)              109.5931                                         !
 ! A17   A(5,8,10)             109.547                                          !
 ! A18   A(5,8,12)             109.535                                          !
 ! A19   A(9,8,10)             109.298                                          !
 ! A20   A(9,8,12)             112.8355                                         !
 ! A21   A(10,8,12)            105.9422                                         !
 ! A22   A(8,12,13)            115.3066                                         !
 ! A23   A(8,12,16)            119.8236                                         !
 ! A24   A(13,12,16)           124.3917                                         !
 ! A25   A(12,13,14)           117.3597                                         !
 ! A26   A(12,13,15)           123.3541                                         !
 ! A27   A(14,13,15)           118.8034                                         !
 ! A28   A(7,17,18)            119.8718                                         !
 ! A29   A(7,17,19)            123.3644                                         !
 ! A30   A(18,17,19)           110.57                                           !
 ! A31   A(17,19,20)           107.4893                                         !
 ! A32   A(17,19,21)           104.2465                                         !
 ! A33   A(17,19,22)           113.2254                                         !
 ! A34   A(20,19,21)           109.726                                          !
 ! A35   A(20,19,22)           109.4683                                         !
 ! A36   A(21,19,22)           112.4611                                         !
 ! A37   A(19,21,24)           120.2                                            !
 ! A38   A(19,21,36)           115.6128                                         !
 ! A39   A(24,21,36)           124.166                                          !
 ! A40   A(19,22,23)           105.4439                                         !
 ! A41   A(19,22,25)           111.8277                                         !
 ! A42   A(19,22,28)           110.0887                                         !
 ! A43   A(23,22,25)           108.0274                                         !
 ! A44   A(23,22,28)           108.27                                           !
 ! A45   A(25,22,28)           112.829                                          !
 ! A46   A(22,25,26)           109.3965                                         !
 ! A47   A(22,25,27)           108.7255                                         !
 ! A48   A(22,25,32)           113.7706                                         !
 ! A49   A(26,25,27)           106.1032                                         !
 ! A50   A(26,25,32)           108.9209                                         !
 ! A51   A(27,25,32)           109.6422                                         !
 ! A52   A(22,28,29)           110.7614                                         !
 ! A53   A(22,28,30)           110.9541                                         !
 ! A54   A(22,28,31)           111.476                                          !
 ! A55   A(29,28,30)           107.8559                                         !
 ! A56   A(29,28,31)           107.6705                                         !
 ! A57   A(30,28,31)           107.9705                                         !
 ! A58   A(25,32,33)           110.5848                                         !
 ! A59   A(25,32,34)           110.9974                                         !
 ! A60   A(25,32,35)           112.1272                                         !
 ! A61   A(33,32,34)           107.6599                                         !
 ! A62   A(33,32,35)           107.4724                                         !
 ! A63   A(34,32,35)           107.8114                                         !
 ! A64   A(21,36,37)           122.6979                                         !
 ! A65   A(21,36,38)           123.0206                                         !
 ! A66   A(37,36,38)           114.2728                                         !
 ! A67   A(36,38,39)           108.4423                                         !
 ! A68   A(36,38,40)           106.1331                                         !
 ! A69   A(36,38,41)           111.2138                                         !
 ! A70   A(39,38,40)           110.9594                                         !
 ! A71   A(39,38,41)           109.9451                                         !
 ! A72   A(40,38,41)           110.083                                          !
 ! A73   A(38,40,45)           120.4544                                         !
 ! A74   A(38,40,46)           115.4335                                         !
 ! A75   A(45,40,46)           124.0637                                         !
 ! A76   A(38,41,42)           110.9359                                         !
 ! A77   A(38,41,43)           109.6504                                         !
 ! A78   A(38,41,44)           110.1656                                         !
 ! A79   A(42,41,43)           109.1416                                         !
 ! A80   A(42,41,44)           108.4223                                         !
 ! A81   A(43,41,44)           108.4741                                         !
 ! A82   A(40,46,47)           121.5651                                         !
 ! A83   A(40,46,48)           123.0944                                         !
 ! A84   A(47,46,48)           113.8533                                         !
 ! A85   A(46,48,49)           108.2162                                         !
 ! A86   A(46,48,50)           108.0682                                         !
 ! A87   A(46,48,51)           108.1372                                         !
 ! A88   A(49,48,50)           110.5692                                         !
 ! A89   A(49,48,51)           111.2608                                         !
 ! A90   A(50,48,51)           110.4739                                         !
 ! A91   A(48,50,53)           121.3282                                         !
 ! A92   A(48,50,60)           114.9938                                         !
 ! A93   A(53,50,60)           123.5893                                         !
 ! A94   A(48,51,52)           107.2947                                         !
 ! A95   A(48,51,54)           112.7166                                         !
 ! A96   A(48,51,58)           108.7539                                         !
 ! A97   A(52,51,54)           109.7247                                         !
 ! A98   A(52,51,58)           110.3957                                         !
 ! A99   A(54,51,58)           107.9591                                         !
 ! A100  A(51,54,55)           110.8863                                         !
 ! A101  A(51,54,56)           109.4477                                         !
 ! A102  A(51,54,57)           110.7931                                         !
 ! A103  A(55,54,56)           108.856                                          !
 ! A104  A(55,54,57)           108.5575                                         !
 ! A105  A(56,54,57)           108.2364                                         !
 ! A106  A(51,58,59)           104.2824                                         !
 ! A107  A(50,60,61)           119.5145                                         !
 ! A108  A(50,60,62)           122.5569                                         !
 ! A109  A(61,60,62)           117.4412                                         !
 ! A110  A(60,62,63)           108.7243                                         !
 ! A111  A(60,62,64)           107.6904                                         !
 ! A112  A(60,62,65)           111.3528                                         !
 ! A113  A(63,62,64)           106.0291                                         !
 ! A114  A(63,62,65)           106.338                                          !
 ! A115  A(64,62,65)           116.3682                                         !
 ! A116  A(62,64,68)           121.4961                                         !
 ! A117  A(62,64,71)           114.4215                                         !
 ! A118  A(68,64,71)           123.9817                                         !
 ! A119  A(62,65,66)           109.4976                                         !
 ! A120  A(62,65,67)           106.9996                                         !
 ! A121  A(62,65,69)           113.1773                                         !
 ! A122  A(66,65,67)           108.4781                                         !
 ! A123  A(66,65,69)           107.1336                                         !
 ! A124  A(67,65,69)           111.4732                                         !
 ! A125  A(65,69,70)           108.8551                                         !
 ! A126  A(64,71,72)           115.1756                                         !
 ! A127  A(64,71,73)           122.2386                                         !
 ! A128  A(72,71,73)           119.2717                                         !
 ! A129  A(71,73,74)           111.9832                                         !
 ! A130  A(71,73,75)           108.34                                           !
 ! A131  A(71,73,76)           111.4561                                         !
 ! A132  A(74,73,75)           107.994                                          !
 ! A133  A(74,73,76)           107.0189                                         !
 ! A134  A(75,73,76)           109.9892                                         !
 ! A135  A(73,76,77)           118.9265                                         !
 ! A136  A(73,76,78)           115.8476                                         !
 ! A137  A(77,76,78)           125.2212                                         !
 ! A138  A(76,78,79)           118.4221                                         !
 ! A139  A(76,78,80)           128.0376                                         !
 ! A140  A(79,78,80)           106.5307                                         !
 ! A141  A(78,80,81)           108.7245                                         !
 ! A142  A(78,80,82)           106.3175                                         !
 ! A143  A(78,80,83)           112.8045                                         !
 ! A144  A(81,80,82)           106.61                                           !
 ! A145  A(81,80,83)           111.9814                                         !
 ! A146  A(82,80,83)           110.0651                                         !
 ! A147  A(80,82,86)           114.9682                                         !
 ! A148  A(80,82,100)          113.8626                                         !
 ! A149  A(86,82,100)          131.1562                                         !
 ! A150  A(80,83,84)           106.8318                                         !
 ! A151  A(80,83,85)           107.1984                                         !
 ! A152  A(80,83,87)           115.7684                                         !
 ! A153  A(84,83,85)           106.3944                                         !
 ! A154  A(84,83,87)           109.0221                                         !
 ! A155  A(85,83,87)           111.1476                                         !
 ! A156  A(83,87,88)           109.7766                                         !
 ! A157  A(83,87,89)           109.2465                                         !
 ! A158  A(83,87,90)           114.9015                                         !
 ! A159  A(88,87,89)           105.439                                          !
 ! A160  A(88,87,90)           110.5444                                         !
 ! A161  A(89,87,90)           106.4504                                         !
 ! A162  A(87,90,91)           109.1086                                         !
 ! A163  A(87,90,92)           109.901                                          !
 ! A164  A(87,90,93)           116.3038                                         !
 ! A165  A(91,90,92)           106.0489                                         !
 ! A166  A(91,90,93)           106.0744                                         !
 ! A167  A(92,90,93)           108.8693                                         !
 ! A168  A(90,93,94)           111.0539                                         !
 ! A169  A(90,93,95)           111.8728                                         !
 ! A170  A(90,93,96)           111.3067                                         !
 ! A171  A(94,93,95)           108.2974                                         !
 ! A172  A(94,93,96)           107.2463                                         !
 ! A173  A(95,93,96)           106.8421                                         !
 ! A174  A(93,96,97)           111.195                                          !
 ! A175  A(93,96,98)           110.5362                                         !
 ! A176  A(93,96,99)           115.7134                                         !
 ! A177  A(97,96,98)           107.045                                          !
 ! A178  A(97,96,99)           105.9368                                         !
 ! A179  A(98,96,99)           105.9064                                         !
 ! D1    D(2,1,5,6)             26.0393                                         !
 ! D2    D(2,1,5,7)            -93.1043                                         !
 ! D3    D(2,1,5,8)            148.4191                                         !
 ! D4    D(3,1,5,6)            -98.9877                                         !
 ! D5    D(3,1,5,7)            141.8687                                         !
 ! D6    D(3,1,5,8)             23.3922                                         !
 ! D7    D(4,1,5,6)            141.2602                                         !
 ! D8    D(4,1,5,7)             22.1166                                         !
 ! D9    D(4,1,5,8)            -96.36                                           !
 ! D10   D(1,5,7,11)           -22.9111                                         !
 ! D11   D(1,5,7,17)           158.0437                                         !
 ! D12   D(6,5,7,11)          -139.5753                                         !
 ! D13   D(6,5,7,17)            41.3794                                         !
 ! D14   D(8,5,7,11)            93.7884                                         !
 ! D15   D(8,5,7,17)           -85.2569                                         !
 ! D16   D(1,5,8,9)            -75.4052                                         !
 ! D17   D(1,5,8,10)            44.5037                                         !
 ! D18   D(1,5,8,12)           160.3041                                         !
 ! D19   D(6,5,8,9)             45.3265                                         !
 ! D20   D(6,5,8,10)           165.2354                                         !
 ! D21   D(6,5,8,12)           -78.9642                                         !
 ! D22   D(7,5,8,9)            172.3645                                         !
 ! D23   D(7,5,8,10)           -67.7266                                         !
 ! D24   D(7,5,8,12)            48.0739                                         !
 ! D25   D(5,7,17,18)            7.1085                                         !
 ! D26   D(5,7,17,19)          156.804                                          !
 ! D27   D(11,7,17,18)        -171.8166                                         !
 ! D28   D(11,7,17,19)         -22.1211                                         !
 ! D29   D(5,8,12,13)           80.5794                                         !
 ! D30   D(5,8,12,16)          -91.833                                          !
 ! D31   D(9,8,12,13)          -41.7974                                         !
 ! D32   D(9,8,12,16)          145.7902                                         !
 ! D33   D(10,8,12,13)        -161.3494                                         !
 ! D34   D(10,8,12,16)          26.2381                                         !
 ! D35   D(8,12,13,14)        -167.7413                                         !
 ! D36   D(8,12,13,15)          20.34                                           !
 ! D37   D(16,12,13,14)          4.2791                                         !
 ! D38   D(16,12,13,15)       -167.6396                                         !
 ! D39   D(7,17,19,20)         -15.2628                                         !
 ! D40   D(7,17,19,21)        -131.6934                                         !
 ! D41   D(7,17,19,22)         105.7661                                         !
 ! D42   D(18,17,19,20)        136.8747                                         !
 ! D43   D(18,17,19,21)         20.4441                                         !
 ! D44   D(18,17,19,22)       -102.0964                                         !
 ! D45   D(17,19,21,24)        -20.5185                                         !
 ! D46   D(17,19,21,36)        161.0868                                         !
 ! D47   D(20,19,21,24)       -135.3804                                         !
 ! D48   D(20,19,21,36)         46.2248                                         !
 ! D49   D(22,19,21,24)        102.5219                                         !
 ! D50   D(22,19,21,36)        -75.8729                                         !
 ! D51   D(17,19,22,23)        177.1943                                         !
 ! D52   D(17,19,22,25)         60.0317                                         !
 ! D53   D(17,19,22,28)        -66.2321                                         !
 ! D54   D(20,19,22,23)        -62.9011                                         !
 ! D55   D(20,19,22,25)        179.9363                                         !
 ! D56   D(20,19,22,28)         53.6724                                         !
 ! D57   D(21,19,22,23)         59.3424                                         !
 ! D58   D(21,19,22,25)        -57.8202                                         !
 ! D59   D(21,19,22,28)        175.916                                          !
 ! D60   D(19,21,36,37)          0.1376                                         !
 ! D61   D(19,21,36,38)       -178.7233                                         !
 ! D62   D(24,21,36,37)       -178.1856                                         !
 ! D63   D(24,21,36,38)          2.9535                                         !
 ! D64   D(19,22,25,26)         49.4224                                         !
 ! D65   D(19,22,25,27)        -66.0351                                         !
 ! D66   D(19,22,25,32)        171.4762                                         !
 ! D67   D(23,22,25,26)        -66.1736                                         !
 ! D68   D(23,22,25,27)        178.3688                                         !
 ! D69   D(23,22,25,32)         55.8801                                         !
 ! D70   D(28,22,25,26)        174.1765                                         !
 ! D71   D(28,22,25,27)         58.7189                                         !
 ! D72   D(28,22,25,32)        -63.7698                                         !
 ! D73   D(19,22,28,29)         67.7461                                         !
 ! D74   D(19,22,28,30)       -172.4977                                         !
 ! D75   D(19,22,28,31)        -52.1209                                         !
 ! D76   D(23,22,28,29)       -177.4612                                         !
 ! D77   D(23,22,28,30)        -57.705                                          !
 ! D78   D(23,22,28,31)         62.6718                                         !
 ! D79   D(25,22,28,29)        -57.9514                                         !
 ! D80   D(25,22,28,30)         61.8048                                         !
 ! D81   D(25,22,28,31)       -177.8183                                         !
 ! D82   D(22,25,32,33)       -175.6335                                         !
 ! D83   D(22,25,32,34)        -56.2105                                         !
 ! D84   D(22,25,32,35)         64.4369                                         !
 ! D85   D(26,25,32,33)        -53.3172                                         !
 ! D86   D(26,25,32,34)         66.1058                                         !
 ! D87   D(26,25,32,35)       -173.2468                                         !
 ! D88   D(27,25,32,33)         62.3835                                         !
 ! D89   D(27,25,32,34)       -178.1934                                         !
 ! D90   D(27,25,32,35)        -57.5461                                         !
 ! D91   D(21,36,38,39)        -42.3916                                         !
 ! D92   D(21,36,38,40)       -161.666                                          !
 ! D93   D(21,36,38,41)         78.6168                                         !
 ! D94   D(37,36,38,39)        138.6599                                         !
 ! D95   D(37,36,38,40)         19.3856                                         !
 ! D96   D(37,36,38,41)       -100.3317                                         !
 ! D97   D(36,38,40,45)        -17.9985                                         !
 ! D98   D(36,38,40,46)        164.4306                                         !
 ! D99   D(39,38,40,45)       -135.6088                                         !
 ! D100  D(39,38,40,46)         46.8203                                         !
 ! D101  D(41,38,40,45)        102.4542                                         !
 ! D102  D(41,38,40,46)        -75.1167                                         !
 ! D103  D(36,38,41,42)       -174.3966                                         !
 ! D104  D(36,38,41,43)        -53.7725                                         !
 ! D105  D(36,38,41,44)         65.5403                                         !
 ! D106  D(39,38,41,42)        -54.274                                          !
 ! D107  D(39,38,41,43)         66.3501                                         !
 ! D108  D(39,38,41,44)       -174.3371                                         !
 ! D109  D(40,38,41,42)         68.2628                                         !
 ! D110  D(40,38,41,43)       -171.1131                                         !
 ! D111  D(40,38,41,44)        -51.8002                                         !
 ! D112  D(38,40,46,47)          3.6289                                         !
 ! D113  D(38,40,46,48)        168.8542                                         !
 ! D114  D(45,40,46,47)       -173.8434                                         !
 ! D115  D(45,40,46,48)         -8.618                                          !
 ! D116  D(40,46,48,49)         40.1198                                         !
 ! D117  D(40,46,48,50)        -79.6438                                         !
 ! D118  D(40,46,48,51)        160.7507                                         !
 ! D119  D(47,46,48,49)       -153.624                                          !
 ! D120  D(47,46,48,50)         86.6124                                         !
 ! D121  D(47,46,48,51)        -32.9931                                         !
 ! D122  D(46,48,50,53)        -97.4344                                         !
 ! D123  D(46,48,50,60)         79.2588                                         !
 ! D124  D(49,48,50,53)        144.2954                                         !
 ! D125  D(49,48,50,60)        -39.0115                                         !
 ! D126  D(51,48,50,53)         20.6859                                         !
 ! D127  D(51,48,50,60)       -162.6209                                         !
 ! D128  D(46,48,51,52)        170.9001                                         !
 ! D129  D(46,48,51,54)        -68.1986                                         !
 ! D130  D(46,48,51,58)         51.4814                                         !
 ! D131  D(49,48,51,52)        -70.3867                                         !
 ! D132  D(49,48,51,54)         50.5146                                         !
 ! D133  D(49,48,51,58)        170.1946                                         !
 ! D134  D(50,48,51,52)         52.822                                          !
 ! D135  D(50,48,51,54)        173.7234                                         !
 ! D136  D(50,48,51,58)        -66.5967                                         !
 ! D137  D(48,50,60,61)          8.4097                                         !
 ! D138  D(48,50,60,62)       -179.8087                                         !
 ! D139  D(53,50,60,61)       -174.9813                                         !
 ! D140  D(53,50,60,62)         -3.1997                                         !
 ! D141  D(48,51,54,55)        -61.9826                                         !
 ! D142  D(48,51,54,56)        177.9123                                         !
 ! D143  D(48,51,54,57)         58.6327                                         !
 ! D144  D(52,51,54,55)         57.521                                          !
 ! D145  D(52,51,54,56)        -62.5841                                         !
 ! D146  D(52,51,54,57)        178.1363                                         !
 ! D147  D(58,51,54,55)        177.879                                          !
 ! D148  D(58,51,54,56)         57.7739                                         !
 ! D149  D(58,51,54,57)        -61.5057                                         !
 ! D150  D(48,51,58,59)         64.5517                                         !
 ! D151  D(52,51,58,59)        -52.9126                                         !
 ! D152  D(54,51,58,59)       -172.8486                                         !
 ! D153  D(50,60,62,63)        -42.5512                                         !
 ! D154  D(50,60,62,64)       -157.0163                                         !
 ! D155  D(50,60,62,65)         74.2841                                         !
 ! D156  D(61,60,62,63)        129.3912                                         !
 ! D157  D(61,60,62,64)         14.9261                                         !
 ! D158  D(61,60,62,65)       -113.7735                                         !
 ! D159  D(60,62,64,68)         24.2866                                         !
 ! D160  D(60,62,64,71)       -159.2231                                         !
 ! D161  D(63,62,64,68)        -91.9586                                         !
 ! D162  D(63,62,64,71)         84.5317                                         !
 ! D163  D(65,62,64,68)        150.0665                                         !
 ! D164  D(65,62,64,71)        -33.4432                                         !
 ! D165  D(60,62,65,66)         63.4247                                         !
 ! D166  D(60,62,65,67)        -53.9516                                         !
 ! D167  D(60,62,65,69)       -177.1329                                         !
 ! D168  D(63,62,65,66)       -178.2952                                         !
 ! D169  D(63,62,65,67)         64.3284                                         !
 ! D170  D(63,62,65,69)        -58.8528                                         !
 ! D171  D(64,62,65,66)        -60.4897                                         !
 ! D172  D(64,62,65,67)       -177.8661                                         !
 ! D173  D(64,62,65,69)         58.9527                                         !
 ! D174  D(62,64,71,72)          5.1898                                         !
 ! D175  D(62,64,71,73)       -154.0693                                         !
 ! D176  D(68,64,71,72)       -178.4194                                         !
 ! D177  D(68,64,71,73)         22.3215                                         !
 ! D178  D(62,65,69,70)         56.3582                                         !
 ! D179  D(66,65,69,70)        177.1498                                         !
 ! D180  D(67,65,69,70)        -64.317                                          !
 ! D181  D(64,71,73,74)       -135.3805                                         !
 ! D182  D(64,71,73,75)        -16.3821                                         !
 ! D183  D(64,71,73,76)        104.7651                                         !
 ! D184  D(72,71,73,74)         66.1759                                         !
 ! D185  D(72,71,73,75)       -174.8257                                         !
 ! D186  D(72,71,73,76)        -53.6785                                         !
 ! D187  D(71,73,76,77)        154.6887                                         !
 ! D188  D(71,73,76,78)        -24.5628                                         !
 ! D189  D(74,73,76,77)         31.9417                                         !
 ! D190  D(74,73,76,78)       -147.3098                                         !
 ! D191  D(75,73,76,77)        -85.1308                                         !
 ! D192  D(75,73,76,78)         95.6176                                         !
 ! D193  D(73,76,78,79)         10.4145                                         !
 ! D194  D(73,76,78,80)        156.9442                                         !
 ! D195  D(77,76,78,79)       -168.7836                                         !
 ! D196  D(77,76,78,80)        -22.2539                                         !
 ! D197  D(76,78,80,81)        -18.518                                          !
 ! D198  D(76,78,80,82)       -132.9573                                         !
 ! D199  D(76,78,80,83)        106.3196                                         !
 ! D200  D(79,78,80,81)        131.0882                                         !
 ! D201  D(79,78,80,82)         16.6489                                         !
 ! D202  D(79,78,80,83)       -104.0741                                         !
 ! D203  D(78,80,82,86)        168.8037                                         !
 ! D204  D(78,80,82,100)       -12.3602                                         !
 ! D205  D(81,80,82,86)         52.9302                                         !
 ! D206  D(81,80,82,100)      -128.2337                                         !
 ! D207  D(83,80,82,86)        -68.7247                                         !
 ! D208  D(83,80,82,100)       110.1114                                         !
 ! D209  D(78,80,83,84)         57.3532                                         !
 ! D210  D(78,80,83,85)        171.0765                                         !
 ! D211  D(78,80,83,87)        -64.2586                                         !
 ! D212  D(81,80,83,84)       -179.6048                                         !
 ! D213  D(81,80,83,85)        -65.8815                                         !
 ! D214  D(81,80,83,87)         58.7835                                         !
 ! D215  D(82,80,83,84)        -61.205                                          !
 ! D216  D(82,80,83,85)         52.5183                                         !
 ! D217  D(82,80,83,87)        177.1832                                         !
 ! D218  D(80,83,87,88)         36.7702                                         !
 ! D219  D(80,83,87,89)        151.9325                                         !
 ! D220  D(80,83,87,90)        -88.5445                                         !
 ! D221  D(84,83,87,88)        -83.6633                                         !
 ! D222  D(84,83,87,89)         31.499                                          !
 ! D223  D(84,83,87,90)        151.022                                          !
 ! D224  D(85,83,87,88)        159.3703                                         !
 ! D225  D(85,83,87,89)        -85.4674                                         !
 ! D226  D(85,83,87,90)         34.0556                                         !
 ! D227  D(83,87,90,91)        -61.2402                                         !
 ! D228  D(83,87,90,92)       -177.1261                                         !
 ! D229  D(83,87,90,93)         58.6363                                         !
 ! D230  D(88,87,90,91)        173.846                                          !
 ! D231  D(88,87,90,92)         57.9601                                         !
 ! D232  D(88,87,90,93)        -66.2775                                         !
 ! D233  D(89,87,90,91)         59.8242                                         !
 ! D234  D(89,87,90,92)        -56.0618                                         !
 ! D235  D(89,87,90,93)        179.7007                                         !
 ! D236  D(87,90,93,94)       -179.321                                          !
 ! D237  D(87,90,93,95)        -58.1873                                         !
 ! D238  D(87,90,93,96)         61.2641                                         !
 ! D239  D(91,90,93,94)        -57.8232                                         !
 ! D240  D(91,90,93,95)         63.3105                                         !
 ! D241  D(91,90,93,96)       -177.238                                          !
 ! D242  D(92,90,93,94)         55.9132                                         !
 ! D243  D(92,90,93,95)        177.0469                                         !
 ! D244  D(92,90,93,96)        -63.5016                                         !
 ! D245  D(90,93,96,97)        176.1408                                         !
 ! D246  D(90,93,96,98)         57.391                                          !
 ! D247  D(90,93,96,99)        -62.9553                                         !
 ! D248  D(94,93,96,97)         54.4839                                         !
 ! D249  D(94,93,96,98)        -64.2659                                         !
 ! D250  D(94,93,96,99)        175.3878                                         !
 ! D251  D(95,93,96,97)        -61.4566                                         !
 ! D252  D(95,93,96,98)        179.7936                                         !
 ! D253  D(95,93,96,99)         59.4474                                         !
 --------------------------------------------------------------------------------
 Symmetry turned off by external request.
 Stoichiometry    C28H52N9O11(1+)
 Framework group  C1[X(C28H52N9O11)]
 Deg. of freedom   294
 Full point group                 C1      NOp   1
                          Input orientation:                          
 ---------------------------------------------------------------------
 Center     Atomic      Atomic             Coordinates (Angstroms)
 Number     Number       Type             X           Y           Z
 ---------------------------------------------------------------------
      1          7           0       -5.814899    5.523012    3.134475
      2          1           0       -6.302011    5.517085    4.036124
      3          1           0       -6.224143    6.250023    2.541297
      4          1           0       -4.778686    5.698133    3.316839
      5          6           0       -5.758260    4.156662    2.479600
      6          1           0       -6.601160    3.558817    2.831061
      7          6           0       -4.390667    3.610902    2.983585
      8          6           0       -5.777389    4.325353    0.942955
      9          1           0       -6.792229    4.579023    0.613418
     10          1           0       -5.092342    5.127912    0.654292
     11          8           0       -3.558142    4.456679    3.340050
     12          6           0       -5.234633    3.045513    0.277151
     13          7           0       -6.123174    2.024945    0.171422
     14          1           0       -5.757976    1.113372   -0.082025
     15          1           0       -7.123541    2.153250    0.214771
     16          8           0       -4.046855    2.954519    0.016255
     17          7           0       -4.239583    2.293030    2.965001
     18          1           0       -4.955574    1.703825    2.531311
     19          6           0       -2.929642    1.630860    2.919842
     20          1           0       -2.190132    2.384157    2.631615
     21          6           0       -3.072088    0.583092    1.794603
     22          6           0       -2.519168    0.995039    4.272580
     23          1           0       -1.556979    0.497270    4.082273
     24          8           0       -4.195977    0.200901    1.436963
     25          6           0       -3.527873   -0.076274    4.731863
     26          1           0       -3.724634   -0.769561    3.905081
     27          1           0       -4.486838    0.413834    4.953686
     28          6           0       -2.294441    2.090904    5.323584
     29          1           0       -3.239651    2.585319    5.577875
     30          1           0       -1.877715    1.671267    6.242976
     31          1           0       -1.604672    2.859460    4.960107
     32          6           0       -3.064437   -0.877926    5.953009
     33          1           0       -3.780996   -1.672118    6.186702
     34          1           0       -2.092690   -1.350808    5.766922
     35          1           0       -2.966347   -0.250792    6.844994
     36          7           0       -1.926982    0.120857    1.288344
     37          1           0       -1.015738    0.431090    1.617450
     38          6           0       -1.873279   -0.849389    0.204925
     39          1           0       -2.631284   -1.617652    0.390033
     40          6           0       -0.460688   -1.451394    0.240756
     41          6           0       -2.127680   -0.177725   -1.158042
     42          1           0       -2.184685   -0.923644   -1.957090
     43          1           0       -3.065836    0.381919   -1.122597
     44          1           0       -1.316588    0.519258   -1.392589
     45          8           0        0.450858   -0.874003    0.841928
     46          7           0       -0.300127   -2.589518   -0.457053
     47          1           0       -1.053544   -2.983182   -1.012750
     48          6           0        1.009698   -3.177370   -0.735617
     49          1           0        1.628747   -3.073486    0.160445
     50          6           0        1.637305   -2.409711   -1.921198
     51          6           0        0.801657   -4.662361   -1.103268
     52          1           0        1.764812   -5.046784   -1.467908
     53          8           0        1.565147   -2.841729   -3.076757
     54          6           0        0.328149   -5.498989    0.076264
     55          1           0        1.072658   -5.497966    0.879614
     56          1           0        0.162894   -6.529051   -0.251060
     57          1           0       -0.615005   -5.110528    0.474679
     58          8           0       -0.187025   -4.746954   -2.127386
     59          1           0        0.219973   -4.293318   -2.894260
     60          7           0        2.192815   -1.224248   -1.601805
     61          1           0        2.288301   -0.963769   -0.625942
     62          6           0        2.825191   -0.365256   -2.589415
     63          1           0        3.433081   -0.988173   -3.261591
     64          6           0        3.815372    0.550733   -1.847293
     65          6           0        1.771078    0.339853   -3.482332
     66          1           0        1.152116    1.002207   -2.864591
     67          1           0        1.129330   -0.444803   -3.901391
     68          8           0        4.298971    0.229598   -0.766600
     69          8           0        2.348026    1.138383   -4.502320
     70          1           0        2.954138    0.569579   -5.052696
     71          7           0        4.151786    1.686303   -2.526676
     72          1           0        3.644954    1.834848   -3.407114
     73          6           0        5.405383    2.373596   -2.307704
     74          1           0        5.270642    3.456956   -2.230755
     75          1           0        5.832943    2.018165   -1.364697
     76          6           0        6.391380    2.123881   -3.458309
     77          8           0        7.292157    2.976222   -3.685274
     78          7           0        6.202610    1.010300   -4.148692
     79          1           0        5.338260    0.477359   -3.990608
     80          6           0        6.628766    0.714920   -5.511565
     81          1           0        6.849490    1.656523   -6.022269
     82          6           0        5.372715    0.085916   -6.244256
     83          6           0        7.812870   -0.259573   -5.566455
     84          1           0        7.500026   -1.169297   -5.040377
     85          1           0        7.952043   -0.541827   -6.616799
     86          8           0        5.485459   -0.026286   -7.463724
     87          6           0        9.128982    0.250193   -4.948838
     88          1           0        8.911727    0.855661   -4.058698
     89          1           0        9.712337   -0.603935   -4.585555
     90          6           0       10.043401    1.022350   -5.917547
     91          1           0       10.334434    0.359582   -6.741971
     92          1           0       10.977282    1.302135   -5.408124
     93          6           0        9.443570    2.266501   -6.567095
     94          1           0       10.159711    2.739858   -7.245251
     95          1           0        8.538873    2.034353   -7.131745
     96          7           0        9.060688    3.295387   -5.531413
     97          1           0        8.717894    4.153726   -5.971508
     98          1           0        9.873241    3.553057   -4.963330
     99          1           0        8.273173    2.985696   -4.813088
    100          8           0        4.422063   -0.239608   -5.453594
 ---------------------------------------------------------------------
 Rotational constants (GHZ):           0.0894586           0.0215606           0.0196037
 Standard basis: 6-31G(d) (6D, 7F)
   824 basis functions,  1552 primitive gaussians,   824 cartesian basis functions
   185 alpha electrons      185 beta electrons
       nuclear repulsion energy      6487.5304895319 Hartrees.
 NAtoms=  100 NActive=  100 NUniq=  100 SFac= 1.00D+00 NAtFMM=   60 NAOKFM=T Big=T
 Integral buffers will be    131072 words long.
 Raffenetti 2 integral format.
 Two-electron integral symmetry is turned off.
 Nuclear repulsion after empirical dispersion term =     6487.3941346003 Hartrees.
 One-electron integrals computed using PRISM.
 NBasis=   824 RedAO= T EigKep=  1.78D-03  NBF=   824
 NBsUse=   824 1.00D-06 EigRej= -1.00D+00 NBFU=   824
 Initial guess from the checkpoint file:  "conf-962.chk"
 B after Tr=     0.000000    0.000000    0.000000
         Rot=    1.000000    0.000000    0.000000    0.000000 Ang=   0.00 deg.
 Requested convergence on RMS density matrix=1.00D-08 within 128 cycles.
 Requested convergence on MAX density matrix=1.00D-06.
 Requested convergence on             energy=1.00D-06.
 No special actions if energy rises.
 SCF Done:  E(RB3LYP) =  -2418.54940246     A.U. after    3 cycles
            NFock=  3  Conv=0.73D-09     -V/T= 2.0093

 **********************************************************************

            Population analysis using the SCF Density.

 **********************************************************************

 Alpha  occ. eigenvalues --  -19.27047 -19.23420 -19.21460 -19.19938 -19.19503
 Alpha  occ. eigenvalues --  -19.18577 -19.17309 -19.17136 -19.16446 -19.11681
 Alpha  occ. eigenvalues --  -19.10164 -14.61245 -14.52153 -14.49034 -14.47579
 Alpha  occ. eigenvalues --  -14.44998 -14.43388 -14.40961 -14.40957 -14.40047
 Alpha  occ. eigenvalues --  -10.43703 -10.42241 -10.41653 -10.38455 -10.36445
 Alpha  occ. eigenvalues --  -10.35684 -10.35394 -10.34011 -10.33568 -10.33547
 Alpha  occ. eigenvalues --  -10.33147 -10.31597 -10.29217 -10.29054 -10.28974
 Alpha  occ. eigenvalues --  -10.28551 -10.28409 -10.27432 -10.27393 -10.27223
 Alpha  occ. eigenvalues --  -10.26318 -10.26229 -10.25673 -10.25636 -10.25016
 Alpha  occ. eigenvalues --  -10.24605 -10.23353 -10.22439  -1.19703  -1.15476
 Alpha  occ. eigenvalues --   -1.14790  -1.13334  -1.11368  -1.10617  -1.09182
 Alpha  occ. eigenvalues --   -1.08243  -1.06933  -1.06076  -1.05979  -1.04910
 Alpha  occ. eigenvalues --   -1.04040  -1.02525  -1.01656  -0.99710  -0.99063
 Alpha  occ. eigenvalues --   -0.97244  -0.96554  -0.95405  -0.94433  -0.90420
 Alpha  occ. eigenvalues --   -0.87839  -0.86143  -0.84354  -0.83024  -0.82576
 Alpha  occ. eigenvalues --   -0.81524  -0.80803  -0.79274  -0.78172  -0.76413
 Alpha  occ. eigenvalues --   -0.75524  -0.75176  -0.74851  -0.73871  -0.72307
 Alpha  occ. eigenvalues --   -0.70974  -0.70863  -0.70758  -0.69259  -0.68171
 Alpha  occ. eigenvalues --   -0.67398  -0.66755  -0.66127  -0.65584  -0.65476
 Alpha  occ. eigenvalues --   -0.64995  -0.64639  -0.64373  -0.63861  -0.63629
 Alpha  occ. eigenvalues --   -0.63277  -0.62333  -0.61886  -0.60401  -0.59692
 Alpha  occ. eigenvalues --   -0.59165  -0.58468  -0.57587  -0.57216  -0.56779
 Alpha  occ. eigenvalues --   -0.56207  -0.56056  -0.55388  -0.55148  -0.55007
 Alpha  occ. eigenvalues --   -0.54416  -0.53789  -0.53591  -0.53466  -0.52781
 Alpha  occ. eigenvalues --   -0.52496  -0.52477  -0.51911  -0.51642  -0.51547
 Alpha  occ. eigenvalues --   -0.51163  -0.51084  -0.50661  -0.50150  -0.49875
 Alpha  occ. eigenvalues --   -0.49498  -0.48901  -0.48696  -0.48379  -0.48019
 Alpha  occ. eigenvalues --   -0.47822  -0.47162  -0.47106  -0.46819  -0.46295
 Alpha  occ. eigenvalues --   -0.46221  -0.45888  -0.45470  -0.45430  -0.45250
 Alpha  occ. eigenvalues --   -0.44853  -0.44214  -0.44092  -0.43911  -0.43723
 Alpha  occ. eigenvalues --   -0.43461  -0.43094  -0.42735  -0.42480  -0.42308
 Alpha  occ. eigenvalues --   -0.41751  -0.41549  -0.41460  -0.41051  -0.41013
 Alpha  occ. eigenvalues --   -0.40811  -0.40439  -0.39893  -0.38966  -0.38883
 Alpha  occ. eigenvalues --   -0.38394  -0.38185  -0.37947  -0.37190  -0.36083
 Alpha  occ. eigenvalues --   -0.35706  -0.35150  -0.34993  -0.34144  -0.33476
 Alpha  occ. eigenvalues --   -0.32675  -0.32349  -0.32024  -0.30430  -0.30081
 Alpha  occ. eigenvalues --   -0.29621  -0.28950  -0.26741  -0.26420  -0.24070
 Alpha virt. eigenvalues --   -0.13121  -0.11887  -0.10940  -0.07229  -0.06904
 Alpha virt. eigenvalues --   -0.05600  -0.05322  -0.04765  -0.04666  -0.02917
 Alpha virt. eigenvalues --   -0.02870  -0.02311  -0.02164  -0.00259   0.00356
 Alpha virt. eigenvalues --    0.00392   0.01068   0.02121   0.02199   0.02339
 Alpha virt. eigenvalues --    0.02650   0.02781   0.03358   0.03728   0.04365
 Alpha virt. eigenvalues --    0.04770   0.04869   0.05125   0.05648   0.05763
 Alpha virt. eigenvalues --    0.06326   0.06359   0.06735   0.06918   0.07242
 Alpha virt. eigenvalues --    0.07347   0.07557   0.07770   0.08180   0.08522
 Alpha virt. eigenvalues --    0.08937   0.09204   0.09465   0.09737   0.09879
 Alpha virt. eigenvalues --    0.10019   0.10299   0.10476   0.10783   0.10951
 Alpha virt. eigenvalues --    0.11119   0.11624   0.11725   0.11792   0.11939
 Alpha virt. eigenvalues --    0.12162   0.12301   0.12717   0.12958   0.13334
 Alpha virt. eigenvalues --    0.13529   0.13576   0.13820   0.14599   0.14670
 Alpha virt. eigenvalues --    0.15015   0.15176   0.15398   0.15648   0.15815
 Alpha virt. eigenvalues --    0.16549   0.16986   0.17201   0.17367   0.17731
 Alpha virt. eigenvalues --    0.17859   0.17951   0.18303   0.18848   0.19221
 Alpha virt. eigenvalues --    0.19476   0.20871   0.21272   0.21526   0.21921
 Alpha virt. eigenvalues --    0.22323   0.22576   0.22773   0.23441   0.23953
 Alpha virt. eigenvalues --    0.24516   0.26079   0.26697   0.27164   0.27459
 Alpha virt. eigenvalues --    0.28101   0.28414   0.29617   0.31620   0.32800
 Alpha virt. eigenvalues --    0.33489   0.34280   0.35474   0.36066   0.36747
 Alpha virt. eigenvalues --    0.37353   0.38140   0.38256   0.39473   0.41058
 Alpha virt. eigenvalues --    0.41292   0.41790   0.41959   0.42365   0.42964
 Alpha virt. eigenvalues --    0.43146   0.43236   0.43810   0.44173   0.44578
 Alpha virt. eigenvalues --    0.44715   0.45341   0.45402   0.45673   0.46302
 Alpha virt. eigenvalues --    0.46605   0.47022   0.47705   0.48054   0.48304
 Alpha virt. eigenvalues --    0.48923   0.48968   0.49570   0.49890   0.50305
 Alpha virt. eigenvalues --    0.50651   0.50987   0.51187   0.51614   0.52006
 Alpha virt. eigenvalues --    0.52472   0.53111   0.53321   0.53544   0.53673
 Alpha virt. eigenvalues --    0.54221   0.54652   0.55011   0.55566   0.55652
 Alpha virt. eigenvalues --    0.56490   0.56675   0.57127   0.57449   0.57547
 Alpha virt. eigenvalues --    0.58006   0.58631   0.58861   0.59657   0.59748
 Alpha virt. eigenvalues --    0.59838   0.60093   0.60421   0.60933   0.61053
 Alpha virt. eigenvalues --    0.61246   0.61387   0.61677   0.62453   0.63026
 Alpha virt. eigenvalues --    0.63110   0.63616   0.63682   0.64016   0.64671
 Alpha virt. eigenvalues --    0.65048   0.65274   0.65470   0.65798   0.66188
 Alpha virt. eigenvalues --    0.67013   0.67233   0.67541   0.67994   0.68631
 Alpha virt. eigenvalues --    0.69792   0.70092   0.70600   0.70923   0.71273
 Alpha virt. eigenvalues --    0.71797   0.71847   0.72249   0.73014   0.73278
 Alpha virt. eigenvalues --    0.73615   0.73829   0.74009   0.74335   0.74683
 Alpha virt. eigenvalues --    0.74905   0.75041   0.75249   0.75552   0.75808
 Alpha virt. eigenvalues --    0.76444   0.76654   0.76847   0.77194   0.77486
 Alpha virt. eigenvalues --    0.77750   0.78108   0.78185   0.78406   0.78675
 Alpha virt. eigenvalues --    0.79344   0.79438   0.79981   0.80256   0.80760
 Alpha virt. eigenvalues --    0.81056   0.81268   0.81896   0.82054   0.82282
 Alpha virt. eigenvalues --    0.82717   0.82881   0.83391   0.83727   0.83881
 Alpha virt. eigenvalues --    0.84322   0.84640   0.84740   0.85067   0.85171
 Alpha virt. eigenvalues --    0.85396   0.85630   0.85862   0.86186   0.86412
 Alpha virt. eigenvalues --    0.86451   0.86650   0.87002   0.87313   0.87786
 Alpha virt. eigenvalues --    0.87861   0.88542   0.88750   0.89130   0.89408
 Alpha virt. eigenvalues --    0.89635   0.89881   0.89938   0.90607   0.90896
 Alpha virt. eigenvalues --    0.91108   0.91448   0.91929   0.92505   0.92912
 Alpha virt. eigenvalues --    0.93331   0.94055   0.94460   0.94842   0.94964
 Alpha virt. eigenvalues --    0.96241   0.96538   0.96830   0.97641   0.98414
 Alpha virt. eigenvalues --    0.98745   0.99463   1.00107   1.00155   1.00902
 Alpha virt. eigenvalues --    1.01739   1.02011   1.02222   1.02964   1.03101
 Alpha virt. eigenvalues --    1.03671   1.04713   1.05182   1.05565   1.05659
 Alpha virt. eigenvalues --    1.06255   1.07161   1.08183   1.08808   1.09379
 Alpha virt. eigenvalues --    1.10197   1.10911   1.11574   1.11887   1.12172
 Alpha virt. eigenvalues --    1.13006   1.13315   1.13987   1.14451   1.14850
 Alpha virt. eigenvalues --    1.15287   1.16700   1.17437   1.18019   1.18775
 Alpha virt. eigenvalues --    1.20139   1.20632   1.20935   1.21564   1.22222
 Alpha virt. eigenvalues --    1.23790   1.23926   1.24712   1.25652   1.26063
 Alpha virt. eigenvalues --    1.27378   1.27456   1.28202   1.29192   1.29549
 Alpha virt. eigenvalues --    1.29948   1.30463   1.31211   1.31666   1.31844
 Alpha virt. eigenvalues --    1.32002   1.33171   1.33363   1.36012   1.36166
 Alpha virt. eigenvalues --    1.36667   1.36818   1.38001   1.38458   1.38915
 Alpha virt. eigenvalues --    1.39293   1.40193   1.40759   1.41565   1.42176
 Alpha virt. eigenvalues --    1.43373   1.43381   1.43848   1.44867   1.45808
 Alpha virt. eigenvalues --    1.46163   1.46892   1.47642   1.48092   1.48820
 Alpha virt. eigenvalues --    1.49586   1.50076   1.50506   1.51039   1.52770
 Alpha virt. eigenvalues --    1.53247   1.53369   1.54668   1.54741   1.56389
 Alpha virt. eigenvalues --    1.56710   1.58050   1.58921   1.60233   1.60589
 Alpha virt. eigenvalues --    1.61573   1.61770   1.62326   1.62648   1.63110
 Alpha virt. eigenvalues --    1.63725   1.64585   1.64687   1.65202   1.65894
 Alpha virt. eigenvalues --    1.66426   1.66531   1.67039   1.67326   1.67783
 Alpha virt. eigenvalues --    1.68078   1.68634   1.69009   1.69071   1.69524
 Alpha virt. eigenvalues --    1.69971   1.70164   1.71088   1.71375   1.71690
 Alpha virt. eigenvalues --    1.72183   1.72507   1.73662   1.73892   1.74354
 Alpha virt. eigenvalues --    1.74985   1.75944   1.76243   1.76539   1.76780
 Alpha virt. eigenvalues --    1.77332   1.77532   1.77711   1.78335   1.78407
 Alpha virt. eigenvalues --    1.78976   1.79424   1.79938   1.80385   1.80946
 Alpha virt. eigenvalues --    1.81412   1.81794   1.82352   1.83052   1.83236
 Alpha virt. eigenvalues --    1.83448   1.83718   1.84538   1.84859   1.85089
 Alpha virt. eigenvalues --    1.85683   1.85741   1.86084   1.86722   1.87438
 Alpha virt. eigenvalues --    1.88157   1.88397   1.88504   1.89061   1.89661
 Alpha virt. eigenvalues --    1.89752   1.90014   1.90929   1.91413   1.91714
 Alpha virt. eigenvalues --    1.92353   1.93083   1.93115   1.93538   1.93674
 Alpha virt. eigenvalues --    1.94370   1.95580   1.95799   1.95954   1.96329
 Alpha virt. eigenvalues --    1.97225   1.97454   1.98422   1.98590   1.98827
 Alpha virt. eigenvalues --    1.99249   2.00143   2.00369   2.00578   2.00839
 Alpha virt. eigenvalues --    2.01257   2.01965   2.02808   2.03589   2.03863
 Alpha virt. eigenvalues --    2.04175   2.04599   2.04976   2.06298   2.06606
 Alpha virt. eigenvalues --    2.07421   2.08288   2.08661   2.09108   2.10080
 Alpha virt. eigenvalues --    2.10718   2.11041   2.11807   2.12149   2.12252
 Alpha virt. eigenvalues --    2.12485   2.13625   2.13906   2.14734   2.15631
 Alpha virt. eigenvalues --    2.15942   2.16256   2.16977   2.17252   2.18513
 Alpha virt. eigenvalues --    2.18834   2.19643   2.20877   2.21083   2.21779
 Alpha virt. eigenvalues --    2.22345   2.23423   2.24399   2.25267   2.25420
 Alpha virt. eigenvalues --    2.25499   2.26213   2.27061   2.27726   2.28423
 Alpha virt. eigenvalues --    2.28588   2.28971   2.29352   2.30803   2.31101
 Alpha virt. eigenvalues --    2.31611   2.32366   2.32754   2.32898   2.34001
 Alpha virt. eigenvalues --    2.35268   2.35941   2.37081   2.37451   2.38468
 Alpha virt. eigenvalues --    2.38779   2.39273   2.39570   2.39985   2.41136
 Alpha virt. eigenvalues --    2.41711   2.41872   2.42434   2.43138   2.43335
 Alpha virt. eigenvalues --    2.44923   2.45333   2.45630   2.47645   2.48340
 Alpha virt. eigenvalues --    2.50170   2.50261   2.50788   2.50919   2.52174
 Alpha virt. eigenvalues --    2.53055   2.53224   2.54743   2.55416   2.56231
 Alpha virt. eigenvalues --    2.56497   2.57656   2.57967   2.58694   2.58822
 Alpha virt. eigenvalues --    2.60229   2.61659   2.62072   2.62393   2.64627
 Alpha virt. eigenvalues --    2.65434   2.65701   2.66900   2.67351   2.68289
 Alpha virt. eigenvalues --    2.68922   2.69721   2.69780   2.70577   2.71210
 Alpha virt. eigenvalues --    2.73251   2.75208   2.76601   2.78346   2.79663
 Alpha virt. eigenvalues --    2.80906   2.81645   2.82940   2.85099   2.85799
 Alpha virt. eigenvalues --    2.86363   2.87350   2.88863   2.89218   2.89971
 Alpha virt. eigenvalues --    2.91739   2.92543   2.93044   2.95308   2.95740
 Alpha virt. eigenvalues --    2.96725   2.96803   2.99969   3.01072   3.02630
 Alpha virt. eigenvalues --    3.07006   3.09973   3.10708   3.13378   3.15622
 Alpha virt. eigenvalues --    3.19191   3.62023   3.72820   3.75188   3.78482
 Alpha virt. eigenvalues --    3.87033   3.90650   3.94782   3.96432   3.97233
 Alpha virt. eigenvalues --    3.99129   3.99497   4.00081   4.01997   4.06297
 Alpha virt. eigenvalues --    4.07429   4.10632   4.11242   4.11428   4.13805
 Alpha virt. eigenvalues --    4.14853   4.18023   4.19188   4.20141   4.20994
 Alpha virt. eigenvalues --    4.21829   4.22390   4.25817   4.27510   4.28200
 Alpha virt. eigenvalues --    4.30044   4.30500   4.33761   4.34624   4.37567
 Alpha virt. eigenvalues --    4.38768   4.41066   4.41816   4.44880   4.48310
 Alpha virt. eigenvalues --    4.49100   4.49937   4.52228   4.53015   4.54704
 Alpha virt. eigenvalues --    4.59992   4.61766   4.63276   4.65142
          Condensed to atoms (all electrons):
 Mulliken charges:
               1
     1  N   -0.750914
     2  H    0.419197
     3  H    0.416438
     4  H    0.434802
     5  C   -0.120318
     6  H    0.216285
     7  C    0.652972
     8  C   -0.376489
     9  H    0.184984
    10  H    0.211288
    11  O   -0.536458
    12  C    0.581584
    13  N   -0.736480
    14  H    0.393917
    15  H    0.348419
    16  O   -0.468876
    17  N   -0.580998
    18  H    0.374076
    19  C   -0.085778
    20  H    0.195140
    21  C    0.674375
    22  C   -0.078155
    23  H    0.150369
    24  O   -0.589083
    25  C   -0.272185
    26  H    0.158923
    27  H    0.125402
    28  C   -0.452388
    29  H    0.134381
    30  H    0.170796
    31  H    0.161920
    32  C   -0.452678
    33  H    0.159706
    34  H    0.156564
    35  H    0.154399
    36  N   -0.610076
    37  H    0.365251
    38  C   -0.052373
    39  H    0.182757
    40  C    0.633278
    41  C   -0.452592
    42  H    0.164558
    43  H    0.178220
    44  H    0.175107
    45  O   -0.551144
    46  N   -0.602188
    47  H    0.351909
    48  C   -0.083908
    49  H    0.180817
    50  C    0.633444
    51  C    0.115456
    52  H    0.150554
    53  O   -0.544136
    54  C   -0.449159
    55  H    0.148404
    56  H    0.173849
    57  H    0.145429
    58  O   -0.653915
    59  H    0.424438
    60  N   -0.616317
    61  H    0.369294
    62  C   -0.074000
    63  H    0.229649
    64  C    0.557844
    65  C   -0.039229
    66  H    0.132115
    67  H    0.168167
    68  O   -0.520483
    69  O   -0.659086
    70  H    0.447645
    71  N   -0.624961
    72  H    0.372042
    73  C   -0.214145
    74  H    0.181526
    75  H    0.217263
    76  C    0.598523
    77  O   -0.623364
    78  N   -0.556450
    79  H    0.375708
    80  C   -0.099677
    81  H    0.115249
    82  C    0.602777
    83  C   -0.263617
    84  H    0.161742
    85  H    0.171987
    86  O   -0.540148
    87  C   -0.285076
    88  H    0.146381
    89  H    0.161349
    90  C   -0.284939
    91  H    0.183537
    92  H    0.146634
    93  C   -0.191522
    94  H    0.188140
    95  H    0.229664
    96  N   -0.773026
    97  H    0.392274
    98  H    0.386536
    99  H    0.465964
   100  O   -0.635088
 Sum of Mulliken charges =   1.00000
 Mulliken charges with hydrogens summed into heavy atoms:
               1
     1  N    0.519523
     5  C    0.095968
     7  C    0.652972
     8  C    0.019784
    11  O   -0.536458
    12  C    0.581584
    13  N    0.005856
    16  O   -0.468876
    17  N   -0.206922
    19  C    0.109363
    21  C    0.674375
    22  C    0.072213
    24  O   -0.589083
    25  C    0.012140
    28  C    0.014709
    32  C    0.017990
    36  N   -0.244825
    38  C    0.130384
    40  C    0.633278
    41  C    0.065294
    45  O   -0.551144
    46  N   -0.250279
    48  C    0.096909
    50  C    0.633444
    51  C    0.266009
    53  O   -0.544136
    54  C    0.018523
    58  O   -0.229477
    60  N   -0.247022
    62  C    0.155649
    64  C    0.557844
    65  C    0.261053
    68  O   -0.520483
    69  O   -0.211440
    71  N   -0.252920
    73  C    0.184644
    76  C    0.598523
    77  O   -0.623364
    78  N   -0.180742
    80  C    0.015573
    82  C    0.602777
    83  C    0.070111
    86  O   -0.540148
    87  C    0.022654
    90  C    0.045232
    93  C    0.226282
    96  N    0.471748
   100  O   -0.635088
 Electronic spatial extent (au):  <R**2>=          57176.1683
 Charge=              1.0000 electrons
 Dipole moment (field-independent basis, Debye):
    X=            -10.9426    Y=             25.0587    Z=              9.4012  Tot=             28.9148
 Quadrupole moment (field-independent basis, Debye-Ang):
   XX=             84.3972   YY=           -157.6841   ZZ=           -251.7149
   XY=            -48.2760   XZ=           -156.1260   YZ=             -3.7961
 Traceless Quadrupole moment (field-independent basis, Debye-Ang):
   XX=            192.7311   YY=            -49.3502   ZZ=           -143.3810
   XY=            -48.2760   XZ=           -156.1260   YZ=             -3.7961
 Octapole moment (field-independent basis, Debye-Ang**2):
  XXX=            119.5798  YYY=            226.5719  ZZZ=           1197.9219  XYY=           -634.9901
  XXY=           1343.1837  XXZ=           -483.0486  XZZ=            -66.6514  YZZ=            339.5367
  YYZ=            431.2071  XYZ=           -794.1528
 Hexadecapole moment (field-independent basis, Debye-Ang**3):
 XXXX=         -11104.5592 YYYY=          -7094.7309 ZZZZ=         -24010.9241 XXXY=           2365.3865
 XXXZ=          -2310.0351 YYYX=          -1872.1761 YYYZ=            320.1685 ZZZX=           9887.4309
 ZZZY=          -1891.0647 XXYY=          -1782.0520 XXZZ=          -2644.7567 YYZZ=          -3740.1547
 XXYZ=          -2243.1096 YYXZ=            737.7561 ZZXY=           2054.0823
 N-N= 6.487394134600D+03 E-N=-1.859060649721D+04  KE= 2.396367992497D+03
 Unable to Open any file for archive entry.
 1\1\GINC-AMR-081\SP\RB3LYP\6-31G(d)\C28H52N9O11(1+)\KENGMITH\06-Jun-20
 22\0\\# B3LYP/6-31G* empiricaldispersion=gd3 guess=read geom=check nos
 ymm integral(ultrafinegrid)\\Candidate Structure: Conf:962 Charge calc
  in gas phase\\1,1\N,0,-5.8148989382,5.5230119847,3.1344746349\H,0,-6.
 3020112881,5.5170852053,4.036123753\H,0,-6.22414335,6.2500226388,2.541
 2971694\H,0,-4.778686498,5.6981327656,3.3168385864\C,0,-5.7582602567,4
 .1566620449,2.4796003243\H,0,-6.601160483,3.5588167759,2.8310607922\C,
 0,-4.3906669788,3.6109016432,2.9835850847\C,0,-5.77738908,4.3253529693
 ,0.9429549891\H,0,-6.7922291391,4.5790226693,0.613417997\H,0,-5.092342
 4774,5.1279117288,0.6542920225\O,0,-3.5581421892,4.4566786914,3.340049
 6997\C,0,-5.2346331283,3.045512998,0.2771514601\N,0,-6.1231742033,2.02
 49449205,0.1714221441\H,0,-5.7579764205,1.1133719765,-0.0820253673\H,0
 ,-7.1235414022,2.1532496726,0.2147710151\O,0,-4.0468546075,2.954519203
 7,0.0162551107\N,0,-4.2395831638,2.2930300866,2.9650008045\H,0,-4.9555
 744267,1.7038245035,2.5313114132\C,0,-2.9296424318,1.6308599275,2.9198
 415097\H,0,-2.1901315154,2.3841566971,2.6316152527\C,0,-3.0720884405,0
 .5830922198,1.7946028514\C,0,-2.5191681917,0.9950388148,4.2725795131\H
 ,0,-1.5569786536,0.4972697669,4.0822728183\O,0,-4.1959766789,0.2009005
 414,1.4369626677\C,0,-3.5278729248,-0.0762741088,4.7318625143\H,0,-3.7
 246341426,-0.7695611608,3.9050806652\H,0,-4.4868377715,0.4138340768,4.
 9536856915\C,0,-2.2944410984,2.0909035603,5.3235837293\H,0,-3.23965051
 01,2.5853188385,5.5778754872\H,0,-1.8777149536,1.6712674587,6.24297603
 84\H,0,-1.6046720507,2.8594596468,4.9601074334\C,0,-3.0644366777,-0.87
 79260795,5.9530087803\H,0,-3.7809963487,-1.6721178345,6.1867021197\H,0
 ,-2.0926903511,-1.3508079706,5.7669219161\H,0,-2.9663466656,-0.2507923
 729,6.8449937186\N,0,-1.9269820539,0.1208567458,1.2883435657\H,0,-1.01
 5737974,0.4310895612,1.6174495762\C,0,-1.8732792163,-0.849388592,0.204
 9250729\H,0,-2.6312836198,-1.6176515339,0.3900331115\C,0,-0.460688347,
 -1.4513938686,0.2407563426\C,0,-2.1276803367,-0.1777245845,-1.15804162
 91\H,0,-2.1846854601,-0.9236436623,-1.9570901856\H,0,-3.0658358223,0.3
 81918783,-1.1225972873\H,0,-1.3165882517,0.519257848,-1.3925885324\O,0
 ,0.4508577711,-0.8740029028,0.841928119\N,0,-0.3001267509,-2.589517593
 7,-0.457052838\H,0,-1.0535440134,-2.9831819883,-1.0127500706\C,0,1.009
 6979179,-3.1773697813,-0.7356165086\H,0,1.6287465833,-3.073485877,0.16
 04447658\C,0,1.6373051864,-2.4097112595,-1.9211981505\C,0,0.8016571195
 ,-4.6623607692,-1.1032678819\H,0,1.7648123915,-5.0467841053,-1.4679083
 406\O,0,1.5651465017,-2.8417287913,-3.0767571099\C,0,0.328149329,-5.49
 89888493,0.0762640653\H,0,1.0726579951,-5.4979662558,0.8796144875\H,0,
 0.1628944493,-6.5290506663,-0.2510597706\H,0,-0.6150050309,-5.11052830
 68,0.474678697\O,0,-0.1870250865,-4.7469537474,-2.1273857998\H,0,0.219
 9725544,-4.2933182263,-2.8942598072\N,0,2.1928153299,-1.2242484741,-1.
 6018052421\H,0,2.2883013398,-0.9637686398,-0.6259421254\C,0,2.82519111
 56,-0.3652558364,-2.5894147556\H,0,3.4330806031,-0.9881727366,-3.26159
 11214\C,0,3.8153715204,0.5507327315,-1.8472929884\C,0,1.7710777287,0.3
 398528401,-3.482332385\H,0,1.152115515,1.0022069476,-2.8645914586\H,0,
 1.1293297288,-0.4448031869,-3.9013905685\O,0,4.2989710396,0.229598172,
 -0.7666003185\O,0,2.3480258909,1.138382646,-4.5023196939\H,0,2.9541378
 848,0.5695792799,-5.0526957108\N,0,4.1517858889,1.6863034706,-2.526676
 3484\H,0,3.6449538745,1.8348481413,-3.4071138139\C,0,5.40538344,2.3735
 959591,-2.3077042163\H,0,5.2706418643,3.4569560088,-2.2307548512\H,0,5
 .8329431514,2.0181649441,-1.3646966064\C,0,6.391380337,2.1238809576,-3
 .4583087161\O,0,7.2921568049,2.9762220644,-3.6852741881\N,0,6.20261037
 54,1.0102997911,-4.1486923025\H,0,5.3382604992,0.4773589561,-3.9906075
 383\C,0,6.6287659064,0.7149196085,-5.5115649283\H,0,6.8494901687,1.656
 523343,-6.0222692229\C,0,5.372715429,0.0859158561,-6.2442561525\C,0,7.
 8128702704,-0.259573354,-5.5664551951\H,0,7.5000258369,-1.1692973459,-
 5.0403765405\H,0,7.9520429314,-0.5418271973,-6.6167994591\O,0,5.485458
 7515,-0.0262858866,-7.463724154\C,0,9.1289824748,0.25019269,-4.9488378
 523\H,0,8.9117274596,0.8556614654,-4.0586982912\H,0,9.7123373275,-0.60
 39354054,-4.5855546043\C,0,10.0434008149,1.0223497846,-5.9175467853\H,
 0,10.3344341616,0.3595824869,-6.7419706481\H,0,10.9772817403,1.3021353
 906,-5.408123554\C,0,9.4435695406,2.2665010795,-6.5670947695\H,0,10.15
 97109793,2.739858378,-7.2452509949\H,0,8.5388734809,2.0343531977,-7.13
 17448758\N,0,9.0606877246,3.2953873364,-5.5314132893\H,0,8.7178942062,
 4.1537263582,-5.9715084002\H,0,9.8732414629,3.5530565147,-4.9633303235
 \H,0,8.2731732021,2.9856959754,-4.8130880874\O,0,4.4220633999,-0.23960
 78983,-5.4535941942\\Version=ES64L-G16RevC.01\HF=-2418.5494025\RMSD=7.
 338e-10\Dipole=-6.1408612,8.8117291,5.6316633\Quadrupole=143.2908767,-
 36.6906497,-106.600227,-35.8920507,-116.0758588,-2.8223429\PG=C01 [X(C
 28H52N9O11)]\\@
 The archive entry for this job was punched.


 There was a great rattling of the words for the fewness of ideas.
                   -- Charles Baxter in Gryphon
 Job cpu time:       0 days  0 hours  4 minutes 28.7 seconds.
 Elapsed time:       0 days  0 hours  1 minutes  8.8 seconds.
 File lengths (MBytes):  RWF=    472 Int=      0 D2E=      0 Chk=     72 Scr=     16
 Normal termination of Gaussian 16 at Mon Jun  6 08:11:16 2022.
