 Entering Gaussian System, Link 0=/opt/software/Gaussian/g16-AVX2-C.01/g16/g16
 Input=charge-conf-472.com
 Output=charge-conf-472.log
 Initial command:
 /opt/software/Gaussian/g16-AVX2-C.01/g16/l1.exe "/mnt/gs18/scratch/users/kengmith/Gau-28917.inp" -scrdir="/mnt/gs18/scratch/users/kengmith/"
 Entering Link 1 = /opt/software/Gaussian/g16-AVX2-C.01/g16/l1.exe PID=     28929.
  
 Copyright (c) 1988-2019, Gaussian, Inc.  All Rights Reserved.
  
 This is part of the Gaussian(R) 16 program.  It is based on
 the Gaussian(R) 09 system (copyright 2009, Gaussian, Inc.),
 the Gaussian(R) 03 system (copyright 2003, Gaussian, Inc.),
 the Gaussian(R) 98 system (copyright 1998, Gaussian, Inc.),
 the Gaussian(R) 94 system (copyright 1995, Gaussian, Inc.),
 the Gaussian 92(TM) system (copyright 1992, Gaussian, Inc.),
 the Gaussian 90(TM) system (copyright 1990, Gaussian, Inc.),
 the Gaussian 88(TM) system (copyright 1988, Gaussian, Inc.),
 the Gaussian 86(TM) system (copyright 1986, Carnegie Mellon
 University), and the Gaussian 82(TM) system (copyright 1983,
 Carnegie Mellon University). Gaussian is a federally registered
 trademark of Gaussian, Inc.
  
 This software contains proprietary and confidential information,
 including trade secrets, belonging to Gaussian, Inc.
  
 This software is provided under written license and may be
 used, copied, transmitted, or stored only in accord with that
 written license.
  
 The following legend is applicable only to US Government
 contracts under FAR:
  
                    RESTRICTED RIGHTS LEGEND
  
 Use, reproduction and disclosure by the US Government is
 subject to restrictions as set forth in subparagraphs (a)
 and (c) of the Commercial Computer Software - Restricted
 Rights clause in FAR 52.227-19.
  
 Gaussian, Inc.
 340 Quinnipiac St., Bldg. 40, Wallingford CT 06492
  
  
 ---------------------------------------------------------------
 Warning -- This program may not be used in any manner that
 competes with the business of Gaussian, Inc. or will provide
 assistance to any competitor of Gaussian, Inc.  The licensee
 of this program is prohibited from giving any competitor of
 Gaussian, Inc. access to this program.  By using this program,
 the user acknowledges that Gaussian, Inc. is engaged in the
 business of creating and licensing software in the field of
 computational chemistry and represents and warrants to the
 licensee that it is not a competitor of Gaussian, Inc. and that
 it will not use this program in any manner prohibited above.
 ---------------------------------------------------------------
  

 Cite this work as:
 Gaussian 16, Revision C.01,
 M. J. Frisch, G. W. Trucks, H. B. Schlegel, G. E. Scuseria, 
 M. A. Robb, J. R. Cheeseman, G. Scalmani, V. Barone, 
 G. A. Petersson, H. Nakatsuji, X. Li, M. Caricato, A. V. Marenich, 
 J. Bloino, B. G. Janesko, R. Gomperts, B. Mennucci, H. P. Hratchian, 
 J. V. Ortiz, A. F. Izmaylov, J. L. Sonnenberg, D. Williams-Young, 
 F. Ding, F. Lipparini, F. Egidi, J. Goings, B. Peng, A. Petrone, 
 T. Henderson, D. Ranasinghe, V. G. Zakrzewski, J. Gao, N. Rega, 
 G. Zheng, W. Liang, M. Hada, M. Ehara, K. Toyota, R. Fukuda, 
 J. Hasegawa, M. Ishida, T. Nakajima, Y. Honda, O. Kitao, H. Nakai, 
 T. Vreven, K. Throssell, J. A. Montgomery, Jr., J. E. Peralta, 
 F. Ogliaro, M. J. Bearpark, J. J. Heyd, E. N. Brothers, K. N. Kudin, 
 V. N. Staroverov, T. A. Keith, R. Kobayashi, J. Normand, 
 K. Raghavachari, A. P. Rendell, J. C. Burant, S. S. Iyengar, 
 J. Tomasi, M. Cossi, J. M. Millam, M. Klene, C. Adamo, R. Cammi, 
 J. W. Ochterski, R. L. Martin, K. Morokuma, O. Farkas, 
 J. B. Foresman, and D. J. Fox, Gaussian, Inc., Wallingford CT, 2019.
 
 ******************************************
 Gaussian 16:  ES64L-G16RevC.01  3-Jul-2019
                26-May-2022 
 ******************************************
 %mem=8gb
 %nproc=4
 Will use up to    4 processors via shared memory.
 %chk=conf-472.chk
 -------------------------------------------------------------------
 # B3LYP/6-31G* guess=read geom=check nosymm integral(ultrafinegrid)
 -------------------------------------------------------------------
 1/29=2,38=1,172=1/1;
 2/12=2,15=1,40=1/2;
 3/5=1,6=6,7=1,11=2,14=-4,25=1,30=1,74=-5,75=-5,116=-2/1,2,3;
 4/5=1/1;
 5/5=2,38=6/2;
 6/7=2,8=2,9=2,10=2,28=1/1;
 99/5=1,9=1/99;
 ------------------------------------------------------
 Candidate Structure: Conf:472 Charge calc in gas phase
 ------------------------------------------------------
 Structure from the checkpoint file:  "conf-472.chk"
 Charge =  1 Multiplicity = 1
 Redundant internal coordinates found in file.  (old form).
 N,0,-1.8071907648,-0.7863209189,-4.8430182697
 H,0,-2.8304041834,-0.7939880643,-4.7908948438
 H,0,-1.465250293,0.1967110194,-4.627074186
 H,0,-1.5251265528,-1.0843065766,-5.7811787145
 C,0,-1.1518376888,-1.5855149565,-3.7290042423
 H,0,-1.8592766462,-2.3275322428,-3.3603268304
 C,0,-0.8559278269,-0.4825046748,-2.6777028937
 C,0,0.1192875704,-2.2516464467,-4.3006116312
 H,0,0.7291079682,-1.475816684,-4.7803209388
 H,0,-0.1959875208,-2.9559246749,-5.0822801665
 O,0,-0.7863598934,0.6857211308,-3.0906178671
 C,0,1.0290582497,-2.9804064202,-3.2892560094
 H,0,1.8472904765,-3.4527250212,-3.8371468614
 H,0,1.4683862719,-2.2504246887,-2.5942667178
 C,0,0.3072119118,-4.0132933275,-2.455432338
 O,0,-0.7003059554,-3.7794755916,-1.7981716301
 O,0,0.8869150889,-5.2135593929,-2.4819780166
 N,0,-0.705396662,-0.8810115478,-1.4188077279
 H,0,-0.7294287111,-1.8875528664,-1.2459637585
 C,0,-0.1550854966,-0.0022393934,-0.3831125569
 H,0,-0.7205194172,0.9337511722,-0.4096786231
 C,0,1.3315880305,0.2728838092,-0.7243893253
 C,0,-0.3246788592,-0.7091600885,0.9804807772
 H,0,0.3111344912,-1.6051933331,0.9739233653
 H,0,-1.3652378617,-1.0577123113,1.0391054277
 O,0,1.993448899,-0.5442506777,-1.3649464991
 C,0,-0.0153407544,0.1248145758,2.2406179499
 H,0,1.0156905645,0.4950134896,2.1742602453
 C,0,-0.9539532949,1.3328097902,2.3905189037
 H,0,-2.0016962263,1.0118318577,2.4514023842
 H,0,-0.7237577795,1.8864813656,3.3065948845
 H,0,-0.8759571523,2.044511707,1.5586796612
 C,0,-0.1039754208,-0.7804643636,3.4795749823
 H,0,-1.116690962,-1.1847104481,3.6029374713
 H,0,0.5898432611,-1.6259981513,3.4095498265
 H,0,0.1421268958,-0.2205490918,4.3878807011
 N,0,1.8296471484,1.4386843566,-0.2568225222
 H,0,1.2356955612,2.0539256685,0.2828092293
 C,0,3.2382810217,1.805278341,-0.3885858858
 H,0,3.7603939857,0.9050291176,-0.719905325
 C,0,3.8593364744,2.2068500559,0.9472008717
 C,0,3.4776211074,2.9244552851,-1.4310366899
 H,0,3.1877661605,2.5275831756,-2.4122588926
 H,0,4.5591248172,3.1024932448,-1.4610682849
 O,0,5.0483415274,2.2823243914,1.1317345885
 C,0,2.7383807705,4.2370399733,-1.1424994999
 H,0,1.6517000102,4.0777091192,-1.2048962459
 H,0,2.964936353,4.5984600549,-0.1340326129
 C,0,3.1444031847,5.3466189488,-2.1274200207
 H,0,2.9509460644,5.0307742419,-3.1606200686
 H,0,4.2178337251,5.5330218676,-2.0324019797
 N,0,2.4694507183,6.6211211849,-1.9274111307
 H,0,1.4872911836,6.6374893251,-2.1752517213
 N,0,1.9712736723,8.5449730777,-0.7484105719
 H,0,2.2629802006,9.2085194682,-0.040858081
 H,0,1.8183671617,9.0027835426,-1.641431926
 N,0,3.7008228038,7.0396375479,0.000605035
 H,0,3.9078833293,7.7798398201,0.6725236985
 C,0,2.7831831704,7.4034127343,-0.8210265717
 O,0,2.9348377112,2.5187238924,1.8922514154
 H,0,3.4325814398,2.8187003,2.6776149936
 H,0,0.3891403711,-5.8049527285,-1.8826133431
 Recover connectivity data from disk.
                           ----------------------------
                           !    Current Parameters    !
                           ! (Angstroms and Degrees)  !
 --------------------------                            --------------------------
 ! Name  Definition              Value                                          !
 --------------------------------------------------------------------------------
 ! R1    R(1,2)                  1.0246                                         !
 ! R2    R(1,3)                  1.063                                          !
 ! R3    R(1,4)                  1.024                                          !
 ! R4    R(1,5)                  1.5196                                         !
 ! R5    R(5,6)                  1.0895                                         !
 ! R6    R(5,7)                  1.5522                                         !
 ! R7    R(5,8)                  1.5447                                         !
 ! R8    R(7,11)                 1.241                                          !
 ! R9    R(7,18)                 1.329                                          !
 ! R10   R(8,9)                  1.0972                                         !
 ! R11   R(8,10)                 1.0984                                         !
 ! R12   R(8,12)                 1.5432                                         !
 ! R13   R(12,13)                1.0921                                         !
 ! R14   R(12,14)                1.0995                                         !
 ! R15   R(12,15)                1.511                                          !
 ! R16   R(15,16)                1.2255                                         !
 ! R17   R(15,17)                1.3332                                         !
 ! R18   R(17,62)                0.9781                                         !
 ! R19   R(18,19)                1.0216                                         !
 ! R20   R(18,20)                1.4655                                         !
 ! R21   R(20,21)                1.0938                                         !
 ! R22   R(20,22)                1.55                                           !
 ! R23   R(20,23)                1.5453                                         !
 ! R24   R(22,26)                1.2313                                         !
 ! R25   R(22,37)                1.3512                                         !
 ! R26   R(23,24)                1.0987                                         !
 ! R27   R(23,25)                1.0989                                         !
 ! R28   R(23,27)                1.5424                                         !
 ! R29   R(27,28)                1.0975                                         !
 ! R30   R(27,29)                1.5371                                         !
 ! R31   R(27,33)                1.537                                          !
 ! R32   R(29,30)                1.0975                                         !
 ! R33   R(29,31)                1.0949                                         !
 ! R34   R(29,32)                1.0975                                         !
 ! R35   R(33,34)                1.0974                                         !
 ! R36   R(33,35)                1.096                                          !
 ! R37   R(33,36)                1.095                                          !
 ! R38   R(37,38)                1.0112                                         !
 ! R39   R(37,39)                1.4615                                         !
 ! R40   R(39,40)                1.0922                                         !
 ! R41   R(39,41)                1.5269                                         !
 ! R42   R(39,42)                1.5481                                         !
 ! R43   R(41,45)                1.2056                                         !
 ! R44   R(41,60)                1.3583                                         !
 ! R45   R(42,43)                1.0974                                         !
 ! R46   R(42,44)                1.0965                                         !
 ! R47   R(42,46)                1.5338                                         !
 ! R48   R(46,47)                1.1001                                         !
 ! R49   R(46,48)                1.095                                          !
 ! R50   R(46,49)                1.5382                                         !
 ! R51   R(49,50)                1.0976                                         !
 ! R52   R(49,51)                1.0936                                         !
 ! R53   R(49,52)                1.456                                          !
 ! R54   R(52,53)                1.0131                                         !
 ! R55   R(52,59)                1.3909                                         !
 ! R56   R(54,55)                1.0129                                         !
 ! R57   R(54,56)                1.0151                                         !
 ! R58   R(54,59)                1.4027                                         !
 ! R59   R(57,58)                1.0209                                         !
 ! R60   R(57,59)                1.2843                                         !
 ! R61   R(60,61)                0.977                                          !
 ! A1    A(2,1,3)              108.5326                                         !
 ! A2    A(2,1,4)              108.6346                                         !
 ! A3    A(2,1,5)              112.921                                          !
 ! A4    A(3,1,4)              111.5088                                         !
 ! A5    A(3,1,5)              101.4615                                         !
 ! A6    A(4,1,5)              113.5666                                         !
 ! A7    A(1,5,6)              109.0401                                         !
 ! A8    A(1,5,7)              101.8299                                         !
 ! A9    A(1,5,8)              108.0831                                         !
 ! A10   A(6,5,7)              112.2446                                         !
 ! A11   A(6,5,8)              111.4593                                         !
 ! A12   A(7,5,8)              113.5892                                         !
 ! A13   A(5,7,11)             117.0173                                         !
 ! A14   A(5,7,18)             116.748                                          !
 ! A15   A(11,7,18)            126.2343                                         !
 ! A16   A(5,8,9)              108.3129                                         !
 ! A17   A(5,8,10)             107.6768                                         !
 ! A18   A(5,8,12)             116.5023                                         !
 ! A19   A(9,8,10)             107.5642                                         !
 ! A20   A(9,8,12)             107.0241                                         !
 ! A21   A(10,8,12)            109.4391                                         !
 ! A22   A(8,12,13)            108.4892                                         !
 ! A23   A(8,12,14)            109.65                                           !
 ! A24   A(8,12,15)            113.754                                          !
 ! A25   A(13,12,14)           107.7504                                         !
 ! A26   A(13,12,15)           109.8232                                         !
 ! A27   A(14,12,15)           107.2123                                         !
 ! A28   A(12,15,16)           123.9385                                         !
 ! A29   A(12,15,17)           113.3722                                         !
 ! A30   A(16,15,17)           122.6801                                         !
 ! A31   A(15,17,62)           108.1101                                         !
 ! A32   A(7,18,19)            116.9395                                         !
 ! A33   A(7,18,20)            122.151                                          !
 ! A34   A(19,18,20)           118.6906                                         !
 ! A35   A(18,20,21)           107.5673                                         !
 ! A36   A(18,20,22)           108.1198                                         !
 ! A37   A(18,20,23)           107.9443                                         !
 ! A38   A(21,20,22)           109.7905                                         !
 ! A39   A(21,20,23)           110.8641                                         !
 ! A40   A(22,20,23)           112.3813                                         !
 ! A41   A(20,22,26)           120.8195                                         !
 ! A42   A(20,22,37)           115.4998                                         !
 ! A43   A(26,22,37)           123.6734                                         !
 ! A44   A(20,23,24)           107.7163                                         !
 ! A45   A(20,23,25)           107.2228                                         !
 ! A46   A(20,23,27)           116.8438                                         !
 ! A47   A(24,23,25)           106.834                                          !
 ! A48   A(24,23,27)           109.2543                                         !
 ! A49   A(25,23,27)           108.5299                                         !
 ! A50   A(23,27,28)           108.747                                          !
 ! A51   A(23,27,29)           112.4653                                         !
 ! A52   A(23,27,33)           109.1794                                         !
 ! A53   A(28,27,29)           108.3284                                         !
 ! A54   A(28,27,33)           107.553                                          !
 ! A55   A(29,27,33)           110.4294                                         !
 ! A56   A(27,29,30)           111.0092                                         !
 ! A57   A(27,29,31)           110.5259                                         !
 ! A58   A(27,29,32)           113.0982                                         !
 ! A59   A(30,29,31)           107.5898                                         !
 ! A60   A(30,29,32)           107.43                                           !
 ! A61   A(31,29,32)           106.9351                                         !
 ! A62   A(27,33,34)           111.1496                                         !
 ! A63   A(27,33,35)           111.4925                                         !
 ! A64   A(27,33,36)           110.7632                                         !
 ! A65   A(34,33,35)           107.8906                                         !
 ! A66   A(34,33,36)           107.609                                          !
 ! A67   A(35,33,36)           107.7699                                         !
 ! A68   A(22,37,38)           119.5446                                         !
 ! A69   A(22,37,39)           122.7166                                         !
 ! A70   A(38,37,39)           117.4922                                         !
 ! A71   A(37,39,40)           106.3409                                         !
 ! A72   A(37,39,41)           112.2801                                         !
 ! A73   A(37,39,42)           113.0205                                         !
 ! A74   A(40,39,41)           106.7226                                         !
 ! A75   A(40,39,42)           108.5253                                         !
 ! A76   A(41,39,42)           109.6389                                         !
 ! A77   A(39,41,45)           123.4718                                         !
 ! A78   A(39,41,60)           113.0927                                         !
 ! A79   A(45,41,60)           123.3926                                         !
 ! A80   A(39,42,43)           107.4458                                         !
 ! A81   A(39,42,44)           106.7577                                         !
 ! A82   A(39,42,46)           114.6757                                         !
 ! A83   A(43,42,44)           107.1426                                         !
 ! A84   A(43,42,46)           110.5106                                         !
 ! A85   A(44,42,46)           109.9732                                         !
 ! A86   A(42,46,47)           109.9669                                         !
 ! A87   A(42,46,48)           110.8547                                         !
 ! A88   A(42,46,49)           111.6928                                         !
 ! A89   A(47,46,48)           107.7241                                         !
 ! A90   A(47,46,49)           109.2023                                         !
 ! A91   A(48,46,49)           107.278                                          !
 ! A92   A(46,49,50)           110.4043                                         !
 ! A93   A(46,49,51)           109.0504                                         !
 ! A94   A(46,49,52)           114.9045                                         !
 ! A95   A(50,49,51)           107.6882                                         !
 ! A96   A(50,49,52)           107.4274                                         !
 ! A97   A(51,49,52)           107.0899                                         !
 ! A98   A(49,52,53)           115.4648                                         !
 ! A99   A(49,52,59)           119.8049                                         !
 ! A100  A(53,52,59)           113.8409                                         !
 ! A101  A(55,54,56)           111.2508                                         !
 ! A102  A(55,54,59)           113.7401                                         !
 ! A103  A(56,54,59)           114.1214                                         !
 ! A104  A(58,57,59)           111.1372                                         !
 ! A105  A(52,59,54)           111.614                                          !
 ! A106  A(52,59,57)           120.7137                                         !
 ! A107  A(54,59,57)           127.6581                                         !
 ! A108  A(41,60,61)           106.4407                                         !
 ! D1    D(2,1,5,6)             23.5992                                         !
 ! D2    D(2,1,5,7)            -95.1808                                         !
 ! D3    D(2,1,5,8)            144.9186                                         !
 ! D4    D(3,1,5,6)            139.5658                                         !
 ! D5    D(3,1,5,7)             20.7858                                         !
 ! D6    D(3,1,5,8)            -99.1148                                         !
 ! D7    D(4,1,5,6)           -100.6599                                         !
 ! D8    D(4,1,5,7)            140.5601                                         !
 ! D9    D(4,1,5,8)             20.6595                                         !
 ! D10   D(1,5,7,11)           -22.0891                                         !
 ! D11   D(1,5,7,18)           157.7051                                         !
 ! D12   D(6,5,7,11)          -138.5622                                         !
 ! D13   D(6,5,7,18)            41.232                                          !
 ! D14   D(8,5,7,11)            93.856                                          !
 ! D15   D(8,5,7,18)           -86.3498                                         !
 ! D16   D(1,5,8,9)             52.4336                                         !
 ! D17   D(1,5,8,10)           -63.613                                          !
 ! D18   D(1,5,8,12)           173.0732                                         !
 ! D19   D(6,5,8,9)            172.2416                                         !
 ! D20   D(6,5,8,10)            56.195                                          !
 ! D21   D(6,5,8,12)           -67.1188                                         !
 ! D22   D(7,5,8,9)            -59.7703                                         !
 ! D23   D(7,5,8,10)          -175.817                                          !
 ! D24   D(7,5,8,12)            60.8692                                         !
 ! D25   D(5,7,18,19)            4.2095                                         !
 ! D26   D(5,7,18,20)          167.0481                                         !
 ! D27   D(11,7,18,19)        -176.0178                                         !
 ! D28   D(11,7,18,20)         -13.1792                                         !
 ! D29   D(5,8,12,13)          176.4655                                         !
 ! D30   D(5,8,12,14)          -66.0997                                         !
 ! D31   D(5,8,12,15)           53.9292                                         !
 ! D32   D(9,8,12,13)          -62.2112                                         !
 ! D33   D(9,8,12,14)           55.2237                                         !
 ! D34   D(9,8,12,15)          175.2525                                         !
 ! D35   D(10,8,12,13)          54.0679                                         !
 ! D36   D(10,8,12,14)         171.5028                                         !
 ! D37   D(10,8,12,15)         -68.4683                                         !
 ! D38   D(8,12,15,16)         -53.828                                          !
 ! D39   D(8,12,15,17)         127.2565                                         !
 ! D40   D(13,12,15,16)       -175.6274                                         !
 ! D41   D(13,12,15,17)          5.4571                                         !
 ! D42   D(14,12,15,16)         67.5686                                         !
 ! D43   D(14,12,15,17)       -111.3469                                         !
 ! D44   D(12,15,17,62)        176.9384                                         !
 ! D45   D(16,15,17,62)         -1.9926                                         !
 ! D46   D(7,18,20,21)          51.8366                                         !
 ! D47   D(7,18,20,22)         -66.671                                          !
 ! D48   D(7,18,20,23)         171.5196                                         !
 ! D49   D(19,18,20,21)       -145.6127                                         !
 ! D50   D(19,18,20,22)         95.8797                                         !
 ! D51   D(19,18,20,23)        -25.9296                                         !
 ! D52   D(18,20,22,26)        -27.6353                                         !
 ! D53   D(18,20,22,37)        153.3093                                         !
 ! D54   D(21,20,22,26)       -144.717                                          !
 ! D55   D(21,20,22,37)         36.2276                                         !
 ! D56   D(23,20,22,26)         91.3986                                         !
 ! D57   D(23,20,22,37)        -87.6568                                         !
 ! D58   D(18,20,23,24)         65.9248                                         !
 ! D59   D(18,20,23,25)        -48.7404                                         !
 ! D60   D(18,20,23,27)       -170.7314                                         !
 ! D61   D(21,20,23,24)       -176.4974                                         !
 ! D62   D(21,20,23,25)         68.8374                                         !
 ! D63   D(21,20,23,27)        -53.1535                                         !
 ! D64   D(22,20,23,24)        -53.2119                                         !
 ! D65   D(22,20,23,25)       -167.8771                                         !
 ! D66   D(22,20,23,27)         70.132                                          !
 ! D67   D(20,22,37,38)          0.564                                          !
 ! D68   D(20,22,37,39)        174.7127                                         !
 ! D69   D(26,22,37,38)       -178.4613                                         !
 ! D70   D(26,22,37,39)         -4.3126                                         !
 ! D71   D(20,23,27,28)        -57.3447                                         !
 ! D72   D(20,23,27,29)         62.6351                                         !
 ! D73   D(20,23,27,33)       -174.426                                          !
 ! D74   D(24,23,27,28)         65.2058                                         !
 ! D75   D(24,23,27,29)       -174.8145                                         !
 ! D76   D(24,23,27,33)        -51.8755                                         !
 ! D77   D(25,23,27,28)       -178.6516                                         !
 ! D78   D(25,23,27,29)        -58.6719                                         !
 ! D79   D(25,23,27,33)         64.2671                                         !
 ! D80   D(23,27,29,30)         59.2358                                         !
 ! D81   D(23,27,29,31)        178.5404                                         !
 ! D82   D(23,27,29,32)        -61.6035                                         !
 ! D83   D(28,27,29,30)        179.4577                                         !
 ! D84   D(28,27,29,31)        -61.2377                                         !
 ! D85   D(28,27,29,32)         58.6184                                         !
 ! D86   D(33,27,29,30)        -62.9989                                         !
 ! D87   D(33,27,29,31)         56.3057                                         !
 ! D88   D(33,27,29,32)        176.1618                                         !
 ! D89   D(23,27,33,34)        -62.1914                                         !
 ! D90   D(23,27,33,35)         58.2285                                         !
 ! D91   D(23,27,33,36)        178.2332                                         !
 ! D92   D(28,27,33,34)        179.9741                                         !
 ! D93   D(28,27,33,35)        -59.606                                          !
 ! D94   D(28,27,33,36)         60.3987                                         !
 ! D95   D(29,27,33,34)         61.9541                                         !
 ! D96   D(29,27,33,35)       -177.626                                          !
 ! D97   D(29,27,33,36)        -57.6213                                         !
 ! D98   D(22,37,39,40)        -11.1961                                         !
 ! D99   D(22,37,39,41)       -127.5665                                         !
 ! D100  D(22,37,39,42)        107.772                                          !
 ! D101  D(38,37,39,40)        163.0657                                         !
 ! D102  D(38,37,39,41)         46.6953                                         !
 ! D103  D(38,37,39,42)        -77.9661                                         !
 ! D104  D(37,39,41,45)        164.3743                                         !
 ! D105  D(37,39,41,60)        -17.9364                                         !
 ! D106  D(40,39,41,45)         48.2335                                         !
 ! D107  D(40,39,41,60)       -134.0772                                         !
 ! D108  D(42,39,41,45)        -69.1185                                         !
 ! D109  D(42,39,41,60)        108.5708                                         !
 ! D110  D(37,39,42,43)        -64.2169                                         !
 ! D111  D(37,39,42,44)       -178.8807                                         !
 ! D112  D(37,39,42,46)         59.0517                                         !
 ! D113  D(40,39,42,43)         53.479                                          !
 ! D114  D(40,39,42,44)        -61.1848                                         !
 ! D115  D(40,39,42,46)        176.7476                                         !
 ! D116  D(41,39,42,43)        169.6965                                         !
 ! D117  D(41,39,42,44)         55.0327                                         !
 ! D118  D(41,39,42,46)        -67.0349                                         !
 ! D119  D(39,41,60,61)       -176.1097                                         !
 ! D120  D(45,41,60,61)          1.5818                                         !
 ! D121  D(39,42,46,47)        -64.9367                                         !
 ! D122  D(39,42,46,48)         54.0771                                         !
 ! D123  D(39,42,46,49)        173.6546                                         !
 ! D124  D(43,42,46,47)         56.6733                                         !
 ! D125  D(43,42,46,48)        175.6871                                         !
 ! D126  D(43,42,46,49)        -64.7354                                         !
 ! D127  D(44,42,46,47)        174.7597                                         !
 ! D128  D(44,42,46,48)        -66.2265                                         !
 ! D129  D(44,42,46,49)         53.351                                          !
 ! D130  D(42,46,49,50)         57.5517                                         !
 ! D131  D(42,46,49,51)        -60.5741                                         !
 ! D132  D(42,46,49,52)        179.2209                                         !
 ! D133  D(47,46,49,50)        -64.2987                                         !
 ! D134  D(47,46,49,51)        177.5755                                         !
 ! D135  D(47,46,49,52)         57.3705                                         !
 ! D136  D(48,46,49,50)        179.2182                                         !
 ! D137  D(48,46,49,51)         61.0923                                         !
 ! D138  D(48,46,49,52)        -59.1127                                         !
 ! D139  D(46,49,52,53)        -70.8479                                         !
 ! D140  D(46,49,52,59)         71.2188                                         !
 ! D141  D(50,49,52,53)         52.4245                                         !
 ! D142  D(50,49,52,59)       -165.5087                                         !
 ! D143  D(51,49,52,53)        167.8715                                         !
 ! D144  D(51,49,52,59)        -50.0617                                         !
 ! D145  D(49,52,59,54)       -175.9685                                         !
 ! D146  D(49,52,59,57)          2.7632                                         !
 ! D147  D(53,52,59,54)        -33.3269                                         !
 ! D148  D(53,52,59,57)        145.4048                                         !
 ! D149  D(55,54,59,52)       -171.099                                          !
 ! D150  D(55,54,59,57)         10.2783                                         !
 ! D151  D(56,54,59,52)        -41.9921                                         !
 ! D152  D(56,54,59,57)        139.3852                                         !
 ! D153  D(58,57,59,52)        171.4231                                         !
 ! D154  D(58,57,59,54)        -10.0663                                         !
 --------------------------------------------------------------------------------
 Symmetry turned off by external request.
 Stoichiometry    C17H33N6O6(1+)
 Framework group  C1[X(C17H33N6O6)]
 Deg. of freedom   180
 Full point group                 C1      NOp   1
                          Input orientation:                          
 ---------------------------------------------------------------------
 Center     Atomic      Atomic             Coordinates (Angstroms)
 Number     Number       Type             X           Y           Z
 ---------------------------------------------------------------------
      1          7           0       -1.807191   -0.786321   -4.843018
      2          1           0       -2.830404   -0.793988   -4.790895
      3          1           0       -1.465250    0.196711   -4.627074
      4          1           0       -1.525127   -1.084307   -5.781179
      5          6           0       -1.151838   -1.585515   -3.729004
      6          1           0       -1.859277   -2.327532   -3.360327
      7          6           0       -0.855928   -0.482505   -2.677703
      8          6           0        0.119288   -2.251646   -4.300612
      9          1           0        0.729108   -1.475817   -4.780321
     10          1           0       -0.195988   -2.955925   -5.082280
     11          8           0       -0.786360    0.685721   -3.090618
     12          6           0        1.029058   -2.980406   -3.289256
     13          1           0        1.847290   -3.452725   -3.837147
     14          1           0        1.468386   -2.250425   -2.594267
     15          6           0        0.307212   -4.013293   -2.455432
     16          8           0       -0.700306   -3.779476   -1.798172
     17          8           0        0.886915   -5.213559   -2.481978
     18          7           0       -0.705397   -0.881012   -1.418808
     19          1           0       -0.729429   -1.887553   -1.245964
     20          6           0       -0.155085   -0.002239   -0.383113
     21          1           0       -0.720519    0.933751   -0.409679
     22          6           0        1.331588    0.272884   -0.724389
     23          6           0       -0.324679   -0.709160    0.980481
     24          1           0        0.311134   -1.605193    0.973923
     25          1           0       -1.365238   -1.057712    1.039105
     26          8           0        1.993449   -0.544251   -1.364946
     27          6           0       -0.015341    0.124815    2.240618
     28          1           0        1.015691    0.495013    2.174260
     29          6           0       -0.953953    1.332810    2.390519
     30          1           0       -2.001696    1.011832    2.451402
     31          1           0       -0.723758    1.886481    3.306595
     32          1           0       -0.875957    2.044512    1.558680
     33          6           0       -0.103975   -0.780464    3.479575
     34          1           0       -1.116691   -1.184710    3.602937
     35          1           0        0.589843   -1.625998    3.409550
     36          1           0        0.142127   -0.220549    4.387881
     37          7           0        1.829647    1.438684   -0.256823
     38          1           0        1.235696    2.053926    0.282809
     39          6           0        3.238281    1.805278   -0.388586
     40          1           0        3.760394    0.905029   -0.719905
     41          6           0        3.859336    2.206850    0.947201
     42          6           0        3.477621    2.924455   -1.431037
     43          1           0        3.187766    2.527583   -2.412259
     44          1           0        4.559125    3.102493   -1.461068
     45          8           0        5.048342    2.282324    1.131735
     46          6           0        2.738381    4.237040   -1.142499
     47          1           0        1.651700    4.077709   -1.204896
     48          1           0        2.964936    4.598460   -0.134033
     49          6           0        3.144403    5.346619   -2.127420
     50          1           0        2.950946    5.030774   -3.160620
     51          1           0        4.217834    5.533022   -2.032402
     52          7           0        2.469451    6.621121   -1.927411
     53          1           0        1.487291    6.637489   -2.175252
     54          7           0        1.971274    8.544973   -0.748411
     55          1           0        2.262980    9.208519   -0.040858
     56          1           0        1.818367    9.002784   -1.641432
     57          7           0        3.700823    7.039638    0.000605
     58          1           0        3.907883    7.779840    0.672524
     59          6           0        2.783183    7.403413   -0.821027
     60          8           0        2.934838    2.518724    1.892251
     61          1           0        3.432581    2.818700    2.677615
     62          1           0        0.389140   -5.804953   -1.882613
 ---------------------------------------------------------------------
 Rotational constants (GHZ):           0.2090877           0.0752885           0.0669471
 Standard basis: 6-31G(d) (6D, 7F)
   501 basis functions,   944 primitive gaussians,   501 cartesian basis functions
   112 alpha electrons      112 beta electrons
       nuclear repulsion energy      3001.5251505964 Hartrees.
 NAtoms=   62 NActive=   62 NUniq=   62 SFac= 1.00D+00 NAtFMM=   60 NAOKFM=T Big=T
 Integral buffers will be    131072 words long.
 Raffenetti 2 integral format.
 Two-electron integral symmetry is turned off.
 One-electron integrals computed using PRISM.
 NBasis=   501 RedAO= T EigKep=  1.86D-03  NBF=   501
 NBsUse=   501 1.00D-06 EigRej= -1.00D+00 NBFU=   501
 Initial guess from the checkpoint file:  "conf-472.chk"
 B after Tr=     0.000000    0.000000    0.000000
         Rot=    1.000000    0.000000    0.000000    0.000000 Ang=   0.00 deg.
 Requested convergence on RMS density matrix=1.00D-08 within 128 cycles.
 Requested convergence on MAX density matrix=1.00D-06.
 Requested convergence on             energy=1.00D-06.
 No special actions if energy rises.
 SCF Done:  E(RB3LYP) =  -1447.38862485     A.U. after    3 cycles
            NFock=  3  Conv=0.56D-09     -V/T= 2.0094

 **********************************************************************

            Population analysis using the SCF Density.

 **********************************************************************

 Alpha  occ. eigenvalues --  -19.32259 -19.28164 -19.27277 -19.27075 -19.21996
 Alpha  occ. eigenvalues --  -19.21783 -14.61017 -14.49501 -14.46299 -14.40233
 Alpha  occ. eigenvalues --  -14.40211 -14.33863 -10.45256 -10.43795 -10.41324
 Alpha  occ. eigenvalues --  -10.40100 -10.39243 -10.35676 -10.34880 -10.33442
 Alpha  occ. eigenvalues --  -10.32524 -10.32375 -10.29283 -10.28157 -10.27568
 Alpha  occ. eigenvalues --  -10.26733 -10.26182 -10.25407 -10.24836  -1.23457
 Alpha  occ. eigenvalues --   -1.19758  -1.18672  -1.14755  -1.14286  -1.13730
 Alpha  occ. eigenvalues --   -1.09687  -1.06413  -1.02954  -1.02625  -0.95471
 Alpha  occ. eigenvalues --   -0.94232  -0.91369  -0.89457  -0.88183  -0.87714
 Alpha  occ. eigenvalues --   -0.84881  -0.81440  -0.80381  -0.76928  -0.75566
 Alpha  occ. eigenvalues --   -0.74656  -0.74624  -0.74291  -0.72649  -0.70978
 Alpha  occ. eigenvalues --   -0.70382  -0.69146  -0.66529  -0.65987  -0.65069
 Alpha  occ. eigenvalues --   -0.64362  -0.63888  -0.62631  -0.62053  -0.60567
 Alpha  occ. eigenvalues --   -0.60179  -0.59874  -0.59348  -0.58315  -0.57352
 Alpha  occ. eigenvalues --   -0.57223  -0.56281  -0.55843  -0.55134  -0.54518
 Alpha  occ. eigenvalues --   -0.53837  -0.53478  -0.52937  -0.52247  -0.52109
 Alpha  occ. eigenvalues --   -0.51395  -0.51180  -0.50949  -0.50603  -0.50184
 Alpha  occ. eigenvalues --   -0.49387  -0.49093  -0.48484  -0.48170  -0.47133
 Alpha  occ. eigenvalues --   -0.46774  -0.46574  -0.45545  -0.45073  -0.44500
 Alpha  occ. eigenvalues --   -0.44230  -0.42544  -0.41913  -0.41760  -0.41713
 Alpha  occ. eigenvalues --   -0.41658  -0.41316  -0.40758  -0.40366  -0.39763
 Alpha  occ. eigenvalues --   -0.39532  -0.37248  -0.35810  -0.33964  -0.32009
 Alpha  occ. eigenvalues --   -0.30828  -0.28178
 Alpha virt. eigenvalues --   -0.13245  -0.12548  -0.11203  -0.08148  -0.07033
 Alpha virt. eigenvalues --   -0.06981  -0.04297  -0.03056  -0.02766  -0.01907
 Alpha virt. eigenvalues --   -0.00495  -0.00211   0.00150   0.00714   0.00925
 Alpha virt. eigenvalues --    0.01193   0.02110   0.02553   0.03568   0.04056
 Alpha virt. eigenvalues --    0.04365   0.04728   0.04742   0.05996   0.06497
 Alpha virt. eigenvalues --    0.06716   0.06894   0.07053   0.07471   0.07932
 Alpha virt. eigenvalues --    0.08209   0.08668   0.08712   0.08827   0.09870
 Alpha virt. eigenvalues --    0.10439   0.10530   0.11264   0.11816   0.12040
 Alpha virt. eigenvalues --    0.12371   0.12715   0.12988   0.13519   0.13983
 Alpha virt. eigenvalues --    0.14209   0.14950   0.15386   0.15727   0.16730
 Alpha virt. eigenvalues --    0.16991   0.17856   0.19078   0.19775   0.20916
 Alpha virt. eigenvalues --    0.22488   0.22966   0.23174   0.23854   0.25850
 Alpha virt. eigenvalues --    0.27288   0.28808   0.29162   0.31127   0.32088
 Alpha virt. eigenvalues --    0.35906   0.36739   0.38300   0.38925   0.39987
 Alpha virt. eigenvalues --    0.40449   0.41363   0.42043   0.42964   0.43403
 Alpha virt. eigenvalues --    0.43939   0.44271   0.44970   0.45336   0.45827
 Alpha virt. eigenvalues --    0.46050   0.46698   0.47981   0.48609   0.49171
 Alpha virt. eigenvalues --    0.50728   0.51008   0.51123   0.51979   0.52328
 Alpha virt. eigenvalues --    0.53404   0.53663   0.54066   0.54906   0.55315
 Alpha virt. eigenvalues --    0.55614   0.56268   0.56407   0.57014   0.57198
 Alpha virt. eigenvalues --    0.58311   0.58950   0.59425   0.59991   0.60889
 Alpha virt. eigenvalues --    0.61677   0.62220   0.62913   0.63220   0.63621
 Alpha virt. eigenvalues --    0.63930   0.64615   0.65167   0.65703   0.66406
 Alpha virt. eigenvalues --    0.67188   0.67697   0.68161   0.68802   0.69248
 Alpha virt. eigenvalues --    0.69832   0.70219   0.70999   0.71446   0.72345
 Alpha virt. eigenvalues --    0.73148   0.74075   0.74347   0.74692   0.75231
 Alpha virt. eigenvalues --    0.75587   0.76236   0.76606   0.77504   0.77639
 Alpha virt. eigenvalues --    0.78634   0.78888   0.79226   0.79746   0.80372
 Alpha virt. eigenvalues --    0.80636   0.80770   0.81315   0.81974   0.82443
 Alpha virt. eigenvalues --    0.82762   0.83149   0.83315   0.83700   0.83945
 Alpha virt. eigenvalues --    0.84271   0.84319   0.84707   0.85001   0.85929
 Alpha virt. eigenvalues --    0.86084   0.86477   0.86885   0.87081   0.87651
 Alpha virt. eigenvalues --    0.88413   0.88793   0.89478   0.89999   0.90335
 Alpha virt. eigenvalues --    0.91160   0.92008   0.92564   0.93453   0.94370
 Alpha virt. eigenvalues --    0.95349   0.96239   0.97173   0.97621   0.98453
 Alpha virt. eigenvalues --    0.99755   1.00343   1.01128   1.03254   1.03607
 Alpha virt. eigenvalues --    1.05448   1.07224   1.08084   1.08248   1.09636
 Alpha virt. eigenvalues --    1.11394   1.13104   1.14518   1.16863   1.18450
 Alpha virt. eigenvalues --    1.18879   1.20096   1.21945   1.22653   1.23437
 Alpha virt. eigenvalues --    1.25037   1.25950   1.27277   1.28143   1.29613
 Alpha virt. eigenvalues --    1.31385   1.31880   1.32733   1.33301   1.34532
 Alpha virt. eigenvalues --    1.34874   1.35367   1.36454   1.36858   1.38445
 Alpha virt. eigenvalues --    1.39137   1.40307   1.41120   1.43600   1.44924
 Alpha virt. eigenvalues --    1.46585   1.47033   1.49512   1.49746   1.51025
 Alpha virt. eigenvalues --    1.52722   1.54399   1.54603   1.57104   1.57592
 Alpha virt. eigenvalues --    1.58363   1.59455   1.60939   1.61357   1.61776
 Alpha virt. eigenvalues --    1.62956   1.64137   1.65182   1.65286   1.66232
 Alpha virt. eigenvalues --    1.66605   1.66838   1.68324   1.68672   1.69520
 Alpha virt. eigenvalues --    1.70028   1.70311   1.71064   1.71557   1.72570
 Alpha virt. eigenvalues --    1.72949   1.73255   1.73958   1.74610   1.75718
 Alpha virt. eigenvalues --    1.76010   1.76635   1.77789   1.78044   1.79006
 Alpha virt. eigenvalues --    1.80375   1.80621   1.81440   1.82601   1.82944
 Alpha virt. eigenvalues --    1.83345   1.84318   1.85330   1.86265   1.87272
 Alpha virt. eigenvalues --    1.87520   1.88234   1.89249   1.90347   1.91332
 Alpha virt. eigenvalues --    1.91601   1.92296   1.93173   1.94581   1.94914
 Alpha virt. eigenvalues --    1.95217   1.96219   1.97019   1.97746   1.98099
 Alpha virt. eigenvalues --    1.98267   2.00543   2.00952   2.02418   2.02552
 Alpha virt. eigenvalues --    2.03473   2.04690   2.05839   2.07028   2.09006
 Alpha virt. eigenvalues --    2.10223   2.11715   2.12446   2.14330   2.15449
 Alpha virt. eigenvalues --    2.16348   2.17059   2.18525   2.20759   2.21323
 Alpha virt. eigenvalues --    2.21963   2.22331   2.22868   2.25271   2.25923
 Alpha virt. eigenvalues --    2.27666   2.27983   2.28739   2.29944   2.30858
 Alpha virt. eigenvalues --    2.32036   2.32697   2.33111   2.34577   2.35396
 Alpha virt. eigenvalues --    2.36206   2.37708   2.39002   2.41744   2.42858
 Alpha virt. eigenvalues --    2.43547   2.44732   2.45464   2.46463   2.46672
 Alpha virt. eigenvalues --    2.47761   2.49258   2.51603   2.52652   2.54082
 Alpha virt. eigenvalues --    2.55337   2.55663   2.56517   2.58272   2.59516
 Alpha virt. eigenvalues --    2.60576   2.61625   2.61800   2.63337   2.63929
 Alpha virt. eigenvalues --    2.64769   2.66020   2.69120   2.71270   2.73128
 Alpha virt. eigenvalues --    2.73707   2.75317   2.77723   2.80415   2.84914
 Alpha virt. eigenvalues --    2.86952   2.88544   2.91916   2.94718   2.95896
 Alpha virt. eigenvalues --    2.96071   3.00974   3.02363   3.03447   3.08959
 Alpha virt. eigenvalues --    3.62497   3.75334   3.75439   3.78020   3.87479
 Alpha virt. eigenvalues --    3.89571   3.92118   3.98219   4.01126   4.05646
 Alpha virt. eigenvalues --    4.07084   4.09166   4.09562   4.13840   4.15306
 Alpha virt. eigenvalues --    4.18393   4.20339   4.22942   4.23226   4.24114
 Alpha virt. eigenvalues --    4.30690   4.33923   4.39268   4.43078   4.47260
 Alpha virt. eigenvalues --    4.51549   4.54943   4.55724   4.62352
          Condensed to atoms (all electrons):
 Mulliken charges:
               1
     1  N   -0.754933
     2  H    0.418969
     3  H    0.431510
     4  H    0.413355
     5  C   -0.118033
     6  H    0.233281
     7  C    0.652685
     8  C   -0.306048
     9  H    0.192942
    10  H    0.181707
    11  O   -0.548588
    12  C   -0.403754
    13  H    0.208338
    14  H    0.268294
    15  C    0.604185
    16  O   -0.493068
    17  O   -0.527935
    18  N   -0.613967
    19  H    0.395851
    20  C   -0.061181
    21  H    0.183307
    22  C    0.639855
    23  C   -0.292787
    24  H    0.158141
    25  H    0.157971
    26  O   -0.534987
    27  C   -0.100037
    28  H    0.151596
    29  C   -0.454093
    30  H    0.153095
    31  H    0.168690
    32  H    0.130207
    33  C   -0.447172
    34  H    0.149712
    35  H    0.152068
    36  H    0.161407
    37  N   -0.596116
    38  H    0.360809
    39  C   -0.071768
    40  H    0.213881
    41  C    0.602903
    42  C   -0.270921
    43  H    0.147179
    44  H    0.182031
    45  O   -0.436987
    46  C   -0.286193
    47  H    0.111208
    48  H    0.190602
    49  C   -0.120480
    50  H    0.132430
    51  H    0.184945
    52  N   -0.594138
    53  H    0.315053
    54  N   -0.758216
    55  H    0.326172
    56  H    0.328135
    57  N   -0.650404
    58  H    0.272072
    59  C    0.588887
    60  O   -0.582396
    61  H    0.427218
    62  H    0.433513
 Sum of Mulliken charges =   1.00000
 Mulliken charges with hydrogens summed into heavy atoms:
               1
     1  N    0.508901
     5  C    0.115247
     7  C    0.652685
     8  C    0.068601
    11  O   -0.548588
    12  C    0.072878
    15  C    0.604185
    16  O   -0.493068
    17  O   -0.094422
    18  N   -0.218116
    20  C    0.122126
    22  C    0.639855
    23  C    0.023325
    26  O   -0.534987
    27  C    0.051559
    29  C   -0.002100
    33  C    0.016015
    37  N   -0.235307
    39  C    0.142113
    41  C    0.602903
    42  C    0.058289
    45  O   -0.436987
    46  C    0.015616
    49  C    0.196895
    52  N   -0.279085
    54  N   -0.103909
    57  N   -0.378332
    59  C    0.588887
    60  O   -0.155177
 Electronic spatial extent (au):  <R**2>=          19389.1644
 Charge=              1.0000 electrons
 Dipole moment (field-independent basis, Debye):
    X=             -6.5829    Y=             -2.1639    Z=            -15.2244  Tot=             16.7272
 Quadrupole moment (field-independent basis, Debye-Ang):
   XX=           -174.5822   YY=            -92.1613   ZZ=            -72.3463
   XY=              8.4283   XZ=             28.7773   YZ=             22.6401
 Traceless Quadrupole moment (field-independent basis, Debye-Ang):
   XX=            -61.5523   YY=             20.8686   ZZ=             40.6837
   XY=              8.4283   XZ=             28.7773   YZ=             22.6401
 Octapole moment (field-independent basis, Debye-Ang**2):
  XXX=           -766.4752  YYY=           -168.7725  ZZZ=             53.7030  XYY=           -115.5232
  XXY=           -237.4798  XXZ=             89.1525  XZZ=           -320.9846  YZZ=           -257.9558
  YYZ=             63.4922  XYZ=            -16.7654
 Hexadecapole moment (field-independent basis, Debye-Ang**3):
 XXXX=          -5759.8613 YYYY=          -7073.9243 ZZZZ=          -3133.8061 XXXY=          -3000.1453
 XXXZ=            206.2031 YYYX=          -1549.9020 YYYZ=           -478.5521 ZZZX=            932.0082
 ZZZY=            239.2458 XXYY=          -3222.7271 XXZZ=          -1372.3337 YYZZ=          -2798.0446
 XXYZ=            -20.4554 YYXZ=            146.8105 ZZXY=           -664.6488
 N-N= 3.001525150596D+03 E-N=-9.354978978406D+03  KE= 1.433974565161D+03
 Unable to Open any file for archive entry.
 1\1\GINC-NVF-017\SP\RB3LYP\6-31G(d)\C17H33N6O6(1+)\KENGMITH\26-May-202
 2\0\\# B3LYP/6-31G* guess=read geom=check nosymm integral(ultrafinegri
 d)\\Candidate Structure: Conf:472 Charge calc in gas phase\\1,1\N,0,-1
 .8071907648,-0.7863209189,-4.8430182697\H,0,-2.8304041834,-0.793988064
 3,-4.7908948438\H,0,-1.465250293,0.1967110194,-4.627074186\H,0,-1.5251
 265528,-1.0843065766,-5.7811787145\C,0,-1.1518376888,-1.5855149565,-3.
 7290042423\H,0,-1.8592766462,-2.3275322428,-3.3603268304\C,0,-0.855927
 8269,-0.4825046748,-2.6777028937\C,0,0.1192875704,-2.2516464467,-4.300
 6116312\H,0,0.7291079682,-1.475816684,-4.7803209388\H,0,-0.1959875208,
 -2.9559246749,-5.0822801665\O,0,-0.7863598934,0.6857211308,-3.09061786
 71\C,0,1.0290582497,-2.9804064202,-3.2892560094\H,0,1.8472904765,-3.45
 27250212,-3.8371468614\H,0,1.4683862719,-2.2504246887,-2.5942667178\C,
 0,0.3072119118,-4.0132933275,-2.455432338\O,0,-0.7003059554,-3.7794755
 916,-1.7981716301\O,0,0.8869150889,-5.2135593929,-2.4819780166\N,0,-0.
 705396662,-0.8810115478,-1.4188077279\H,0,-0.7294287111,-1.8875528664,
 -1.2459637585\C,0,-0.1550854966,-0.0022393934,-0.3831125569\H,0,-0.720
 5194172,0.9337511722,-0.4096786231\C,0,1.3315880305,0.2728838092,-0.72
 43893253\C,0,-0.3246788592,-0.7091600885,0.9804807772\H,0,0.3111344912
 ,-1.6051933331,0.9739233653\H,0,-1.3652378617,-1.0577123113,1.03910542
 77\O,0,1.993448899,-0.5442506777,-1.3649464991\C,0,-0.0153407544,0.124
 8145758,2.2406179499\H,0,1.0156905645,0.4950134896,2.1742602453\C,0,-0
 .9539532949,1.3328097902,2.3905189037\H,0,-2.0016962263,1.0118318577,2
 .4514023842\H,0,-0.7237577795,1.8864813656,3.3065948845\H,0,-0.8759571
 523,2.044511707,1.5586796612\C,0,-0.1039754208,-0.7804643636,3.4795749
 823\H,0,-1.116690962,-1.1847104481,3.6029374713\H,0,0.5898432611,-1.62
 59981513,3.4095498265\H,0,0.1421268958,-0.2205490918,4.3878807011\N,0,
 1.8296471484,1.4386843566,-0.2568225222\H,0,1.2356955612,2.0539256685,
 0.2828092293\C,0,3.2382810217,1.805278341,-0.3885858858\H,0,3.76039398
 57,0.9050291176,-0.719905325\C,0,3.8593364744,2.2068500559,0.947200871
 7\C,0,3.4776211074,2.9244552851,-1.4310366899\H,0,3.1877661605,2.52758
 31756,-2.4122588926\H,0,4.5591248172,3.1024932448,-1.4610682849\O,0,5.
 0483415274,2.2823243914,1.1317345885\C,0,2.7383807705,4.2370399733,-1.
 1424994999\H,0,1.6517000102,4.0777091192,-1.2048962459\H,0,2.964936353
 ,4.5984600549,-0.1340326129\C,0,3.1444031847,5.3466189488,-2.127420020
 7\H,0,2.9509460644,5.0307742419,-3.1606200686\H,0,4.2178337251,5.53302
 18676,-2.0324019797\N,0,2.4694507183,6.6211211849,-1.9274111307\H,0,1.
 4872911836,6.6374893251,-2.1752517213\N,0,1.9712736723,8.5449730777,-0
 .7484105719\H,0,2.2629802006,9.2085194682,-0.040858081\H,0,1.818367161
 7,9.0027835426,-1.641431926\N,0,3.7008228038,7.0396375479,0.000605035\
 H,0,3.9078833293,7.7798398201,0.6725236985\C,0,2.7831831704,7.40341273
 43,-0.8210265717\O,0,2.9348377112,2.5187238924,1.8922514154\H,0,3.4325
 814398,2.8187003,2.6776149936\H,0,0.3891403711,-5.8049527285,-1.882613
 3431\\Version=ES64L-G16RevC.01\HF=-1447.3886249\RMSD=5.601e-10\Dipole=
 -4.8286054,-2.8724741,-4.1632068\Quadrupole=-45.7625961,15.5152987,30.
 2472974,6.2662594,21.395189,16.8323478\PG=C01 [X(C17H33N6O6)]\\@
 The archive entry for this job was punched.


 CURIOUSER AND CURIOUSER

                  -- ALICE, IN WONDERLAND
 Job cpu time:       0 days  0 hours  2 minutes  2.8 seconds.
 Elapsed time:       0 days  0 hours  0 minutes 31.3 seconds.
 File lengths (MBytes):  RWF=    248 Int=      0 D2E=      0 Chk=     32 Scr=     16
 Normal termination of Gaussian 16 at Thu May 26 19:11:23 2022.
