 Entering Gaussian System, Link 0=/opt/software/Gaussian/g16-AVX2-C.01/g16/g16
 Input=charge-conf-538.com
 Output=charge-conf-538.log
 Initial command:
 /opt/software/Gaussian/g16-AVX2-C.01/g16/l1.exe "/mnt/gs18/scratch/users/kengmith/Gau-85632.inp" -scrdir="/mnt/gs18/scratch/users/kengmith/"
 Entering Link 1 = /opt/software/Gaussian/g16-AVX2-C.01/g16/l1.exe PID=     85642.
  
 Copyright (c) 1988-2019, Gaussian, Inc.  All Rights Reserved.
  
 This is part of the Gaussian(R) 16 program.  It is based on
 the Gaussian(R) 09 system (copyright 2009, Gaussian, Inc.),
 the Gaussian(R) 03 system (copyright 2003, Gaussian, Inc.),
 the Gaussian(R) 98 system (copyright 1998, Gaussian, Inc.),
 the Gaussian(R) 94 system (copyright 1995, Gaussian, Inc.),
 the Gaussian 92(TM) system (copyright 1992, Gaussian, Inc.),
 the Gaussian 90(TM) system (copyright 1990, Gaussian, Inc.),
 the Gaussian 88(TM) system (copyright 1988, Gaussian, Inc.),
 the Gaussian 86(TM) system (copyright 1986, Carnegie Mellon
 University), and the Gaussian 82(TM) system (copyright 1983,
 Carnegie Mellon University). Gaussian is a federally registered
 trademark of Gaussian, Inc.
  
 This software contains proprietary and confidential information,
 including trade secrets, belonging to Gaussian, Inc.
  
 This software is provided under written license and may be
 used, copied, transmitted, or stored only in accord with that
 written license.
  
 The following legend is applicable only to US Government
 contracts under FAR:
  
                    RESTRICTED RIGHTS LEGEND
  
 Use, reproduction and disclosure by the US Government is
 subject to restrictions as set forth in subparagraphs (a)
 and (c) of the Commercial Computer Software - Restricted
 Rights clause in FAR 52.227-19.
  
 Gaussian, Inc.
 340 Quinnipiac St., Bldg. 40, Wallingford CT 06492
  
  
 ---------------------------------------------------------------
 Warning -- This program may not be used in any manner that
 competes with the business of Gaussian, Inc. or will provide
 assistance to any competitor of Gaussian, Inc.  The licensee
 of this program is prohibited from giving any competitor of
 Gaussian, Inc. access to this program.  By using this program,
 the user acknowledges that Gaussian, Inc. is engaged in the
 business of creating and licensing software in the field of
 computational chemistry and represents and warrants to the
 licensee that it is not a competitor of Gaussian, Inc. and that
 it will not use this program in any manner prohibited above.
 ---------------------------------------------------------------
  

 Cite this work as:
 Gaussian 16, Revision C.01,
 M. J. Frisch, G. W. Trucks, H. B. Schlegel, G. E. Scuseria, 
 M. A. Robb, J. R. Cheeseman, G. Scalmani, V. Barone, 
 G. A. Petersson, H. Nakatsuji, X. Li, M. Caricato, A. V. Marenich, 
 J. Bloino, B. G. Janesko, R. Gomperts, B. Mennucci, H. P. Hratchian, 
 J. V. Ortiz, A. F. Izmaylov, J. L. Sonnenberg, D. Williams-Young, 
 F. Ding, F. Lipparini, F. Egidi, J. Goings, B. Peng, A. Petrone, 
 T. Henderson, D. Ranasinghe, V. G. Zakrzewski, J. Gao, N. Rega, 
 G. Zheng, W. Liang, M. Hada, M. Ehara, K. Toyota, R. Fukuda, 
 J. Hasegawa, M. Ishida, T. Nakajima, Y. Honda, O. Kitao, H. Nakai, 
 T. Vreven, K. Throssell, J. A. Montgomery, Jr., J. E. Peralta, 
 F. Ogliaro, M. J. Bearpark, J. J. Heyd, E. N. Brothers, K. N. Kudin, 
 V. N. Staroverov, T. A. Keith, R. Kobayashi, J. Normand, 
 K. Raghavachari, A. P. Rendell, J. C. Burant, S. S. Iyengar, 
 J. Tomasi, M. Cossi, J. M. Millam, M. Klene, C. Adamo, R. Cammi, 
 J. W. Ochterski, R. L. Martin, K. Morokuma, O. Farkas, 
 J. B. Foresman, and D. J. Fox, Gaussian, Inc., Wallingford CT, 2019.
 
 ******************************************
 Gaussian 16:  ES64L-G16RevC.01  3-Jul-2019
                26-May-2022 
 ******************************************
 %mem=8gb
 %nproc=4
 Will use up to    4 processors via shared memory.
 %chk=conf-538.chk
 -------------------------------------------------------------------
 # B3LYP/6-31G* guess=read geom=check nosymm integral(ultrafinegrid)
 -------------------------------------------------------------------
 1/29=2,38=1,172=1/1;
 2/12=2,15=1,40=1/2;
 3/5=1,6=6,7=1,11=2,14=-4,25=1,30=1,74=-5,75=-5,116=-2/1,2,3;
 4/5=1/1;
 5/5=2,38=6/2;
 6/7=2,8=2,9=2,10=2,28=1/1;
 99/5=1,9=1/99;
 ------------------------------------------------------
 Candidate Structure: Conf:538 Charge calc in gas phase
 ------------------------------------------------------
 Structure from the checkpoint file:  "conf-538.chk"
 Charge =  1 Multiplicity = 1
 Redundant internal coordinates found in file.  (old form).
 N,0,-2.8950353625,-1.5734226617,-3.9044642655
 H,0,-3.632697624,-2.127550954,-3.4604581157
 H,0,-2.9975098172,-0.5567656731,-3.5972797656
 H,0,-2.9773153002,-1.6691623985,-4.9204357057
 C,0,-1.5007592065,-1.9021985012,-3.3898057806
 H,0,-1.5499869435,-2.8693992598,-2.882750717
 C,0,-1.2721885451,-0.7495798581,-2.3653757875
 C,0,-0.5395331152,-1.9622034379,-4.5908692639
 H,0,-0.4655488065,-0.9630604667,-5.0345554871
 H,0,-1.0003774766,-2.6352764364,-5.3256572493
 O,0,-2.0257161238,0.2336991533,-2.4550308893
 C,0,0.8785176232,-2.4745223051,-4.2876979498
 H,0,0.9150998924,-3.1033967232,-3.3876373837
 H,0,1.2152589141,-3.1260961874,-5.0991683131
 C,0,1.9110173283,-1.3504644143,-4.1386665651
 O,0,1.5798384846,-0.1834194413,-3.9818241926
 O,0,3.1266124003,-1.8357380615,-4.2156931338
 N,0,-0.3541431206,-0.931271235,-1.4227827009
 H,0,0.3530276433,-1.6613979828,-1.5077333874
 C,0,0.0278768277,0.1017276181,-0.4548002058
 H,0,-0.3042469741,1.0671330811,-0.8443677133
 C,0,1.5646817373,0.0443443179,-0.3877298784
 C,0,-0.5703941605,-0.1669228903,0.9464435996
 H,0,-0.1010827262,0.5303293274,1.6542229462
 H,0,-0.2505978315,-1.1713758727,1.2534596215
 O,0,2.1610654623,-0.9763622611,-0.7279317483
 C,0,-2.1027993334,-0.0472927401,1.0645081764
 H,0,-2.5550816786,-0.7031512284,0.3055388083
 C,0,-2.550463234,-0.5519328043,2.4454068808
 H,0,-2.1231351798,0.0642404268,3.246333377
 H,0,-3.6406756941,-0.5089227631,2.5426754228
 H,0,-2.237188774,-1.5881043908,2.6184639591
 C,0,-2.6008039752,1.3845120925,0.8169700973
 H,0,-2.1472871929,2.0852291351,1.5300549981
 H,0,-2.380497258,1.7304167378,-0.1981215047
 H,0,-3.6867041629,1.4419416498,0.9505557828
 N,0,2.1675453854,1.1637776395,0.0781718111
 H,0,1.5893640694,1.9278486322,0.4032033924
 C,0,3.6039193286,1.2619725394,0.2857233302
 H,0,4.0277868422,0.3444862348,-0.1308491447
 C,0,4.0093512238,1.2842081559,1.7603778715
 C,0,4.2154419857,2.4929000341,-0.4270410958
 H,0,5.2986569056,2.4456216013,-0.2678936999
 H,0,3.8828603892,3.4067191292,0.0838432638
 O,0,5.1603663549,1.2949664537,2.1260753176
 C,0,3.8537719419,2.6037477891,-1.917873461
 H,0,2.7730450673,2.7572448152,-2.0121661322
 H,0,4.3315329406,3.502879931,-2.3263700435
 C,0,4.2148425864,1.3975828751,-2.7862949442
 H,0,3.7614060634,1.5108887447,-3.7738872078
 H,0,3.7919810135,0.4762820889,-2.3668250918
 N,0,5.659067917,1.2752857717,-2.9690350947
 H,0,6.2439462168,1.5223101475,-2.1808833601
 N,0,7.550619806,0.2590983175,-3.8148430058
 H,0,7.962192698,-0.3806875952,-4.4811136549
 H,0,8.0207241406,1.1557859591,-3.7841220468
 N,0,5.3795040368,-0.5195260386,-4.4169059132
 H,0,5.8897258287,-1.1053630262,-5.0755034183
 C,0,6.1658543104,0.2923269477,-3.7784663421
 O,0,2.9530627292,1.3213162425,2.6052599916
 H,0,3.325390004,1.3480627883,3.5082800216
 H,0,3.9031313983,-1.1433839497,-4.1993714084
 Recover connectivity data from disk.
                           ----------------------------
                           !    Current Parameters    !
                           ! (Angstroms and Degrees)  !
 --------------------------                            --------------------------
 ! Name  Definition              Value                                          !
 --------------------------------------------------------------------------------
 ! R1    R(1,2)                  1.0239                                         !
 ! R2    R(1,3)                  1.067                                          !
 ! R3    R(1,4)                  1.0238                                         !
 ! R4    R(1,5)                  1.5222                                         !
 ! R5    R(5,6)                  1.0932                                         !
 ! R6    R(5,7)                  1.5589                                         !
 ! R7    R(5,8)                  1.5395                                         !
 ! R8    R(7,11)                 1.242                                          !
 ! R9    R(7,18)                 1.3283                                         !
 ! R10   R(8,9)                  1.0957                                         !
 ! R11   R(8,10)                 1.0979                                         !
 ! R12   R(8,12)                 1.5379                                         !
 ! R13   R(12,13)                1.0986                                         !
 ! R14   R(12,14)                1.0938                                         !
 ! R15   R(12,15)                1.5335                                         !
 ! R16   R(15,16)                1.2232                                         !
 ! R17   R(15,17)                1.3111                                         !
 ! R18   R(17,62)                1.0405                                         !
 ! R19   R(18,19)                1.02                                           !
 ! R20   R(18,20)                1.4663                                         !
 ! R21   R(20,21)                1.0927                                         !
 ! R22   R(20,22)                1.5393                                         !
 ! R23   R(20,23)                1.5471                                         !
 ! R24   R(22,26)                1.2301                                         !
 ! R25   R(22,37)                1.3541                                         !
 ! R26   R(23,24)                1.0988                                         !
 ! R27   R(23,25)                1.0979                                         !
 ! R28   R(23,27)                1.5416                                         !
 ! R29   R(27,28)                1.1003                                         !
 ! R30   R(27,29)                1.5369                                         !
 ! R31   R(27,33)                1.536                                          !
 ! R32   R(29,30)                1.0972                                         !
 ! R33   R(29,31)                1.0954                                         !
 ! R34   R(29,32)                1.0962                                         !
 ! R35   R(33,34)                1.0978                                         !
 ! R36   R(33,35)                1.0948                                         !
 ! R37   R(33,36)                1.0956                                         !
 ! R38   R(37,38)                1.0118                                         !
 ! R39   R(37,39)                1.4546                                         !
 ! R40   R(39,40)                1.0932                                         !
 ! R41   R(39,41)                1.5295                                         !
 ! R42   R(39,42)                1.5483                                         !
 ! R43   R(41,45)                1.2078                                         !
 ! R44   R(41,60)                1.3531                                         !
 ! R45   R(42,43)                1.0959                                         !
 ! R46   R(42,44)                1.0985                                         !
 ! R47   R(42,46)                1.5381                                         !
 ! R48   R(46,47)                1.0956                                         !
 ! R49   R(46,48)                1.0971                                         !
 ! R50   R(46,49)                1.5295                                         !
 ! R51   R(49,50)                1.0926                                         !
 ! R52   R(49,51)                1.0971                                         !
 ! R53   R(49,52)                1.4609                                         !
 ! R54   R(52,53)                1.0121                                         !
 ! R55   R(52,59)                1.3705                                         !
 ! R56   R(54,55)                1.0113                                         !
 ! R57   R(54,56)                1.0129                                         !
 ! R58   R(54,59)                1.3856                                         !
 ! R59   R(57,58)                1.0185                                         !
 ! R60   R(57,59)                1.2981                                         !
 ! R61   R(60,61)                0.9771                                         !
 ! A1    A(2,1,3)              108.7617                                         !
 ! A2    A(2,1,4)              108.7734                                         !
 ! A3    A(2,1,5)              113.3538                                         !
 ! A4    A(3,1,4)              111.5362                                         !
 ! A5    A(3,1,5)              101.3286                                         !
 ! A6    A(4,1,5)              112.889                                          !
 ! A7    A(1,5,6)              107.8596                                         !
 ! A8    A(1,5,7)              101.3493                                         !
 ! A9    A(1,5,8)              108.4545                                         !
 ! A10   A(6,5,7)              110.8527                                         !
 ! A11   A(6,5,8)              110.8241                                         !
 ! A12   A(7,5,8)              116.7402                                         !
 ! A13   A(5,7,11)             116.6759                                         !
 ! A14   A(5,7,18)             117.8096                                         !
 ! A15   A(11,7,18)            125.3681                                         !
 ! A16   A(5,8,9)              108.8155                                         !
 ! A17   A(5,8,10)             106.4965                                         !
 ! A18   A(5,8,12)             115.7783                                         !
 ! A19   A(9,8,10)             108.4432                                         !
 ! A20   A(9,8,12)             108.7429                                         !
 ! A21   A(10,8,12)            108.3457                                         !
 ! A22   A(8,12,13)            112.5131                                         !
 ! A23   A(8,12,14)            109.6366                                         !
 ! A24   A(8,12,15)            113.3145                                         !
 ! A25   A(13,12,14)           104.8658                                         !
 ! A26   A(13,12,15)           108.5143                                         !
 ! A27   A(14,12,15)           107.5447                                         !
 ! A28   A(12,15,16)           121.9711                                         !
 ! A29   A(12,15,17)           110.3171                                         !
 ! A30   A(16,15,17)           127.7098                                         !
 ! A31   A(15,17,62)           116.4053                                         !
 ! A32   A(7,18,19)            121.198                                          !
 ! A33   A(7,18,20)            123.5165                                         !
 ! A34   A(19,18,20)           112.2494                                         !
 ! A35   A(18,20,21)           107.9308                                         !
 ! A36   A(18,20,22)           105.2248                                         !
 ! A37   A(18,20,23)           112.0137                                         !
 ! A38   A(21,20,22)           110.6038                                         !
 ! A39   A(21,20,23)           111.0247                                         !
 ! A40   A(22,20,23)           109.8846                                         !
 ! A41   A(20,22,26)           120.1915                                         !
 ! A42   A(20,22,37)           115.3818                                         !
 ! A43   A(26,22,37)           124.4198                                         !
 ! A44   A(20,23,24)           107.9418                                         !
 ! A45   A(20,23,25)           107.4271                                         !
 ! A46   A(20,23,27)           116.122                                          !
 ! A47   A(24,23,25)           106.0218                                         !
 ! A48   A(24,23,27)           109.0256                                         !
 ! A49   A(25,23,27)           109.8229                                         !
 ! A50   A(23,27,28)           108.0296                                         !
 ! A51   A(23,27,29)           109.4437                                         !
 ! A52   A(23,27,33)           112.475                                          !
 ! A53   A(28,27,29)           107.7169                                         !
 ! A54   A(28,27,33)           108.1308                                         !
 ! A55   A(29,27,33)           110.8818                                         !
 ! A56   A(27,29,30)           110.981                                          !
 ! A57   A(27,29,31)           110.9039                                         !
 ! A58   A(27,29,32)           111.652                                          !
 ! A59   A(30,29,31)           107.5039                                         !
 ! A60   A(30,29,32)           107.7154                                         !
 ! A61   A(31,29,32)           107.9096                                         !
 ! A62   A(27,33,34)           110.8772                                         !
 ! A63   A(27,33,35)           112.2529                                         !
 ! A64   A(27,33,36)           110.5217                                         !
 ! A65   A(34,33,35)           108.5096                                         !
 ! A66   A(34,33,36)           107.2655                                         !
 ! A67   A(35,33,36)           107.2139                                         !
 ! A68   A(22,37,38)           118.7114                                         !
 ! A69   A(22,37,39)           122.9922                                         !
 ! A70   A(38,37,39)           117.8695                                         !
 ! A71   A(37,39,40)           105.7747                                         !
 ! A72   A(37,39,41)           113.5965                                         !
 ! A73   A(37,39,42)           112.2098                                         !
 ! A74   A(40,39,41)           106.0707                                         !
 ! A75   A(40,39,42)           109.7972                                         !
 ! A76   A(41,39,42)           109.1225                                         !
 ! A77   A(39,41,45)           123.0021                                         !
 ! A78   A(39,41,60)           113.2952                                         !
 ! A79   A(45,41,60)           123.6864                                         !
 ! A80   A(39,42,43)           106.8133                                         !
 ! A81   A(39,42,44)           109.1286                                         !
 ! A82   A(39,42,46)           114.2451                                         !
 ! A83   A(43,42,44)           105.5225                                         !
 ! A84   A(43,42,46)           112.105                                          !
 ! A85   A(44,42,46)           108.6416                                         !
 ! A86   A(42,46,47)           108.9934                                         !
 ! A87   A(42,46,48)           108.5166                                         !
 ! A88   A(42,46,49)           115.9762                                         !
 ! A89   A(47,46,48)           106.4211                                         !
 ! A90   A(47,46,49)           107.1261                                         !
 ! A91   A(48,46,49)           109.3962                                         !
 ! A92   A(46,49,50)           109.479                                          !
 ! A93   A(46,49,51)           110.7424                                         !
 ! A94   A(46,49,52)           111.7418                                         !
 ! A95   A(50,49,51)           105.8269                                         !
 ! A96   A(50,49,52)           107.8118                                         !
 ! A97   A(51,49,52)           111.0131                                         !
 ! A98   A(49,52,53)           116.9666                                         !
 ! A99   A(49,52,59)           119.9668                                         !
 ! A100  A(53,52,59)           114.917                                          !
 ! A101  A(55,54,56)           113.027                                          !
 ! A102  A(55,54,59)           116.0531                                         !
 ! A103  A(56,54,59)           116.2183                                         !
 ! A104  A(58,57,59)           111.9821                                         !
 ! A105  A(52,59,54)           113.7194                                         !
 ! A106  A(52,59,57)           121.0006                                         !
 ! A107  A(54,59,57)           125.2734                                         !
 ! A108  A(41,60,61)           106.2801                                         !
 ! D1    D(2,1,5,6)             17.3666                                         !
 ! D2    D(2,1,5,7)            -99.1285                                         !
 ! D3    D(2,1,5,8)            137.4509                                         !
 ! D4    D(3,1,5,6)            133.7131                                         !
 ! D5    D(3,1,5,7)             17.2179                                         !
 ! D6    D(3,1,5,8)           -106.2026                                         !
 ! D7    D(4,1,5,6)           -106.8831                                         !
 ! D8    D(4,1,5,7)            136.6218                                         !
 ! D9    D(4,1,5,8)             13.2013                                         !
 ! D10   D(1,5,7,11)           -16.6265                                         !
 ! D11   D(1,5,7,18)           159.2142                                         !
 ! D12   D(6,5,7,11)          -130.9057                                         !
 ! D13   D(6,5,7,18)            44.935                                          !
 ! D14   D(8,5,7,11)           100.932                                          !
 ! D15   D(8,5,7,18)           -83.2273                                         !
 ! D16   D(1,5,8,9)             65.3763                                         !
 ! D17   D(1,5,8,10)           -51.3339                                         !
 ! D18   D(1,5,8,12)          -171.8356                                         !
 ! D19   D(6,5,8,9)           -176.4052                                         !
 ! D20   D(6,5,8,10)            66.8845                                         !
 ! D21   D(6,5,8,12)           -53.6171                                         !
 ! D22   D(7,5,8,9)            -48.2291                                         !
 ! D23   D(7,5,8,10)          -164.9393                                         !
 ! D24   D(7,5,8,12)            74.559                                          !
 ! D25   D(5,7,18,19)           16.8797                                         !
 ! D26   D(5,7,18,20)          175.6295                                         !
 ! D27   D(11,7,18,19)        -167.6788                                         !
 ! D28   D(11,7,18,20)          -8.929                                          !
 ! D29   D(5,8,12,13)           23.5493                                         !
 ! D30   D(5,8,12,14)          139.8294                                         !
 ! D31   D(5,8,12,15)         -100.0188                                         !
 ! D32   D(9,8,12,13)          146.3757                                         !
 ! D33   D(9,8,12,14)          -97.3443                                         !
 ! D34   D(9,8,12,15)           22.8076                                         !
 ! D35   D(10,8,12,13)         -95.9472                                         !
 ! D36   D(10,8,12,14)          20.3329                                         !
 ! D37   D(10,8,12,15)         140.4847                                         !
 ! D38   D(8,12,15,16)          15.2135                                         !
 ! D39   D(8,12,15,17)        -164.316                                          !
 ! D40   D(13,12,15,16)       -110.52                                           !
 ! D41   D(13,12,15,17)         69.9506                                         !
 ! D42   D(14,12,15,16)        136.5485                                         !
 ! D43   D(14,12,15,17)        -42.981                                          !
 ! D44   D(12,15,17,62)        175.4652                                         !
 ! D45   D(16,15,17,62)         -4.0303                                         !
 ! D46   D(7,18,20,21)         -18.117                                          !
 ! D47   D(7,18,20,22)        -136.2415                                         !
 ! D48   D(7,18,20,23)         104.4011                                         !
 ! D49   D(19,18,20,21)        142.3126                                         !
 ! D50   D(19,18,20,22)         24.188                                          !
 ! D51   D(19,18,20,23)        -95.1693                                         !
 ! D52   D(18,20,22,26)        -22.0745                                         !
 ! D53   D(18,20,22,37)        158.8354                                         !
 ! D54   D(21,20,22,26)       -138.3821                                         !
 ! D55   D(21,20,22,37)         42.5278                                         !
 ! D56   D(23,20,22,26)         98.6912                                         !
 ! D57   D(23,20,22,37)        -80.3989                                         !
 ! D58   D(18,20,23,24)        169.8058                                         !
 ! D59   D(18,20,23,25)         55.8703                                         !
 ! D60   D(18,20,23,27)        -67.4823                                         !
 ! D61   D(21,20,23,24)        -69.4529                                         !
 ! D62   D(21,20,23,25)        176.6116                                         !
 ! D63   D(21,20,23,27)         53.259                                          !
 ! D64   D(22,20,23,24)         53.2256                                         !
 ! D65   D(22,20,23,25)        -60.71                                           !
 ! D66   D(22,20,23,27)        175.9375                                         !
 ! D67   D(20,22,37,38)          3.8805                                         !
 ! D68   D(20,22,37,39)        176.2154                                         !
 ! D69   D(26,22,37,38)       -175.1661                                         !
 ! D70   D(26,22,37,39)         -2.8313                                         !
 ! D71   D(20,23,27,28)         54.2724                                         !
 ! D72   D(20,23,27,29)        171.2915                                         !
 ! D73   D(20,23,27,33)        -64.9901                                         !
 ! D74   D(24,23,27,28)        176.414                                          !
 ! D75   D(24,23,27,29)        -66.5669                                         !
 ! D76   D(24,23,27,33)         57.1515                                         !
 ! D77   D(25,23,27,28)        -67.8234                                         !
 ! D78   D(25,23,27,29)         49.1957                                         !
 ! D79   D(25,23,27,33)        172.9141                                         !
 ! D80   D(23,27,29,30)         62.4766                                         !
 ! D81   D(23,27,29,31)       -178.0978                                         !
 ! D82   D(23,27,29,32)        -57.7136                                         !
 ! D83   D(28,27,29,30)        179.6926                                         !
 ! D84   D(28,27,29,31)        -60.8818                                         !
 ! D85   D(28,27,29,32)         59.5024                                         !
 ! D86   D(33,27,29,30)        -62.1742                                         !
 ! D87   D(33,27,29,31)         57.2514                                         !
 ! D88   D(33,27,29,32)        177.6356                                         !
 ! D89   D(23,27,33,34)        -58.7729                                         !
 ! D90   D(23,27,33,35)         62.7724                                         !
 ! D91   D(23,27,33,36)       -177.5856                                         !
 ! D92   D(28,27,33,34)       -177.9764                                         !
 ! D93   D(28,27,33,35)        -56.4311                                         !
 ! D94   D(28,27,33,36)         63.2109                                         !
 ! D95   D(29,27,33,34)         64.142                                          !
 ! D96   D(29,27,33,35)       -174.3127                                         !
 ! D97   D(29,27,33,36)        -54.6706                                         !
 ! D98   D(22,37,39,40)          7.4404                                         !
 ! D99   D(22,37,39,41)       -108.4915                                         !
 ! D100  D(22,37,39,42)        127.1426                                         !
 ! D101  D(38,37,39,40)        179.836                                          !
 ! D102  D(38,37,39,41)         63.9041                                         !
 ! D103  D(38,37,39,42)        -60.4618                                         !
 ! D104  D(37,39,41,45)        176.2074                                         !
 ! D105  D(37,39,41,60)         -5.2126                                         !
 ! D106  D(40,39,41,45)         60.4499                                         !
 ! D107  D(40,39,41,60)       -120.9701                                         !
 ! D108  D(42,39,41,45)        -57.775                                          !
 ! D109  D(42,39,41,60)        120.805                                          !
 ! D110  D(37,39,42,43)       -176.4579                                         !
 ! D111  D(37,39,42,44)         69.9195                                         !
 ! D112  D(37,39,42,46)        -51.9011                                         !
 ! D113  D(40,39,42,43)        -59.1315                                         !
 ! D114  D(40,39,42,44)       -172.7541                                         !
 ! D115  D(40,39,42,46)         65.4253                                         !
 ! D116  D(41,39,42,43)         56.7303                                         !
 ! D117  D(41,39,42,44)        -56.8923                                         !
 ! D118  D(41,39,42,46)       -178.7128                                         !
 ! D119  D(39,41,60,61)       -179.0549                                         !
 ! D120  D(45,41,60,61)         -0.4861                                         !
 ! D121  D(39,42,46,47)         64.4211                                         !
 ! D122  D(39,42,46,48)        179.925                                          !
 ! D123  D(39,42,46,49)        -56.5182                                         !
 ! D124  D(43,42,46,47)       -173.8889                                         !
 ! D125  D(43,42,46,48)        -58.3851                                         !
 ! D126  D(43,42,46,49)         65.1718                                         !
 ! D127  D(44,42,46,47)        -57.6665                                         !
 ! D128  D(44,42,46,48)         57.8374                                         !
 ! D129  D(44,42,46,49)       -178.6058                                         !
 ! D130  D(42,46,49,50)        170.1905                                         !
 ! D131  D(42,46,49,51)         53.8763                                         !
 ! D132  D(42,46,49,52)        -70.4448                                         !
 ! D133  D(47,46,49,50)         48.2551                                         !
 ! D134  D(47,46,49,51)        -68.0591                                         !
 ! D135  D(47,46,49,52)        167.6198                                         !
 ! D136  D(48,46,49,50)        -66.7121                                         !
 ! D137  D(48,46,49,51)        176.9736                                         !
 ! D138  D(48,46,49,52)         52.6526                                         !
 ! D139  D(46,49,52,53)         36.4179                                         !
 ! D140  D(46,49,52,59)       -176.5468                                         !
 ! D141  D(50,49,52,53)        156.7627                                         !
 ! D142  D(50,49,52,59)        -56.202                                          !
 ! D143  D(51,49,52,53)        -87.7515                                         !
 ! D144  D(51,49,52,59)         59.2838                                         !
 ! D145  D(49,52,59,54)       -177.4462                                         !
 ! D146  D(49,52,59,57)          1.6718                                         !
 ! D147  D(53,52,59,54)        -29.7721                                         !
 ! D148  D(53,52,59,57)        149.3459                                         !
 ! D149  D(55,54,59,52)       -173.2111                                         !
 ! D150  D(55,54,59,57)          7.7149                                         !
 ! D151  D(56,54,59,52)        -36.6512                                         !
 ! D152  D(56,54,59,57)        144.2749                                         !
 ! D153  D(58,57,59,52)        171.9165                                         !
 ! D154  D(58,57,59,54)         -9.0725                                         !
 --------------------------------------------------------------------------------
 Symmetry turned off by external request.
 Stoichiometry    C17H33N6O6(1+)
 Framework group  C1[X(C17H33N6O6)]
 Deg. of freedom   180
 Full point group                 C1      NOp   1
                          Input orientation:                          
 ---------------------------------------------------------------------
 Center     Atomic      Atomic             Coordinates (Angstroms)
 Number     Number       Type             X           Y           Z
 ---------------------------------------------------------------------
      1          7           0       -2.895035   -1.573423   -3.904464
      2          1           0       -3.632698   -2.127551   -3.460458
      3          1           0       -2.997510   -0.556766   -3.597280
      4          1           0       -2.977315   -1.669162   -4.920436
      5          6           0       -1.500759   -1.902199   -3.389806
      6          1           0       -1.549987   -2.869399   -2.882751
      7          6           0       -1.272189   -0.749580   -2.365376
      8          6           0       -0.539533   -1.962203   -4.590869
      9          1           0       -0.465549   -0.963060   -5.034555
     10          1           0       -1.000377   -2.635276   -5.325657
     11          8           0       -2.025716    0.233699   -2.455031
     12          6           0        0.878518   -2.474522   -4.287698
     13          1           0        0.915100   -3.103397   -3.387637
     14          1           0        1.215259   -3.126096   -5.099168
     15          6           0        1.911017   -1.350464   -4.138667
     16          8           0        1.579838   -0.183419   -3.981824
     17          8           0        3.126612   -1.835738   -4.215693
     18          7           0       -0.354143   -0.931271   -1.422783
     19          1           0        0.353028   -1.661398   -1.507733
     20          6           0        0.027877    0.101728   -0.454800
     21          1           0       -0.304247    1.067133   -0.844368
     22          6           0        1.564682    0.044344   -0.387730
     23          6           0       -0.570394   -0.166923    0.946444
     24          1           0       -0.101083    0.530329    1.654223
     25          1           0       -0.250598   -1.171376    1.253460
     26          8           0        2.161065   -0.976362   -0.727932
     27          6           0       -2.102799   -0.047293    1.064508
     28          1           0       -2.555082   -0.703151    0.305539
     29          6           0       -2.550463   -0.551933    2.445407
     30          1           0       -2.123135    0.064240    3.246333
     31          1           0       -3.640676   -0.508923    2.542675
     32          1           0       -2.237189   -1.588104    2.618464
     33          6           0       -2.600804    1.384512    0.816970
     34          1           0       -2.147287    2.085229    1.530055
     35          1           0       -2.380497    1.730417   -0.198122
     36          1           0       -3.686704    1.441942    0.950556
     37          7           0        2.167545    1.163778    0.078172
     38          1           0        1.589364    1.927849    0.403203
     39          6           0        3.603919    1.261973    0.285723
     40          1           0        4.027787    0.344486   -0.130849
     41          6           0        4.009351    1.284208    1.760378
     42          6           0        4.215442    2.492900   -0.427041
     43          1           0        5.298657    2.445622   -0.267894
     44          1           0        3.882860    3.406719    0.083843
     45          8           0        5.160366    1.294966    2.126075
     46          6           0        3.853772    2.603748   -1.917873
     47          1           0        2.773045    2.757245   -2.012166
     48          1           0        4.331533    3.502880   -2.326370
     49          6           0        4.214843    1.397583   -2.786295
     50          1           0        3.761406    1.510889   -3.773887
     51          1           0        3.791981    0.476282   -2.366825
     52          7           0        5.659068    1.275286   -2.969035
     53          1           0        6.243946    1.522310   -2.180883
     54          7           0        7.550620    0.259098   -3.814843
     55          1           0        7.962193   -0.380688   -4.481114
     56          1           0        8.020724    1.155786   -3.784122
     57          7           0        5.379504   -0.519526   -4.416906
     58          1           0        5.889726   -1.105363   -5.075503
     59          6           0        6.165854    0.292327   -3.778466
     60          8           0        2.953063    1.321316    2.605260
     61          1           0        3.325390    1.348063    3.508280
     62          1           0        3.903131   -1.143384   -4.199371
 ---------------------------------------------------------------------
 Rotational constants (GHZ):           0.1739883           0.1198564           0.0780095
 Standard basis: 6-31G(d) (6D, 7F)
   501 basis functions,   944 primitive gaussians,   501 cartesian basis functions
   112 alpha electrons      112 beta electrons
       nuclear repulsion energy      3120.4426710184 Hartrees.
 NAtoms=   62 NActive=   62 NUniq=   62 SFac= 1.00D+00 NAtFMM=   60 NAOKFM=T Big=T
 Integral buffers will be    131072 words long.
 Raffenetti 2 integral format.
 Two-electron integral symmetry is turned off.
 One-electron integrals computed using PRISM.
 NBasis=   501 RedAO= T EigKep=  2.08D-03  NBF=   501
 NBsUse=   501 1.00D-06 EigRej= -1.00D+00 NBFU=   501
 Initial guess from the checkpoint file:  "conf-538.chk"
 B after Tr=     0.000000    0.000000    0.000000
         Rot=    1.000000    0.000000    0.000000    0.000000 Ang=   0.00 deg.
 Requested convergence on RMS density matrix=1.00D-08 within 128 cycles.
 Requested convergence on MAX density matrix=1.00D-06.
 Requested convergence on             energy=1.00D-06.
 No special actions if energy rises.
 SCF Done:  E(RB3LYP) =  -1447.40365458     A.U. after    2 cycles
            NFock=  2  Conv=0.89D-08     -V/T= 2.0094

 **********************************************************************

            Population analysis using the SCF Density.

 **********************************************************************

 Alpha  occ. eigenvalues --  -19.28743 -19.26928 -19.23987 -19.22610 -19.22510
 Alpha  occ. eigenvalues --  -19.21025 -14.59985 -14.49493 -14.46975 -14.43354
 Alpha  occ. eigenvalues --  -14.43222 -14.38343 -10.43735 -10.40947 -10.40851
 Alpha  occ. eigenvalues --  -10.39722 -10.39549 -10.37510 -10.34661 -10.33540
 Alpha  occ. eigenvalues --  -10.33376 -10.30705 -10.28998 -10.28851 -10.28493
 Alpha  occ. eigenvalues --  -10.28246 -10.27223 -10.25614 -10.25536  -1.19413
 Alpha  occ. eigenvalues --   -1.19388  -1.16004  -1.14653  -1.13732  -1.10377
 Alpha  occ. eigenvalues --   -1.07799  -1.06572  -1.06083  -1.03497  -0.97349
 Alpha  occ. eigenvalues --   -0.94069  -0.93159  -0.91058  -0.88931  -0.86625
 Alpha  occ. eigenvalues --   -0.84751  -0.82633  -0.78505  -0.76747  -0.76515
 Alpha  occ. eigenvalues --   -0.75634  -0.73971  -0.72530  -0.71827  -0.70883
 Alpha  occ. eigenvalues --   -0.69630  -0.69199  -0.67660  -0.66999  -0.66164
 Alpha  occ. eigenvalues --   -0.64545  -0.63280  -0.62455  -0.61566  -0.60455
 Alpha  occ. eigenvalues --   -0.59929  -0.59083  -0.58525  -0.57996  -0.57129
 Alpha  occ. eigenvalues --   -0.56543  -0.56277  -0.55425  -0.55253  -0.54391
 Alpha  occ. eigenvalues --   -0.53989  -0.53438  -0.53137  -0.52647  -0.51919
 Alpha  occ. eigenvalues --   -0.51452  -0.51017  -0.50716  -0.50366  -0.49782
 Alpha  occ. eigenvalues --   -0.49073  -0.48904  -0.48322  -0.47948  -0.47446
 Alpha  occ. eigenvalues --   -0.46663  -0.46603  -0.46279  -0.45189  -0.44521
 Alpha  occ. eigenvalues --   -0.43507  -0.42747  -0.42484  -0.42193  -0.41674
 Alpha  occ. eigenvalues --   -0.41497  -0.41352  -0.40313  -0.39276  -0.38365
 Alpha  occ. eigenvalues --   -0.37868  -0.36662  -0.36336  -0.34864  -0.34490
 Alpha  occ. eigenvalues --   -0.33819  -0.31751
 Alpha virt. eigenvalues --   -0.12488  -0.11192  -0.08240  -0.07715  -0.06872
 Alpha virt. eigenvalues --   -0.05957  -0.05162  -0.03577  -0.03059  -0.01692
 Alpha virt. eigenvalues --   -0.01221  -0.00629  -0.00262   0.00391   0.00985
 Alpha virt. eigenvalues --    0.01427   0.02188   0.02914   0.03357   0.03627
 Alpha virt. eigenvalues --    0.03919   0.04138   0.04739   0.05870   0.05979
 Alpha virt. eigenvalues --    0.06441   0.06755   0.07040   0.07554   0.07828
 Alpha virt. eigenvalues --    0.08136   0.08248   0.08991   0.09318   0.09617
 Alpha virt. eigenvalues --    0.10265   0.10659   0.10960   0.11723   0.11984
 Alpha virt. eigenvalues --    0.12524   0.12954   0.14123   0.14216   0.14501
 Alpha virt. eigenvalues --    0.14946   0.15316   0.15417   0.16551   0.16825
 Alpha virt. eigenvalues --    0.17155   0.18059   0.18407   0.19138   0.19913
 Alpha virt. eigenvalues --    0.21692   0.23142   0.23480   0.24725   0.25526
 Alpha virt. eigenvalues --    0.27576   0.29186   0.29814   0.30802   0.31183
 Alpha virt. eigenvalues --    0.34930   0.36221   0.38621   0.39916   0.40429
 Alpha virt. eigenvalues --    0.41350   0.42163   0.42475   0.43108   0.43359
 Alpha virt. eigenvalues --    0.44243   0.44766   0.44817   0.45652   0.46594
 Alpha virt. eigenvalues --    0.47044   0.47675   0.48309   0.48833   0.49558
 Alpha virt. eigenvalues --    0.49719   0.50355   0.50771   0.52194   0.52460
 Alpha virt. eigenvalues --    0.52872   0.53411   0.54493   0.54860   0.54999
 Alpha virt. eigenvalues --    0.56090   0.56234   0.56943   0.57768   0.57973
 Alpha virt. eigenvalues --    0.58454   0.58855   0.59715   0.60159   0.60769
 Alpha virt. eigenvalues --    0.61515   0.62534   0.62608   0.63362   0.64072
 Alpha virt. eigenvalues --    0.64591   0.64761   0.65452   0.66159   0.66834
 Alpha virt. eigenvalues --    0.67287   0.67569   0.67984   0.68207   0.69649
 Alpha virt. eigenvalues --    0.69946   0.70320   0.71201   0.71787   0.72140
 Alpha virt. eigenvalues --    0.73236   0.73290   0.74383   0.75276   0.75546
 Alpha virt. eigenvalues --    0.75637   0.76051   0.76704   0.76880   0.77207
 Alpha virt. eigenvalues --    0.77701   0.78271   0.79126   0.79720   0.79970
 Alpha virt. eigenvalues --    0.80449   0.80800   0.81123   0.81755   0.82027
 Alpha virt. eigenvalues --    0.82345   0.82514   0.83133   0.83421   0.83773
 Alpha virt. eigenvalues --    0.84354   0.84508   0.84798   0.85485   0.86194
 Alpha virt. eigenvalues --    0.86283   0.86421   0.86916   0.87194   0.87643
 Alpha virt. eigenvalues --    0.88031   0.88789   0.89898   0.90244   0.90919
 Alpha virt. eigenvalues --    0.92156   0.92785   0.93394   0.94421   0.95373
 Alpha virt. eigenvalues --    0.95527   0.96940   0.97458   0.98403   0.99255
 Alpha virt. eigenvalues --    1.00475   1.01027   1.01750   1.02771   1.03110
 Alpha virt. eigenvalues --    1.04898   1.06511   1.08435   1.09395   1.10490
 Alpha virt. eigenvalues --    1.12280   1.13893   1.15328   1.16369   1.17671
 Alpha virt. eigenvalues --    1.19437   1.20922   1.22253   1.22884   1.25189
 Alpha virt. eigenvalues --    1.26377   1.27320   1.28064   1.29359   1.29826
 Alpha virt. eigenvalues --    1.30616   1.31976   1.32419   1.33791   1.34770
 Alpha virt. eigenvalues --    1.36655   1.36764   1.37233   1.37674   1.38360
 Alpha virt. eigenvalues --    1.40963   1.42623   1.44006   1.44558   1.46535
 Alpha virt. eigenvalues --    1.47160   1.49275   1.50145   1.51212   1.53310
 Alpha virt. eigenvalues --    1.53646   1.54805   1.56693   1.57279   1.57698
 Alpha virt. eigenvalues --    1.58797   1.59650   1.60345   1.61389   1.62322
 Alpha virt. eigenvalues --    1.63572   1.63820   1.64801   1.65325   1.65518
 Alpha virt. eigenvalues --    1.66379   1.67885   1.68194   1.68707   1.69039
 Alpha virt. eigenvalues --    1.69245   1.70376   1.70909   1.71662   1.72127
 Alpha virt. eigenvalues --    1.72789   1.73690   1.74403   1.74544   1.75193
 Alpha virt. eigenvalues --    1.76214   1.76588   1.77279   1.78008   1.78050
 Alpha virt. eigenvalues --    1.79801   1.80840   1.81377   1.81822   1.82151
 Alpha virt. eigenvalues --    1.82954   1.83869   1.85388   1.85644   1.86376
 Alpha virt. eigenvalues --    1.86658   1.87901   1.89479   1.90301   1.90928
 Alpha virt. eigenvalues --    1.91727   1.92567   1.93333   1.93457   1.94342
 Alpha virt. eigenvalues --    1.95652   1.96574   1.97865   1.98569   1.99206
 Alpha virt. eigenvalues --    1.99478   2.00649   2.00941   2.02328   2.03498
 Alpha virt. eigenvalues --    2.04100   2.05059   2.06880   2.08173   2.09970
 Alpha virt. eigenvalues --    2.10341   2.10935   2.12793   2.13652   2.14736
 Alpha virt. eigenvalues --    2.16070   2.16375   2.16878   2.18246   2.19811
 Alpha virt. eigenvalues --    2.22136   2.22903   2.23640   2.24495   2.26597
 Alpha virt. eigenvalues --    2.26886   2.28277   2.29251   2.29660   2.30552
 Alpha virt. eigenvalues --    2.31890   2.32063   2.33191   2.34268   2.35676
 Alpha virt. eigenvalues --    2.36840   2.39078   2.40139   2.41619   2.42375
 Alpha virt. eigenvalues --    2.43433   2.43693   2.44929   2.45838   2.47505
 Alpha virt. eigenvalues --    2.48219   2.48785   2.51405   2.53113   2.53985
 Alpha virt. eigenvalues --    2.55856   2.56838   2.57858   2.58913   2.59982
 Alpha virt. eigenvalues --    2.60792   2.61655   2.63290   2.64306   2.64878
 Alpha virt. eigenvalues --    2.65965   2.67298   2.69204   2.70183   2.72693
 Alpha virt. eigenvalues --    2.75342   2.76471   2.80080   2.83705   2.84605
 Alpha virt. eigenvalues --    2.87986   2.90131   2.92039   2.92573   2.93660
 Alpha virt. eigenvalues --    3.00533   3.01567   3.04511   3.05435   3.08418
 Alpha virt. eigenvalues --    3.63599   3.72867   3.73791   3.81734   3.91299
 Alpha virt. eigenvalues --    3.92332   3.93531   3.97829   3.99987   4.03175
 Alpha virt. eigenvalues --    4.05011   4.07647   4.11256   4.15163   4.16223
 Alpha virt. eigenvalues --    4.20368   4.20645   4.21713   4.23859   4.26854
 Alpha virt. eigenvalues --    4.32730   4.36184   4.40281   4.42834   4.45814
 Alpha virt. eigenvalues --    4.47473   4.50967   4.55684   4.61384
          Condensed to atoms (all electrons):
 Mulliken charges:
               1
     1  N   -0.758145
     2  H    0.414983
     3  H    0.436284
     4  H    0.412337
     5  C   -0.120911
     6  H    0.212023
     7  C    0.676466
     8  C   -0.284650
     9  H    0.208836
    10  H    0.162062
    11  O   -0.543652
    12  C   -0.385047
    13  H    0.179963
    14  H    0.205420
    15  C    0.616424
    16  O   -0.510271
    17  O   -0.605663
    18  N   -0.590254
    19  H    0.373893
    20  C   -0.093989
    21  H    0.196072
    22  C    0.655059
    23  C   -0.259360
    24  H    0.157140
    25  H    0.155830
    26  O   -0.536445
    27  C   -0.067579
    28  H    0.109991
    29  C   -0.446761
    30  H    0.153900
    31  H    0.156540
    32  H    0.147866
    33  C   -0.463006
    34  H    0.145329
    35  H    0.161260
    36  H    0.158056
    37  N   -0.595286
    38  H    0.344366
    39  C   -0.072609
    40  H    0.226350
    41  C    0.599284
    42  C   -0.296964
    43  H    0.175311
    44  H    0.155340
    45  O   -0.443592
    46  C   -0.293387
    47  H    0.152606
    48  H    0.163200
    49  C   -0.129617
    50  H    0.188714
    51  H    0.174457
    52  N   -0.612425
    53  H    0.333866
    54  N   -0.762103
    55  H    0.340539
    56  H    0.342607
    57  N   -0.739142
    58  H    0.298527
    59  C    0.689158
    60  O   -0.573451
    61  H    0.426155
    62  H    0.478094
 Sum of Mulliken charges =   1.00000
 Mulliken charges with hydrogens summed into heavy atoms:
               1
     1  N    0.505458
     5  C    0.091112
     7  C    0.676466
     8  C    0.086247
    11  O   -0.543652
    12  C    0.000337
    15  C    0.616424
    16  O   -0.510271
    17  O   -0.127569
    18  N   -0.216361
    20  C    0.102083
    22  C    0.655059
    23  C    0.053611
    26  O   -0.536445
    27  C    0.042413
    29  C    0.011544
    33  C    0.001640
    37  N   -0.250920
    39  C    0.153742
    41  C    0.599284
    42  C    0.033687
    45  O   -0.443592
    46  C    0.022420
    49  C    0.233554
    52  N   -0.278559
    54  N   -0.078957
    57  N   -0.440615
    59  C    0.689158
    60  O   -0.147296
 Electronic spatial extent (au):  <R**2>=          17870.0712
 Charge=              1.0000 electrons
 Dipole moment (field-independent basis, Debye):
    X=             -1.2285    Y=             -3.6419    Z=            -13.2862  Tot=             13.8309
 Quadrupole moment (field-independent basis, Debye-Ang):
   XX=            -82.5506   YY=           -146.3240   ZZ=            -95.5041
   XY=             34.5859   XZ=              0.8424   YZ=             31.3105
 Traceless Quadrupole moment (field-independent basis, Debye-Ang):
   XX=             25.5756   YY=            -38.1978   ZZ=             12.6222
   XY=             34.5859   XZ=              0.8424   YZ=             31.3105
 Octapole moment (field-independent basis, Debye-Ang**2):
  XXX=           -445.8876  YYY=            -40.0629  ZZZ=            488.2510  XYY=           -285.0053
  XXY=              8.1159  XXZ=           -180.3735  XZZ=           -267.4818  YZZ=           -136.8529
  YYZ=            192.6814  XYZ=            -83.5676
 Hexadecapole moment (field-independent basis, Debye-Ang**3):
 XXXX=          -7740.6273 YYYY=          -2038.3003 ZZZZ=          -6459.7046 XXXY=           -344.9325
 XXXZ=           -561.1535 YYYX=           -778.4478 YYYZ=           -663.6281 ZZZX=           1944.3933
 ZZZY=            -83.4035 XXYY=          -2130.9084 XXZZ=          -1519.2519 YYZZ=          -1441.6015
 XXYZ=           -176.6208 YYXZ=            713.8784 ZZXY=            -68.2533
 N-N= 3.120442671018D+03 E-N=-9.592929190836D+03  KE= 1.433968020378D+03
 Unable to Open any file for archive entry.
 1\1\GINC-NAL-001\SP\RB3LYP\6-31G(d)\C17H33N6O6(1+)\KENGMITH\26-May-202
 2\0\\# B3LYP/6-31G* guess=read geom=check nosymm integral(ultrafinegri
 d)\\Candidate Structure: Conf:538 Charge calc in gas phase\\1,1\N,0,-2
 .8950353625,-1.5734226617,-3.9044642655\H,0,-3.632697624,-2.127550954,
 -3.4604581157\H,0,-2.9975098172,-0.5567656731,-3.5972797656\H,0,-2.977
 3153002,-1.6691623985,-4.9204357057\C,0,-1.5007592065,-1.9021985012,-3
 .3898057806\H,0,-1.5499869435,-2.8693992598,-2.882750717\C,0,-1.272188
 5451,-0.7495798581,-2.3653757875\C,0,-0.5395331152,-1.9622034379,-4.59
 08692639\H,0,-0.4655488065,-0.9630604667,-5.0345554871\H,0,-1.00037747
 66,-2.6352764364,-5.3256572493\O,0,-2.0257161238,0.2336991533,-2.45503
 08893\C,0,0.8785176232,-2.4745223051,-4.2876979498\H,0,0.9150998924,-3
 .1033967232,-3.3876373837\H,0,1.2152589141,-3.1260961874,-5.0991683131
 \C,0,1.9110173283,-1.3504644143,-4.1386665651\O,0,1.5798384846,-0.1834
 194413,-3.9818241926\O,0,3.1266124003,-1.8357380615,-4.2156931338\N,0,
 -0.3541431206,-0.931271235,-1.4227827009\H,0,0.3530276433,-1.661397982
 8,-1.5077333874\C,0,0.0278768277,0.1017276181,-0.4548002058\H,0,-0.304
 2469741,1.0671330811,-0.8443677133\C,0,1.5646817373,0.0443443179,-0.38
 77298784\C,0,-0.5703941605,-0.1669228903,0.9464435996\H,0,-0.101082726
 2,0.5303293274,1.6542229462\H,0,-0.2505978315,-1.1713758727,1.25345962
 15\O,0,2.1610654623,-0.9763622611,-0.7279317483\C,0,-2.1027993334,-0.0
 472927401,1.0645081764\H,0,-2.5550816786,-0.7031512284,0.3055388083\C,
 0,-2.550463234,-0.5519328043,2.4454068808\H,0,-2.1231351798,0.06424042
 68,3.246333377\H,0,-3.6406756941,-0.5089227631,2.5426754228\H,0,-2.237
 188774,-1.5881043908,2.6184639591\C,0,-2.6008039752,1.3845120925,0.816
 9700973\H,0,-2.1472871929,2.0852291351,1.5300549981\H,0,-2.380497258,1
 .7304167378,-0.1981215047\H,0,-3.6867041629,1.4419416498,0.9505557828\
 N,0,2.1675453854,1.1637776395,0.0781718111\H,0,1.5893640694,1.92784863
 22,0.4032033924\C,0,3.6039193286,1.2619725394,0.2857233302\H,0,4.02778
 68422,0.3444862348,-0.1308491447\C,0,4.0093512238,1.2842081559,1.76037
 78715\C,0,4.2154419857,2.4929000341,-0.4270410958\H,0,5.2986569056,2.4
 456216013,-0.2678936999\H,0,3.8828603892,3.4067191292,0.0838432638\O,0
 ,5.1603663549,1.2949664537,2.1260753176\C,0,3.8537719419,2.6037477891,
 -1.917873461\H,0,2.7730450673,2.7572448152,-2.0121661322\H,0,4.3315329
 406,3.502879931,-2.3263700435\C,0,4.2148425864,1.3975828751,-2.7862949
 442\H,0,3.7614060634,1.5108887447,-3.7738872078\H,0,3.7919810135,0.476
 2820889,-2.3668250918\N,0,5.659067917,1.2752857717,-2.9690350947\H,0,6
 .2439462168,1.5223101475,-2.1808833601\N,0,7.550619806,0.2590983175,-3
 .8148430058\H,0,7.962192698,-0.3806875952,-4.4811136549\H,0,8.02072414
 06,1.1557859591,-3.7841220468\N,0,5.3795040368,-0.5195260386,-4.416905
 9132\H,0,5.8897258287,-1.1053630262,-5.0755034183\C,0,6.1658543104,0.2
 923269477,-3.7784663421\O,0,2.9530627292,1.3213162425,2.6052599916\H,0
 ,3.325390004,1.3480627883,3.5082800216\H,0,3.9031313983,-1.1433839497,
 -4.1993714084\\Version=ES64L-G16RevC.01\HF=-1447.4036546\RMSD=8.870e-0
 9\Dipole=-3.6520271,-1.5042673,-2.3351888\Quadrupole=19.0148332,-28.39
 91058,9.3842726,25.7137706,0.6263365,23.2785851\PG=C01 [X(C17H33N6O6)]
 \\@
 The archive entry for this job was punched.


 The chemist is a guest at the physicist's table and
 frequently dines well.
                   -- Richard Bersohn
 Job cpu time:       0 days  0 hours  1 minutes 33.9 seconds.
 Elapsed time:       0 days  0 hours  0 minutes 26.1 seconds.
 File lengths (MBytes):  RWF=    248 Int=      0 D2E=      0 Chk=     32 Scr=     16
 Normal termination of Gaussian 16 at Thu May 26 19:11:18 2022.
