 Entering Gaussian System, Link 0=/opt/software/Gaussian/g16-AVX2-C.01/g16/g16
 Input=charge-conf-145.com
 Output=charge-conf-145.log
 Initial command:
 /opt/software/Gaussian/g16-AVX2-C.01/g16/l1.exe "/mnt/gs21/scratch/kengmith/Gau-23169.inp" -scrdir="/mnt/gs21/scratch/kengmith/"
 Entering Link 1 = /opt/software/Gaussian/g16-AVX2-C.01/g16/l1.exe PID=     23179.
  
 Copyright (c) 1988-2019, Gaussian, Inc.  All Rights Reserved.
  
 This is part of the Gaussian(R) 16 program.  It is based on
 the Gaussian(R) 09 system (copyright 2009, Gaussian, Inc.),
 the Gaussian(R) 03 system (copyright 2003, Gaussian, Inc.),
 the Gaussian(R) 98 system (copyright 1998, Gaussian, Inc.),
 the Gaussian(R) 94 system (copyright 1995, Gaussian, Inc.),
 the Gaussian 92(TM) system (copyright 1992, Gaussian, Inc.),
 the Gaussian 90(TM) system (copyright 1990, Gaussian, Inc.),
 the Gaussian 88(TM) system (copyright 1988, Gaussian, Inc.),
 the Gaussian 86(TM) system (copyright 1986, Carnegie Mellon
 University), and the Gaussian 82(TM) system (copyright 1983,
 Carnegie Mellon University). Gaussian is a federally registered
 trademark of Gaussian, Inc.
  
 This software contains proprietary and confidential information,
 including trade secrets, belonging to Gaussian, Inc.
  
 This software is provided under written license and may be
 used, copied, transmitted, or stored only in accord with that
 written license.
  
 The following legend is applicable only to US Government
 contracts under FAR:
  
                    RESTRICTED RIGHTS LEGEND
  
 Use, reproduction and disclosure by the US Government is
 subject to restrictions as set forth in subparagraphs (a)
 and (c) of the Commercial Computer Software - Restricted
 Rights clause in FAR 52.227-19.
  
 Gaussian, Inc.
 340 Quinnipiac St., Bldg. 40, Wallingford CT 06492
  
  
 ---------------------------------------------------------------
 Warning -- This program may not be used in any manner that
 competes with the business of Gaussian, Inc. or will provide
 assistance to any competitor of Gaussian, Inc.  The licensee
 of this program is prohibited from giving any competitor of
 Gaussian, Inc. access to this program.  By using this program,
 the user acknowledges that Gaussian, Inc. is engaged in the
 business of creating and licensing software in the field of
 computational chemistry and represents and warrants to the
 licensee that it is not a competitor of Gaussian, Inc. and that
 it will not use this program in any manner prohibited above.
 ---------------------------------------------------------------
  

 Cite this work as:
 Gaussian 16, Revision C.01,
 M. J. Frisch, G. W. Trucks, H. B. Schlegel, G. E. Scuseria, 
 M. A. Robb, J. R. Cheeseman, G. Scalmani, V. Barone, 
 G. A. Petersson, H. Nakatsuji, X. Li, M. Caricato, A. V. Marenich, 
 J. Bloino, B. G. Janesko, R. Gomperts, B. Mennucci, H. P. Hratchian, 
 J. V. Ortiz, A. F. Izmaylov, J. L. Sonnenberg, D. Williams-Young, 
 F. Ding, F. Lipparini, F. Egidi, J. Goings, B. Peng, A. Petrone, 
 T. Henderson, D. Ranasinghe, V. G. Zakrzewski, J. Gao, N. Rega, 
 G. Zheng, W. Liang, M. Hada, M. Ehara, K. Toyota, R. Fukuda, 
 J. Hasegawa, M. Ishida, T. Nakajima, Y. Honda, O. Kitao, H. Nakai, 
 T. Vreven, K. Throssell, J. A. Montgomery, Jr., J. E. Peralta, 
 F. Ogliaro, M. J. Bearpark, J. J. Heyd, E. N. Brothers, K. N. Kudin, 
 V. N. Staroverov, T. A. Keith, R. Kobayashi, J. Normand, 
 K. Raghavachari, A. P. Rendell, J. C. Burant, S. S. Iyengar, 
 J. Tomasi, M. Cossi, J. M. Millam, M. Klene, C. Adamo, R. Cammi, 
 J. W. Ochterski, R. L. Martin, K. Morokuma, O. Farkas, 
 J. B. Foresman, and D. J. Fox, Gaussian, Inc., Wallingford CT, 2019.
 
 ******************************************
 Gaussian 16:  ES64L-G16RevC.01  3-Jul-2019
                11-Aug-2022 
 ******************************************
 %mem=8gb
 %nproc=4
 Will use up to    4 processors via shared memory.
 %chk=conf-145.chk
 -------------------------------------------------------------------
 # B3LYP/6-31G* guess=read geom=check nosymm integral(ultrafinegrid)
 -------------------------------------------------------------------
 1/29=2,38=1,172=1/1;
 2/12=2,15=1,40=1/2;
 3/5=1,6=6,7=1,11=2,14=-4,25=1,30=1,74=-5,75=-5,116=-2/1,2,3;
 4/5=1/1;
 5/5=2,38=6/2;
 6/7=2,8=2,9=2,10=2,28=1/1;
 99/5=1,9=1/99;
 ------------------------------------------------------
 Candidate Structure: Conf:145 Charge calc in gas phase
 ------------------------------------------------------
 Structure from the checkpoint file:  "conf-145.chk"
 Charge =  1 Multiplicity = 1
 Redundant internal coordinates found in file.  (old form).
 N,0,-4.868750956,6.203267547,-4.1748904189
 H,0,-4.1398833533,6.2400317377,-3.4435781848
 H,0,-5.3754672124,7.0851452975,-4.2830001485
 H,0,-4.3185688728,6.04063691,-5.0733816637
 C,0,-5.7994759812,5.0831895133,-3.8767063148
 H,0,-5.2045865951,4.1772923756,-3.7455855929
 H,0,-6.3251031216,5.2988277024,-2.941514463
 C,0,-6.783349618,4.9520110487,-5.0366163155
 O,0,-6.8842773662,5.8578496627,-5.864876746
 N,0,-7.5133682618,3.8127476408,-5.0481415038
 H,0,-7.1314387763,3.0196630767,-4.5402562437
 C,0,-8.3873347669,3.5038074035,-6.1825042091
 H,0,-8.8080820282,4.4425317326,-6.5486681086
 H,0,-9.1899888967,2.8436458371,-5.85266852
 C,0,-7.5773872946,2.7724293342,-7.2608531942
 O,0,-7.7018011221,1.5610570022,-7.4454773981
 N,0,-6.6592096757,3.5377303161,-7.9072976109
 H,0,-6.5589166319,4.5079829924,-7.6250054298
 C,0,-5.6138629347,2.9366206388,-8.7326418504
 H,0,-6.0715412253,2.1866358557,-9.3843090974
 H,0,-5.1555511106,3.7140860574,-9.3437034147
 C,0,-4.513093163,2.3018249194,-7.8622757262
 O,0,-3.4051528527,2.8149150361,-7.7253883098
 N,0,-4.8892451684,1.1384088116,-7.2581770289
 H,0,-5.8717332272,0.877736724,-7.3389601494
 C,0,-4.0850668789,0.5280556248,-6.2333536377
 H,0,-4.1428602524,-0.5635963129,-6.3151767822
 H,0,-3.0448682142,0.8217554395,-6.410046961
 C,0,-4.4751912694,0.9743987407,-4.8097631425
 O,0,-5.0852502514,2.0235184746,-4.5911024095
 N,0,-4.0430889631,0.1441673596,-3.825271489
 H,0,-3.6497481221,-0.7490091553,-4.0949926131
 C,0,-4.3466945242,0.3357806513,-2.4123504286
 H,0,-4.6465021162,1.3800095275,-2.2852283834
 H,0,-5.1833698614,-0.2941308559,-2.0936408029
 C,0,-3.1779589678,0.0175193009,-1.4706038632
 O,0,-3.381562477,-0.4467199701,-0.359186139
 N,0,-1.9286720604,0.2823360911,-1.948274487
 H,0,-1.7944319777,0.8680951027,-2.7643796054
 C,0,-0.7752088835,0.1268256805,-1.085801418
 H,0,-0.949069457,0.6128081067,-0.1145884156
 H,0,-0.5908624881,-0.9333607319,-0.8756612891
 C,0,0.4317571447,0.7741371851,-1.7551482425
 O,0,0.2986016528,1.6562139905,-2.6127169941
 N,0,1.6442324177,0.3271273586,-1.3608238247
 H,0,1.7067993122,-0.2975299351,-0.5684042766
 C,0,2.8581739414,0.9697866261,-1.8393254828
 H,0,3.7121353162,0.4579444023,-1.3882179331
 H,0,2.9257742782,0.8526215152,-2.9259875992
 C,0,2.891284797,2.4496420696,-1.4196650262
 O,0,2.5874819311,2.7956353342,-0.2883148654
 N,0,3.2609088725,3.3262487041,-2.3985688602
 H,0,3.4027503923,2.9851267334,-3.3388210323
 C,0,3.2847965036,4.7585739746,-2.1634446736
 H,0,3.9724317208,5.2361274982,-2.8655114315
 H,0,3.6639636737,4.9393695549,-1.1534349659
 C,0,1.9385183237,5.4957922389,-2.2512093003
 O,0,1.9092664631,6.713146195,-2.1770062592
 N,0,0.8109531586,4.7196364676,-2.4081804283
 H,0,0.8914933343,3.7129219621,-2.2967189495
 C,0,-0.4947510562,5.2970452153,-2.1518440967
 H,0,-0.9045230188,4.9667555557,-1.1902873292
 H,0,-0.3631850317,6.3833732829,-2.0976988608
 C,0,-1.5484352917,4.9842039858,-3.2064328485
 O,0,-2.7513741666,5.1266812914,-2.9434477032
 N,0,-1.0863567022,4.557858712,-4.3991552248
 H,0,-0.0810317793,4.4577229406,-4.4743692564
 C,0,-1.9351221242,4.124763308,-5.501718215
 H,0,-1.436119916,3.3127677024,-6.0342967299
 H,0,-2.8715201305,3.7370858956,-5.0991199636
 C,0,-2.266498134,5.2657366211,-6.4731702854
 O,0,-3.2513630634,6.0121771991,-6.3146610836
 N,0,-1.3981292059,5.4493175321,-7.4689035032
 H,0,-0.6387440681,4.7986760469,-7.6628192888
 C,0,-1.5352898669,6.4717665503,-8.4839609945
 H,0,-1.518706153,7.471819704,-8.0348022113
 H,0,-2.4912129419,6.3680306458,-9.0126456329
 C,0,-0.3575809072,6.28713077,-9.4560199655
 O,0,0.4455412503,5.3657858625,-9.2977836735
 N,0,-0.2886440409,7.1821135255,-10.4543199691
 H,0,-0.9612054791,7.9369834454,-10.5745506516
 C,0,0.7427517631,7.1541232277,-11.4688244705
 H,0,1.7381783197,7.2606849351,-11.0192792363
 H,0,0.7355255978,6.1985317927,-12.0082579455
 C,0,0.4586733795,8.3182560922,-12.4297391713
 O,0,-0.5073191271,9.0614594376,-12.2535920419
 N,0,1.3284423641,8.4515068607,-13.4475256196
 H,0,2.1244289695,7.8328731207,-13.5826179109
 C,0,1.2118019958,9.4945310871,-14.4421131553
 H,0,1.2463396815,10.4873031839,-13.9749740539
 H,0,0.2530813508,9.4256322145,-14.9723679288
 C,0,2.3796058931,9.3217363573,-15.4216577174
 O,0,3.2021978756,8.4187708177,-15.2806811486
 N,0,2.4304932807,10.2200151869,-16.4282031094
 H,0,1.7433841268,10.9593747624,-16.5292359779
 C,0,3.4736723887,10.1857793191,-17.4304856217
 H,0,3.4786683903,9.2326381635,-17.9736233021
 H,0,4.4683662853,10.2907834565,-16.9798427847
 C,0,3.2383977418,11.3218383054,-18.4057763614
 O,0,2.3194782713,12.1088093254,-18.3287121436
 O,0,4.1766198593,11.3460588814,-19.3657150235
 H,0,3.9674018834,12.0957596272,-19.9551943521
 Recover connectivity data from disk.
                           ----------------------------
                           !    Current Parameters    !
                           ! (Angstroms and Degrees)  !
 --------------------------                            --------------------------
 ! Name  Definition              Value                                          !
 --------------------------------------------------------------------------------
 ! R1    R(1,2)                  1.0332                                         !
 ! R2    R(1,3)                  1.0228                                         !
 ! R3    R(1,4)                  1.066                                          !
 ! R4    R(1,5)                  1.4865                                         !
 ! R5    R(5,6)                  1.0917                                         !
 ! R6    R(5,7)                  1.0942                                         !
 ! R7    R(5,8)                  1.5266                                         !
 ! R8    R(8,9)                  1.2316                                         !
 ! R9    R(8,10)                 1.3531                                         !
 ! R10   R(10,11)                1.0163                                         !
 ! R11   R(10,12)                1.4649                                         !
 ! R12   R(12,13)                1.0919                                         !
 ! R13   R(12,14)                1.0903                                         !
 ! R14   R(12,15)                1.5342                                         !
 ! R15   R(15,16)                1.2317                                         !
 ! R16   R(15,17)                1.3589                                         !
 ! R17   R(17,18)                1.0154                                         !
 ! R18   R(17,19)                1.4613                                         !
 ! R19   R(19,20)                1.0939                                         !
 ! R20   R(19,21)                1.0899                                         !
 ! R21   R(19,22)                1.5402                                         !
 ! R22   R(22,23)                1.2286                                         !
 ! R23   R(22,24)                1.3638                                         !
 ! R24   R(24,25)                1.0197                                         !
 ! R25   R(24,26)                1.4386                                         !
 ! R26   R(26,27)                1.0962                                         !
 ! R27   R(26,28)                1.0952                                         !
 ! R28   R(26,29)                1.5421                                         !
 ! R29   R(29,30)                1.2331                                         !
 ! R30   R(29,31)                1.3584                                         !
 ! R31   R(31,32)                1.0125                                         !
 ! R32   R(31,33)                1.4578                                         !
 ! R33   R(33,34)                1.0938                                         !
 ! R34   R(33,35)                1.0947                                         !
 ! R35   R(33,36)                1.5343                                         !
 ! R36   R(36,37)                1.2216                                         !
 ! R37   R(36,38)                1.3635                                         !
 ! R38   R(38,39)                1.0135                                         !
 ! R39   R(38,40)                1.4486                                         !
 ! R40   R(40,41)                1.0998                                         !
 ! R41   R(40,42)                1.0964                                         !
 ! R42   R(40,43)                1.5244                                         !
 ! R43   R(43,44)                1.2374                                         !
 ! R44   R(43,45)                1.3511                                         !
 ! R45   R(45,46)                1.011                                          !
 ! R46   R(45,47)                1.4545                                         !
 ! R47   R(47,48)                1.093                                          !
 ! R48   R(47,49)                1.095                                          !
 ! R49   R(47,50)                1.5386                                         !
 ! R50   R(50,51)                1.2215                                         !
 ! R51   R(50,52)                1.365                                          !
 ! R52   R(52,53)                1.0102                                         !
 ! R53   R(52,54)                1.4517                                         !
 ! R54   R(54,55)                1.0926                                         !
 ! R55   R(54,56)                1.0939                                         !
 ! R56   R(54,57)                1.5374                                         !
 ! R57   R(57,58)                1.22                                           !
 ! R58   R(57,59)                1.3778                                         !
 ! R59   R(59,60)                1.0161                                         !
 ! R60   R(59,61)                1.4505                                         !
 ! R61   R(61,62)                1.0962                                         !
 ! R62   R(61,63)                1.0956                                         !
 ! R63   R(61,64)                1.5232                                         !
 ! R64   R(64,65)                1.2396                                         !
 ! R65   R(64,66)                1.3483                                         !
 ! R66   R(66,67)                1.0131                                         !
 ! R67   R(66,68)                1.4573                                         !
 ! R68   R(68,69)                1.0918                                         !
 ! R69   R(68,70)                1.0905                                         !
 ! R70   R(68,71)                1.5347                                         !
 ! R71   R(71,72)                1.2459                                         !
 ! R72   R(71,73)                1.3339                                         !
 ! R73   R(73,74)                1.0186                                         !
 ! R74   R(73,75)                1.4473                                         !
 ! R75   R(75,76)                1.0964                                         !
 ! R76   R(75,77)                1.0973                                         !
 ! R77   R(75,78)                1.5382                                         !
 ! R78   R(78,79)                1.2324                                         !
 ! R79   R(78,80)                1.3425                                         !
 ! R80   R(80,81)                1.0181                                         !
 ! R81   R(80,82)                1.447                                          !
 ! R82   R(82,83)                1.0974                                         !
 ! R83   R(82,84)                1.0974                                         !
 ! R84   R(82,85)                1.536                                          !
 ! R85   R(85,86)                1.2315                                         !
 ! R86   R(85,87)                1.3454                                         !
 ! R87   R(87,88)                1.0171                                         !
 ! R88   R(87,89)                1.4459                                         !
 ! R89   R(89,90)                1.0977                                         !
 ! R90   R(89,91)                1.0978                                         !
 ! R91   R(89,92)                1.534                                          !
 ! R92   R(92,93)                1.2296                                         !
 ! R93   R(92,94)                1.35                                           !
 ! R94   R(94,95)                1.0144                                         !
 ! R95   R(94,96)                1.4471                                         !
 ! R96   R(96,97)                1.097                                          !
 ! R97   R(96,98)                1.0971                                         !
 ! R98   R(96,99)                1.5156                                         !
 ! R99   R(99,100)               1.2123                                         !
 ! R100  R(99,101)               1.3425                                         !
 ! R101  R(101,102)              0.9764                                         !
 ! A1    A(2,1,3)              113.181                                          !
 ! A2    A(2,1,4)              103.7641                                         !
 ! A3    A(2,1,5)              109.0583                                         !
 ! A4    A(3,1,4)              107.3454                                         !
 ! A5    A(3,1,5)              111.1421                                         !
 ! A6    A(4,1,5)              112.1636                                         !
 ! A7    A(1,5,6)              107.9491                                         !
 ! A8    A(1,5,7)              108.8871                                         !
 ! A9    A(1,5,8)              108.4121                                         !
 ! A10   A(6,5,7)              108.8229                                         !
 ! A11   A(6,5,8)              111.7866                                         !
 ! A12   A(7,5,8)              110.8979                                         !
 ! A13   A(5,8,9)              120.0391                                         !
 ! A14   A(5,8,10)             115.2463                                         !
 ! A15   A(9,8,10)             124.7031                                         !
 ! A16   A(8,10,11)            116.7458                                         !
 ! A17   A(8,10,12)            120.3986                                         !
 ! A18   A(11,10,12)           116.5266                                         !
 ! A19   A(10,12,13)           107.9535                                         !
 ! A20   A(10,12,14)           109.4278                                         !
 ! A21   A(10,12,15)           109.2593                                         !
 ! A22   A(13,12,14)           109.7731                                         !
 ! A23   A(13,12,15)           112.1823                                         !
 ! A24   A(14,12,15)           108.2173                                         !
 ! A25   A(12,15,16)           121.3924                                         !
 ! A26   A(12,15,17)           114.9987                                         !
 ! A27   A(16,15,17)           123.4247                                         !
 ! A28   A(15,17,18)           118.203                                          !
 ! A29   A(15,17,19)           121.3577                                         !
 ! A30   A(18,17,19)           118.6473                                         !
 ! A31   A(17,19,20)           108.6149                                         !
 ! A32   A(17,19,21)           108.9078                                         !
 ! A33   A(17,19,22)           111.201                                          !
 ! A34   A(20,19,21)           109.3296                                         !
 ! A35   A(20,19,22)           110.6767                                         !
 ! A36   A(21,19,22)           108.077                                          !
 ! A37   A(19,22,23)           122.3664                                         !
 ! A38   A(19,22,24)           113.8777                                         !
 ! A39   A(23,22,24)           123.7532                                         !
 ! A40   A(22,24,25)           116.6625                                         !
 ! A41   A(22,24,26)           121.5544                                         !
 ! A42   A(25,24,26)           119.117                                          !
 ! A43   A(24,26,27)           109.8682                                         !
 ! A44   A(24,26,28)           107.5911                                         !
 ! A45   A(24,26,29)           113.1677                                         !
 ! A46   A(27,26,28)           107.7626                                         !
 ! A47   A(27,26,29)           110.1084                                         !
 ! A48   A(28,26,29)           108.1553                                         !
 ! A49   A(26,29,30)           122.3506                                         !
 ! A50   A(26,29,31)           114.3105                                         !
 ! A51   A(30,29,31)           123.2873                                         !
 ! A52   A(29,31,32)           118.0117                                         !
 ! A53   A(29,31,33)           123.7691                                         !
 ! A54   A(32,31,33)           117.0665                                         !
 ! A55   A(31,33,34)           107.1695                                         !
 ! A56   A(31,33,35)           111.4512                                         !
 ! A57   A(31,33,36)           114.141                                          !
 ! A58   A(34,33,35)           107.8185                                         !
 ! A59   A(34,33,36)           109.6013                                         !
 ! A60   A(35,33,36)           106.5068                                         !
 ! A61   A(33,36,37)           120.6848                                         !
 ! A62   A(33,36,38)           116.2715                                         !
 ! A63   A(37,36,38)           123.0437                                         !
 ! A64   A(36,38,39)           121.0458                                         !
 ! A65   A(36,38,40)           120.0093                                         !
 ! A66   A(39,38,40)           115.8488                                         !
 ! A67   A(38,40,41)           110.6365                                         !
 ! A68   A(38,40,42)           110.5967                                         !
 ! A69   A(38,40,43)           108.8706                                         !
 ! A70   A(41,40,42)           106.5347                                         !
 ! A71   A(41,40,43)           108.9816                                         !
 ! A72   A(42,40,43)           111.2005                                         !
 ! A73   A(40,43,44)           121.4526                                         !
 ! A74   A(40,43,45)           116.2249                                         !
 ! A75   A(44,43,45)           122.3222                                         !
 ! A76   A(43,45,46)           119.2577                                         !
 ! A77   A(43,45,47)           120.4498                                         !
 ! A78   A(46,45,47)           118.634                                          !
 ! A79   A(45,47,48)           108.0218                                         !
 ! A80   A(45,47,49)           109.3115                                         !
 ! A81   A(45,47,50)           110.6835                                         !
 ! A82   A(48,47,49)           108.1325                                         !
 ! A83   A(48,47,50)           108.7247                                         !
 ! A84   A(49,47,50)           111.8548                                         !
 ! A85   A(47,50,51)           121.3148                                         !
 ! A86   A(47,50,52)           115.3347                                         !
 ! A87   A(51,50,52)           123.3441                                         !
 ! A88   A(50,52,53)           119.2505                                         !
 ! A89   A(50,52,54)           121.4615                                         !
 ! A90   A(53,52,54)           118.79                                           !
 ! A91   A(52,54,55)           109.7264                                         !
 ! A92   A(52,54,56)           108.5617                                         !
 ! A93   A(52,54,57)           116.7093                                         !
 ! A94   A(55,54,56)           107.6321                                         !
 ! A95   A(55,54,57)           107.7485                                         !
 ! A96   A(56,54,57)           106.0804                                         !
 ! A97   A(54,57,58)           119.7367                                         !
 ! A98   A(54,57,59)           116.9361                                         !
 ! A99   A(58,57,59)           123.3267                                         !
 ! A100  A(57,59,60)           118.7352                                         !
 ! A101  A(57,59,61)           119.4909                                         !
 ! A102  A(60,59,61)           116.5116                                         !
 ! A103  A(59,61,62)           111.8129                                         !
 ! A104  A(59,61,63)           107.1779                                         !
 ! A105  A(59,61,64)           114.7447                                         !
 ! A106  A(62,61,63)           107.4756                                         !
 ! A107  A(62,61,64)           106.6689                                         !
 ! A108  A(63,61,64)           108.7187                                         !
 ! A109  A(61,64,65)           120.0534                                         !
 ! A110  A(61,64,66)           116.1246                                         !
 ! A111  A(65,64,66)           123.8221                                         !
 ! A112  A(64,66,67)           115.9138                                         !
 ! A113  A(64,66,68)           124.31                                           !
 ! A114  A(67,66,68)           119.5                                            !
 ! A115  A(66,68,69)           108.8993                                         !
 ! A116  A(66,68,70)           109.0538                                         !
 ! A117  A(66,68,71)           112.5647                                         !
 ! A118  A(69,68,70)           107.948                                          !
 ! A119  A(69,68,71)           110.0499                                         !
 ! A120  A(70,68,71)           108.2145                                         !
 ! A121  A(68,71,72)           122.382                                          !
 ! A122  A(68,71,73)           115.7389                                         !
 ! A123  A(72,71,73)           121.8117                                         !
 ! A124  A(71,73,74)           122.6512                                         !
 ! A125  A(71,73,75)           123.9933                                         !
 ! A126  A(74,73,75)           112.8543                                         !
 ! A127  A(73,75,76)           110.8319                                         !
 ! A128  A(73,75,77)           110.7136                                         !
 ! A129  A(73,75,78)           106.6107                                         !
 ! A130  A(76,75,77)           107.2645                                         !
 ! A131  A(76,75,78)           110.9034                                         !
 ! A132  A(77,75,78)           110.5595                                         !
 ! A133  A(75,78,79)           120.4997                                         !
 ! A134  A(75,78,80)           115.418                                          !
 ! A135  A(79,78,80)           124.082                                          !
 ! A136  A(78,80,81)           123.2403                                         !
 ! A137  A(78,80,82)           123.0285                                         !
 ! A138  A(81,80,82)           113.7281                                         !
 ! A139  A(80,82,83)           110.9444                                         !
 ! A140  A(80,82,84)           110.9038                                         !
 ! A141  A(80,82,85)           106.9854                                         !
 ! A142  A(83,82,84)           106.9717                                         !
 ! A143  A(83,82,85)           110.514                                          !
 ! A144  A(84,82,85)           110.5634                                         !
 ! A145  A(82,85,86)           120.8635                                         !
 ! A146  A(82,85,87)           115.3887                                         !
 ! A147  A(86,85,87)           123.7478                                         !
 ! A148  A(85,87,88)           123.1033                                         !
 ! A149  A(85,87,89)           122.6595                                         !
 ! A150  A(88,87,89)           114.2368                                         !
 ! A151  A(87,89,90)           110.9239                                         !
 ! A152  A(87,89,91)           110.9428                                         !
 ! A153  A(87,89,92)           107.2516                                         !
 ! A154  A(90,89,91)           106.8458                                         !
 ! A155  A(90,89,92)           110.4666                                         !
 ! A156  A(91,89,92)           110.4475                                         !
 ! A157  A(89,92,93)           121.2523                                         !
 ! A158  A(89,92,94)           115.4569                                         !
 ! A159  A(93,92,94)           123.2908                                         !
 ! A160  A(92,94,95)           122.2555                                         !
 ! A161  A(92,94,96)           121.8593                                         !
 ! A162  A(95,94,96)           115.8852                                         !
 ! A163  A(94,96,97)           111.5158                                         !
 ! A164  A(94,96,98)           111.5217                                         !
 ! A165  A(94,96,99)           108.4248                                         !
 ! A166  A(97,96,98)           106.4037                                         !
 ! A167  A(97,96,99)           109.4727                                         !
 ! A168  A(98,96,99)           109.4711                                         !
 ! A169  A(96,99,100)          124.2868                                         !
 ! A170  A(96,99,101)          111.4168                                         !
 ! A171  A(100,99,101)         124.2963                                         !
 ! A172  A(99,101,102)         107.2054                                         !
 ! D1    D(2,1,5,6)            -53.0468                                         !
 ! D2    D(2,1,5,7)             64.9406                                         !
 ! D3    D(2,1,5,8)           -174.3135                                         !
 ! D4    D(3,1,5,6)           -178.5055                                         !
 ! D5    D(3,1,5,7)            -60.5182                                         !
 ! D6    D(3,1,5,8)             60.2277                                         !
 ! D7    D(4,1,5,6)             61.3172                                         !
 ! D8    D(4,1,5,7)            179.3045                                         !
 ! D9    D(4,1,5,8)            -59.9495                                         !
 ! D10   D(1,5,8,9)            -14.3021                                         !
 ! D11   D(1,5,8,10)           166.8743                                         !
 ! D12   D(6,5,8,9)           -133.173                                          !
 ! D13   D(6,5,8,10)            48.0034                                         !
 ! D14   D(7,5,8,9)            105.1896                                         !
 ! D15   D(7,5,8,10)           -73.634                                          !
 ! D16   D(5,8,10,11)          -22.3948                                         !
 ! D17   D(5,8,10,12)         -173.4968                                         !
 ! D18   D(9,8,10,11)          158.8439                                         !
 ! D19   D(9,8,10,12)            7.7419                                         !
 ! D20   D(8,10,12,13)         -35.374                                          !
 ! D21   D(8,10,12,14)        -154.8044                                         !
 ! D22   D(8,10,12,15)          86.8764                                         !
 ! D23   D(11,10,12,13)        173.4634                                         !
 ! D24   D(11,10,12,14)         54.033                                          !
 ! D25   D(11,10,12,15)        -64.2862                                         !
 ! D26   D(10,12,15,16)        105.2482                                         !
 ! D27   D(10,12,15,17)        -69.9811                                         !
 ! D28   D(13,12,15,16)       -135.077                                          !
 ! D29   D(13,12,15,17)         49.6938                                         !
 ! D30   D(14,12,15,16)        -13.8248                                         !
 ! D31   D(14,12,15,17)        170.946                                          !
 ! D32   D(12,15,17,18)          1.4261                                         !
 ! D33   D(12,15,17,19)        165.972                                          !
 ! D34   D(16,15,17,18)       -173.6942                                         !
 ! D35   D(16,15,17,19)         -9.1482                                         !
 ! D36   D(15,17,19,20)         47.0377                                         !
 ! D37   D(15,17,19,21)        166.0219                                         !
 ! D38   D(15,17,19,22)        -74.9872                                         !
 ! D39   D(18,17,19,20)       -148.483                                          !
 ! D40   D(18,17,19,21)        -29.4988                                         !
 ! D41   D(18,17,19,22)         89.4921                                         !
 ! D42   D(17,19,22,23)       -105.9794                                         !
 ! D43   D(17,19,22,24)         73.4417                                         !
 ! D44   D(20,19,22,23)        133.2006                                         !
 ! D45   D(20,19,22,24)        -47.3783                                         !
 ! D46   D(21,19,22,23)         13.5078                                         !
 ! D47   D(21,19,22,24)       -167.071                                          !
 ! D48   D(19,22,24,25)         -7.7714                                         !
 ! D49   D(19,22,24,26)       -169.0927                                         !
 ! D50   D(23,22,24,25)        171.6406                                         !
 ! D51   D(23,22,24,26)         10.3192                                         !
 ! D52   D(22,24,26,27)       -144.5834                                         !
 ! D53   D(22,24,26,28)        -27.527                                          !
 ! D54   D(22,24,26,29)         91.8943                                         !
 ! D55   D(25,24,26,27)         54.5401                                         !
 ! D56   D(25,24,26,28)        171.5965                                         !
 ! D57   D(25,24,26,29)        -68.9822                                         !
 ! D58   D(24,26,29,30)        -21.6817                                         !
 ! D59   D(24,26,29,31)        160.8497                                         !
 ! D60   D(27,26,29,30)       -145.0719                                         !
 ! D61   D(27,26,29,31)         37.4596                                         !
 ! D62   D(28,26,29,30)         97.4148                                         !
 ! D63   D(28,26,29,31)        -80.0537                                         !
 ! D64   D(26,29,31,32)         -9.7869                                         !
 ! D65   D(26,29,31,33)       -177.1345                                         !
 ! D66   D(30,29,31,32)        172.7714                                         !
 ! D67   D(30,29,31,33)          5.4237                                         !
 ! D68   D(29,31,33,34)        -19.0991                                         !
 ! D69   D(29,31,33,35)         98.6444                                         !
 ! D70   D(29,31,33,36)       -140.6493                                         !
 ! D71   D(32,31,33,34)        173.4431                                         !
 ! D72   D(32,31,33,35)        -68.8134                                         !
 ! D73   D(32,31,33,36)         51.8929                                         !
 ! D74   D(31,33,36,37)       -146.9587                                         !
 ! D75   D(31,33,36,38)         33.0516                                         !
 ! D76   D(34,33,36,37)         92.8431                                         !
 ! D77   D(34,33,36,38)        -87.1466                                         !
 ! D78   D(35,33,36,37)        -23.5367                                         !
 ! D79   D(35,33,36,38)        156.4736                                         !
 ! D80   D(33,36,38,39)         15.162                                          !
 ! D81   D(33,36,38,40)        174.4455                                         !
 ! D82   D(37,36,38,39)       -164.8274                                         !
 ! D83   D(37,36,38,40)         -5.544                                          !
 ! D84   D(36,38,40,41)        -47.7712                                         !
 ! D85   D(36,38,40,42)         70.0301                                         !
 ! D86   D(36,38,40,43)       -167.509                                          !
 ! D87   D(39,38,40,41)        112.5488                                         !
 ! D88   D(39,38,40,42)       -129.65                                           !
 ! D89   D(39,38,40,43)         -7.189                                          !
 ! D90   D(38,40,43,44)         22.9036                                         !
 ! D91   D(38,40,43,45)       -156.9226                                         !
 ! D92   D(41,40,43,44)        -97.8565                                         !
 ! D93   D(41,40,43,45)         82.3173                                         !
 ! D94   D(42,40,43,44)        144.9995                                         !
 ! D95   D(42,40,43,45)        -34.8266                                         !
 ! D96   D(40,43,45,46)         -8.7525                                         !
 ! D97   D(40,43,45,47)       -173.878                                          !
 ! D98   D(44,43,45,46)        171.4231                                         !
 ! D99   D(44,43,45,47)          6.2976                                         !
 ! D100  D(43,45,47,48)        179.3304                                         !
 ! D101  D(43,45,47,49)        -63.2316                                         !
 ! D102  D(43,45,47,50)         60.405                                          !
 ! D103  D(46,45,47,48)         14.1136                                         !
 ! D104  D(46,45,47,49)        131.5516                                         !
 ! D105  D(46,45,47,50)       -104.8118                                         !
 ! D106  D(45,47,50,51)         44.4349                                         !
 ! D107  D(45,47,50,52)       -134.6758                                         !
 ! D108  D(48,47,50,51)        -74.0643                                         !
 ! D109  D(48,47,50,52)        106.8251                                         !
 ! D110  D(49,47,50,51)        166.5948                                         !
 ! D111  D(49,47,50,52)        -12.5159                                         !
 ! D112  D(47,50,52,53)          5.6731                                         !
 ! D113  D(47,50,52,54)        177.4781                                         !
 ! D114  D(51,50,52,53)       -173.4174                                         !
 ! D115  D(51,50,52,54)         -1.6123                                         !
 ! D116  D(50,52,54,55)        156.392                                          !
 ! D117  D(50,52,54,56)         39.0145                                         !
 ! D118  D(50,52,54,57)        -80.7239                                         !
 ! D119  D(53,52,54,55)        -31.7663                                         !
 ! D120  D(53,52,54,56)       -149.1438                                         !
 ! D121  D(53,52,54,57)         91.1179                                         !
 ! D122  D(52,54,57,58)       -173.7574                                         !
 ! D123  D(52,54,57,59)          6.4662                                         !
 ! D124  D(55,54,57,58)        -49.8554                                         !
 ! D125  D(55,54,57,59)        130.3682                                         !
 ! D126  D(56,54,57,58)         65.185                                          !
 ! D127  D(56,54,57,59)       -114.5914                                         !
 ! D128  D(54,57,59,60)         10.5283                                         !
 ! D129  D(54,57,59,61)        164.0283                                         !
 ! D130  D(58,57,59,60)       -169.2394                                         !
 ! D131  D(58,57,59,61)        -15.7394                                         !
 ! D132  D(57,59,61,62)       -103.8023                                         !
 ! D133  D(57,59,61,63)         13.7323                                         !
 ! D134  D(57,59,61,64)        134.5523                                         !
 ! D135  D(60,59,61,62)         50.2707                                         !
 ! D136  D(60,59,61,63)        167.8053                                         !
 ! D137  D(60,59,61,64)        -71.3748                                         !
 ! D138  D(59,61,64,65)        161.902                                          !
 ! D139  D(59,61,64,66)        -18.1073                                         !
 ! D140  D(62,61,64,65)         37.4933                                         !
 ! D141  D(62,61,64,66)       -142.516                                          !
 ! D142  D(63,61,64,65)        -78.129                                          !
 ! D143  D(63,61,64,66)        101.8617                                         !
 ! D144  D(61,64,66,67)          1.8105                                         !
 ! D145  D(61,64,66,68)        175.722                                          !
 ! D146  D(65,64,66,67)       -178.1992                                         !
 ! D147  D(65,64,66,68)         -4.2877                                         !
 ! D148  D(64,66,68,69)       -145.0801                                         !
 ! D149  D(64,66,68,70)        -27.5098                                         !
 ! D150  D(64,66,68,71)         92.5978                                         !
 ! D151  D(67,66,68,69)         28.627                                          !
 ! D152  D(67,66,68,70)        146.1974                                         !
 ! D153  D(67,66,68,71)        -93.6951                                         !
 ! D154  D(66,68,71,72)        -88.5735                                         !
 ! D155  D(66,68,71,73)         88.4899                                         !
 ! D156  D(69,68,71,72)        149.7557                                         !
 ! D157  D(69,68,71,73)        -33.181                                          !
 ! D158  D(70,68,71,72)         32.0175                                         !
 ! D159  D(70,68,71,73)       -150.9192                                         !
 ! D160  D(68,71,73,74)          8.7346                                         !
 ! D161  D(68,71,73,75)       -179.9725                                         !
 ! D162  D(72,71,73,74)       -174.1838                                         !
 ! D163  D(72,71,73,75)         -2.8909                                         !
 ! D164  D(71,73,75,76)         61.5415                                         !
 ! D165  D(71,73,75,77)        -57.3642                                         !
 ! D166  D(71,73,75,78)       -177.6692                                         !
 ! D167  D(74,73,75,76)       -126.409                                          !
 ! D168  D(74,73,75,77)        114.6853                                         !
 ! D169  D(74,73,75,78)         -5.6198                                         !
 ! D170  D(73,75,78,79)          2.2516                                         !
 ! D171  D(73,75,78,80)       -177.9209                                         !
 ! D172  D(76,75,78,79)        122.9951                                         !
 ! D173  D(76,75,78,80)        -57.1774                                         !
 ! D174  D(77,75,78,79)       -118.1526                                         !
 ! D175  D(77,75,78,80)         61.6749                                         !
 ! D176  D(75,78,80,81)         -0.015                                          !
 ! D177  D(75,78,80,82)       -179.345                                          !
 ! D178  D(79,78,80,81)        179.8056                                         !
 ! D179  D(79,78,80,82)          0.4755                                         !
 ! D180  D(78,80,82,83)        -60.284                                          !
 ! D181  D(78,80,82,84)         58.451                                          !
 ! D182  D(78,80,82,85)        179.1019                                         !
 ! D183  D(81,80,82,83)        120.3281                                         !
 ! D184  D(81,80,82,84)       -120.9369                                         !
 ! D185  D(81,80,82,85)         -0.2861                                         !
 ! D186  D(80,82,85,86)         -0.1523                                         !
 ! D187  D(80,82,85,87)        179.8419                                         !
 ! D188  D(83,82,85,86)       -121.0402                                         !
 ! D189  D(83,82,85,87)         58.954                                          !
 ! D190  D(84,82,85,86)        120.715                                          !
 ! D191  D(84,82,85,87)        -59.2907                                         !
 ! D192  D(82,85,87,88)         -0.1222                                         !
 ! D193  D(82,85,87,89)       -179.8653                                         !
 ! D194  D(86,85,87,88)        179.8719                                         !
 ! D195  D(86,85,87,89)          0.1288                                         !
 ! D196  D(85,87,89,90)         59.0237                                         !
 ! D197  D(85,87,89,91)        -59.5658                                         !
 ! D198  D(85,87,89,92)        179.7351                                         !
 ! D199  D(88,87,89,90)       -120.7403                                         !
 ! D200  D(88,87,89,91)        120.6702                                         !
 ! D201  D(88,87,89,92)         -0.0289                                         !
 ! D202  D(87,89,92,93)          0.0327                                         !
 ! D203  D(87,89,92,94)       -179.9785                                         !
 ! D204  D(90,89,92,93)        121.0332                                         !
 ! D205  D(90,89,92,94)        -58.9779                                         !
 ! D206  D(91,89,92,93)       -120.9796                                         !
 ! D207  D(91,89,92,94)         59.0092                                         !
 ! D208  D(89,92,94,95)          0.0448                                         !
 ! D209  D(89,92,94,96)        179.9856                                         !
 ! D210  D(93,92,94,95)       -179.9665                                         !
 ! D211  D(93,92,94,96)         -0.0257                                         !
 ! D212  D(92,94,96,97)         59.3866                                         !
 ! D213  D(92,94,96,98)        -59.4145                                         !
 ! D214  D(92,94,96,99)        179.9852                                         !
 ! D215  D(95,94,96,97)       -120.669                                          !
 ! D216  D(95,94,96,98)        120.5299                                         !
 ! D217  D(95,94,96,99)         -0.0704                                         !
 ! D218  D(94,96,99,100)        -0.0016                                         !
 ! D219  D(94,96,99,101)       179.9981                                         !
 ! D220  D(97,96,99,100)       121.8566                                         !
 ! D221  D(97,96,99,101)       -58.1437                                         !
 ! D222  D(98,96,99,100)      -121.8661                                         !
 ! D223  D(98,96,99,101)        58.1336                                         !
 ! D224  D(96,99,101,102)     -179.9859                                         !
 ! D225  D(100,99,101,102)       0.0138                                         !
 --------------------------------------------------------------------------------
 Symmetry turned off by external request.
 Stoichiometry    C28H45N14O15(1+)
 Framework group  C1[X(C28H45N14O15)]
 Deg. of freedom   300
 Full point group                 C1      NOp   1
                          Input orientation:                          
 ---------------------------------------------------------------------
 Center     Atomic      Atomic             Coordinates (Angstroms)
 Number     Number       Type             X           Y           Z
 ---------------------------------------------------------------------
      1          7           0       -4.868751    6.203268   -4.174890
      2          1           0       -4.139883    6.240032   -3.443578
      3          1           0       -5.375467    7.085145   -4.283000
      4          1           0       -4.318569    6.040637   -5.073382
      5          6           0       -5.799476    5.083190   -3.876706
      6          1           0       -5.204587    4.177292   -3.745586
      7          1           0       -6.325103    5.298828   -2.941514
      8          6           0       -6.783350    4.952011   -5.036616
      9          8           0       -6.884277    5.857850   -5.864877
     10          7           0       -7.513368    3.812748   -5.048142
     11          1           0       -7.131439    3.019663   -4.540256
     12          6           0       -8.387335    3.503807   -6.182504
     13          1           0       -8.808082    4.442532   -6.548668
     14          1           0       -9.189989    2.843646   -5.852669
     15          6           0       -7.577387    2.772429   -7.260853
     16          8           0       -7.701801    1.561057   -7.445477
     17          7           0       -6.659210    3.537730   -7.907298
     18          1           0       -6.558917    4.507983   -7.625005
     19          6           0       -5.613863    2.936621   -8.732642
     20          1           0       -6.071541    2.186636   -9.384309
     21          1           0       -5.155551    3.714086   -9.343703
     22          6           0       -4.513093    2.301825   -7.862276
     23          8           0       -3.405153    2.814915   -7.725388
     24          7           0       -4.889245    1.138409   -7.258177
     25          1           0       -5.871733    0.877737   -7.338960
     26          6           0       -4.085067    0.528056   -6.233354
     27          1           0       -4.142860   -0.563596   -6.315177
     28          1           0       -3.044868    0.821755   -6.410047
     29          6           0       -4.475191    0.974399   -4.809763
     30          8           0       -5.085250    2.023518   -4.591102
     31          7           0       -4.043089    0.144167   -3.825271
     32          1           0       -3.649748   -0.749009   -4.094993
     33          6           0       -4.346695    0.335781   -2.412350
     34          1           0       -4.646502    1.380010   -2.285228
     35          1           0       -5.183370   -0.294131   -2.093641
     36          6           0       -3.177959    0.017519   -1.470604
     37          8           0       -3.381562   -0.446720   -0.359186
     38          7           0       -1.928672    0.282336   -1.948274
     39          1           0       -1.794432    0.868095   -2.764380
     40          6           0       -0.775209    0.126826   -1.085801
     41          1           0       -0.949069    0.612808   -0.114588
     42          1           0       -0.590862   -0.933361   -0.875661
     43          6           0        0.431757    0.774137   -1.755148
     44          8           0        0.298602    1.656214   -2.612717
     45          7           0        1.644232    0.327127   -1.360824
     46          1           0        1.706799   -0.297530   -0.568404
     47          6           0        2.858174    0.969787   -1.839325
     48          1           0        3.712135    0.457944   -1.388218
     49          1           0        2.925774    0.852622   -2.925988
     50          6           0        2.891285    2.449642   -1.419665
     51          8           0        2.587482    2.795635   -0.288315
     52          7           0        3.260909    3.326249   -2.398569
     53          1           0        3.402750    2.985127   -3.338821
     54          6           0        3.284797    4.758574   -2.163445
     55          1           0        3.972432    5.236127   -2.865511
     56          1           0        3.663964    4.939370   -1.153435
     57          6           0        1.938518    5.495792   -2.251209
     58          8           0        1.909266    6.713146   -2.177006
     59          7           0        0.810953    4.719636   -2.408180
     60          1           0        0.891493    3.712922   -2.296719
     61          6           0       -0.494751    5.297045   -2.151844
     62          1           0       -0.904523    4.966756   -1.190287
     63          1           0       -0.363185    6.383373   -2.097699
     64          6           0       -1.548435    4.984204   -3.206433
     65          8           0       -2.751374    5.126681   -2.943448
     66          7           0       -1.086357    4.557859   -4.399155
     67          1           0       -0.081032    4.457723   -4.474369
     68          6           0       -1.935122    4.124763   -5.501718
     69          1           0       -1.436120    3.312768   -6.034297
     70          1           0       -2.871520    3.737086   -5.099120
     71          6           0       -2.266498    5.265737   -6.473170
     72          8           0       -3.251363    6.012177   -6.314661
     73          7           0       -1.398129    5.449318   -7.468904
     74          1           0       -0.638744    4.798676   -7.662819
     75          6           0       -1.535290    6.471767   -8.483961
     76          1           0       -1.518706    7.471820   -8.034802
     77          1           0       -2.491213    6.368031   -9.012646
     78          6           0       -0.357581    6.287131   -9.456020
     79          8           0        0.445541    5.365786   -9.297784
     80          7           0       -0.288644    7.182114  -10.454320
     81          1           0       -0.961205    7.936983  -10.574551
     82          6           0        0.742752    7.154123  -11.468824
     83          1           0        1.738178    7.260685  -11.019279
     84          1           0        0.735526    6.198532  -12.008258
     85          6           0        0.458673    8.318256  -12.429739
     86          8           0       -0.507319    9.061459  -12.253592
     87          7           0        1.328442    8.451507  -13.447526
     88          1           0        2.124429    7.832873  -13.582618
     89          6           0        1.211802    9.494531  -14.442113
     90          1           0        1.246340   10.487303  -13.974974
     91          1           0        0.253081    9.425632  -14.972368
     92          6           0        2.379606    9.321736  -15.421658
     93          8           0        3.202198    8.418771  -15.280681
     94          7           0        2.430493   10.220015  -16.428203
     95          1           0        1.743384   10.959375  -16.529236
     96          6           0        3.473672   10.185779  -17.430486
     97          1           0        3.478668    9.232638  -17.973623
     98          1           0        4.468366   10.290783  -16.979843
     99          6           0        3.238398   11.321838  -18.405776
    100          8           0        2.319478   12.108809  -18.328712
    101          8           0        4.176620   11.346059  -19.365715
    102          1           0        3.967402   12.095760  -19.955194
 ---------------------------------------------------------------------
 Rotational constants (GHZ):           0.0477961           0.0155666           0.0129185
 Standard basis: 6-31G(d) (6D, 7F)
   945 basis functions,  1776 primitive gaussians,   945 cartesian basis functions
   215 alpha electrons      215 beta electrons
       nuclear repulsion energy      8109.7836261474 Hartrees.
 NAtoms=  102 NActive=  102 NUniq=  102 SFac= 1.00D+00 NAtFMM=   60 NAOKFM=T Big=T
 Integral buffers will be    131072 words long.
 Raffenetti 2 integral format.
 Two-electron integral symmetry is turned off.
 One-electron integrals computed using PRISM.
 NBasis=   945 RedAO= T EigKep=  1.92D-03  NBF=   945
 NBsUse=   945 1.00D-06 EigRej= -1.00D+00 NBFU=   945
 Initial guess from the checkpoint file:  "conf-145.chk"
 B after Tr=     0.000000    0.000000    0.000000
         Rot=    1.000000    0.000000    0.000000    0.000000 Ang=   0.00 deg.
 Requested convergence on RMS density matrix=1.00D-08 within 128 cycles.
 Requested convergence on MAX density matrix=1.00D-06.
 Requested convergence on             energy=1.00D-06.
 No special actions if energy rises.
 SCF Done:  E(RB3LYP) =  -2989.02030086     A.U. after    1 cycles
            NFock=  1  Conv=0.74D-08     -V/T= 2.0092
 Hyperfine terms turned off by default for NAtoms > 100.

 **********************************************************************

            Population analysis using the SCF Density.

 **********************************************************************

 Alpha  occ. eigenvalues --  -19.26793 -19.23368 -19.23270 -19.23012 -19.22430
 Alpha  occ. eigenvalues --  -19.22294 -19.21445 -19.21226 -19.20840 -19.20318
 Alpha  occ. eigenvalues --  -19.20012 -19.19944 -19.19524 -19.18986 -19.18893
 Alpha  occ. eigenvalues --  -14.52934 -14.47649 -14.47189 -14.47083 -14.46891
 Alpha  occ. eigenvalues --  -14.45727 -14.45570 -14.45533 -14.45052 -14.44639
 Alpha  occ. eigenvalues --  -14.44375 -14.43761 -14.43227 -14.42975 -10.40547
 Alpha  occ. eigenvalues --  -10.40203 -10.39945 -10.39625 -10.39407 -10.39093
 Alpha  occ. eigenvalues --  -10.38256 -10.37929 -10.37826 -10.37638 -10.37227
 Alpha  occ. eigenvalues --  -10.37048 -10.36265 -10.36183 -10.35424 -10.33145
 Alpha  occ. eigenvalues --  -10.33049 -10.32876 -10.32605 -10.32516 -10.32317
 Alpha  occ. eigenvalues --  -10.31743 -10.31715 -10.31469 -10.31318 -10.30509
 Alpha  occ. eigenvalues --  -10.30487 -10.30087  -1.17925  -1.15454  -1.14825
 Alpha  occ. eigenvalues --   -1.14712  -1.14154  -1.13441  -1.13139  -1.12590
 Alpha  occ. eigenvalues --   -1.12176  -1.12095  -1.11930  -1.11528  -1.11205
 Alpha  occ. eigenvalues --   -1.10481  -1.09074  -1.08184  -1.03658  -1.03405
 Alpha  occ. eigenvalues --   -1.03292  -1.03084  -1.01940  -1.01739  -1.01701
 Alpha  occ. eigenvalues --   -1.01057  -1.00920  -1.00267  -0.99903  -0.99781
 Alpha  occ. eigenvalues --   -0.99301  -0.87193  -0.86676  -0.86230  -0.85543
 Alpha  occ. eigenvalues --   -0.84380  -0.83639  -0.83118  -0.82108  -0.80962
 Alpha  occ. eigenvalues --   -0.80243  -0.79107  -0.78208  -0.77477  -0.76430
 Alpha  occ. eigenvalues --   -0.70490  -0.70332  -0.69835  -0.69594  -0.69195
 Alpha  occ. eigenvalues --   -0.68966  -0.68483  -0.68346  -0.68024  -0.67852
 Alpha  occ. eigenvalues --   -0.67287  -0.66762  -0.66702  -0.66466  -0.66173
 Alpha  occ. eigenvalues --   -0.65415  -0.65050  -0.64235  -0.63413  -0.63173
 Alpha  occ. eigenvalues --   -0.62774  -0.61563  -0.61113  -0.60571  -0.59870
 Alpha  occ. eigenvalues --   -0.59691  -0.59028  -0.58867  -0.58475  -0.57739
 Alpha  occ. eigenvalues --   -0.57549  -0.56994  -0.56903  -0.56649  -0.56556
 Alpha  occ. eigenvalues --   -0.56141  -0.56074  -0.55949  -0.55904  -0.55758
 Alpha  occ. eigenvalues --   -0.55143  -0.54862  -0.54680  -0.54544  -0.54297
 Alpha  occ. eigenvalues --   -0.54138  -0.53739  -0.53349  -0.53107  -0.52926
 Alpha  occ. eigenvalues --   -0.52753  -0.52309  -0.52228  -0.52144  -0.51638
 Alpha  occ. eigenvalues --   -0.51512  -0.51361  -0.50964  -0.50850  -0.50681
 Alpha  occ. eigenvalues --   -0.50307  -0.50002  -0.49897  -0.49742  -0.49634
 Alpha  occ. eigenvalues --   -0.49114  -0.48831  -0.48577  -0.48421  -0.48300
 Alpha  occ. eigenvalues --   -0.47813  -0.47704  -0.47616  -0.47574  -0.46958
 Alpha  occ. eigenvalues --   -0.46737  -0.46379  -0.46281  -0.45965  -0.45848
 Alpha  occ. eigenvalues --   -0.45682  -0.45604  -0.45331  -0.44514  -0.43960
 Alpha  occ. eigenvalues --   -0.43656  -0.42155  -0.39043  -0.38845  -0.38481
 Alpha  occ. eigenvalues --   -0.37700  -0.37572  -0.37485  -0.37310  -0.37107
 Alpha  occ. eigenvalues --   -0.36979  -0.36866  -0.36465  -0.35802  -0.35533
 Alpha  occ. eigenvalues --   -0.35087  -0.34782  -0.34633  -0.34514  -0.34254
 Alpha  occ. eigenvalues --   -0.34140  -0.33897  -0.33733  -0.33556  -0.33427
 Alpha  occ. eigenvalues --   -0.33078  -0.33037  -0.32477  -0.32198  -0.31828
 Alpha virt. eigenvalues --   -0.10228  -0.09191  -0.09096  -0.08814  -0.07978
 Alpha virt. eigenvalues --   -0.07252  -0.07069  -0.06616  -0.06144  -0.06086
 Alpha virt. eigenvalues --   -0.05767  -0.05515  -0.04711  -0.03822  -0.03736
 Alpha virt. eigenvalues --   -0.02305  -0.02056  -0.01109  -0.00590  -0.00263
 Alpha virt. eigenvalues --    0.01259   0.01318   0.01498   0.02090   0.02475
 Alpha virt. eigenvalues --    0.02654   0.03199   0.03339   0.03558   0.03737
 Alpha virt. eigenvalues --    0.04010   0.04239   0.04506   0.04734   0.04892
 Alpha virt. eigenvalues --    0.05266   0.05456   0.05684   0.05851   0.06233
 Alpha virt. eigenvalues --    0.06436   0.06483   0.06676   0.06964   0.07119
 Alpha virt. eigenvalues --    0.07442   0.07724   0.07912   0.08103   0.08292
 Alpha virt. eigenvalues --    0.08802   0.09236   0.09383   0.09699   0.10074
 Alpha virt. eigenvalues --    0.10307   0.10343   0.10446   0.10859   0.11097
 Alpha virt. eigenvalues --    0.11215   0.11418   0.11893   0.12194   0.12621
 Alpha virt. eigenvalues --    0.12678   0.12826   0.13365   0.13467   0.13696
 Alpha virt. eigenvalues --    0.13930   0.14046   0.14070   0.14588   0.14736
 Alpha virt. eigenvalues --    0.14898   0.15991   0.16249   0.16709   0.16819
 Alpha virt. eigenvalues --    0.17613   0.17790   0.18577   0.18849   0.19208
 Alpha virt. eigenvalues --    0.19416   0.20812   0.21547   0.21848   0.22825
 Alpha virt. eigenvalues --    0.23606   0.23771   0.24523   0.24648   0.25280
 Alpha virt. eigenvalues --    0.25489   0.26241   0.26878   0.27079   0.27426
 Alpha virt. eigenvalues --    0.27983   0.28558   0.29027   0.29350   0.29832
 Alpha virt. eigenvalues --    0.30003   0.30389   0.30759   0.31160   0.31700
 Alpha virt. eigenvalues --    0.32445   0.33634   0.33737   0.34447   0.36758
 Alpha virt. eigenvalues --    0.38882   0.39706   0.40156   0.41529   0.41738
 Alpha virt. eigenvalues --    0.42230   0.42471   0.42709   0.43087   0.43419
 Alpha virt. eigenvalues --    0.43550   0.43769   0.44061   0.44324   0.44487
 Alpha virt. eigenvalues --    0.44854   0.44975   0.45264   0.45579   0.45820
 Alpha virt. eigenvalues --    0.45925   0.46083   0.46271   0.46527   0.46929
 Alpha virt. eigenvalues --    0.47016   0.47306   0.47456   0.47736   0.47979
 Alpha virt. eigenvalues --    0.48076   0.48323   0.48774   0.48850   0.48950
 Alpha virt. eigenvalues --    0.49566   0.49742   0.50366   0.50593   0.50825
 Alpha virt. eigenvalues --    0.51443   0.51950   0.52280   0.52368   0.52544
 Alpha virt. eigenvalues --    0.52612   0.53003   0.53639   0.54197   0.54429
 Alpha virt. eigenvalues --    0.55039   0.55200   0.55591   0.56150   0.56610
 Alpha virt. eigenvalues --    0.56734   0.57065   0.57411   0.57705   0.58000
 Alpha virt. eigenvalues --    0.58283   0.58721   0.58858   0.59147   0.59756
 Alpha virt. eigenvalues --    0.59819   0.60182   0.60222   0.60341   0.60799
 Alpha virt. eigenvalues --    0.61174   0.61483   0.61819   0.62037   0.62498
 Alpha virt. eigenvalues --    0.62699   0.63069   0.63401   0.64084   0.64386
 Alpha virt. eigenvalues --    0.64576   0.65794   0.66318   0.66353   0.66744
 Alpha virt. eigenvalues --    0.66920   0.67606   0.67843   0.68994   0.69521
 Alpha virt. eigenvalues --    0.69662   0.69841   0.70239   0.70511   0.71008
 Alpha virt. eigenvalues --    0.71342   0.71537   0.72089   0.72288   0.72888
 Alpha virt. eigenvalues --    0.73222   0.73406   0.73710   0.73854   0.74098
 Alpha virt. eigenvalues --    0.74423   0.74540   0.74690   0.74865   0.75183
 Alpha virt. eigenvalues --    0.75267   0.75599   0.75724   0.75918   0.76024
 Alpha virt. eigenvalues --    0.76063   0.76311   0.76457   0.76673   0.77040
 Alpha virt. eigenvalues --    0.77149   0.77219   0.77669   0.77917   0.78207
 Alpha virt. eigenvalues --    0.78478   0.78708   0.78814   0.79070   0.79132
 Alpha virt. eigenvalues --    0.79366   0.79709   0.79819   0.80091   0.80266
 Alpha virt. eigenvalues --    0.80517   0.80651   0.81237   0.81462   0.81823
 Alpha virt. eigenvalues --    0.82059   0.82376   0.82628   0.82827   0.83142
 Alpha virt. eigenvalues --    0.83460   0.83844   0.84259   0.84398   0.84782
 Alpha virt. eigenvalues --    0.84956   0.85126   0.85460   0.85908   0.86188
 Alpha virt. eigenvalues --    0.86640   0.86988   0.87134   0.87176   0.87484
 Alpha virt. eigenvalues --    0.87779   0.88050   0.88682   0.88981   0.89246
 Alpha virt. eigenvalues --    0.89627   0.90467   0.91012   0.91416   0.91704
 Alpha virt. eigenvalues --    0.92636   0.93429   0.93544   0.94473   0.94620
 Alpha virt. eigenvalues --    0.95253   0.95648   0.96064   0.96248   0.96683
 Alpha virt. eigenvalues --    0.96997   0.97820   0.98420   0.98984   0.99197
 Alpha virt. eigenvalues --    0.99638   1.00371   1.00730   1.00962   1.01613
 Alpha virt. eigenvalues --    1.01692   1.01744   1.02745   1.03282   1.04478
 Alpha virt. eigenvalues --    1.04724   1.05110   1.05695   1.06301   1.06922
 Alpha virt. eigenvalues --    1.07272   1.07650   1.08135   1.08451   1.09439
 Alpha virt. eigenvalues --    1.09748   1.10545   1.10826   1.11182   1.11587
 Alpha virt. eigenvalues --    1.12080   1.12872   1.13237   1.14052   1.14586
 Alpha virt. eigenvalues --    1.14829   1.15897   1.16268   1.16711   1.17208
 Alpha virt. eigenvalues --    1.17624   1.18132   1.19368   1.19570   1.19906
 Alpha virt. eigenvalues --    1.21045   1.21880   1.22065   1.22255   1.23082
 Alpha virt. eigenvalues --    1.23389   1.23478   1.23747   1.24314   1.24794
 Alpha virt. eigenvalues --    1.24948   1.25203   1.25832   1.26308   1.26446
 Alpha virt. eigenvalues --    1.27181   1.27754   1.28378   1.28513   1.29466
 Alpha virt. eigenvalues --    1.30045   1.30207   1.31204   1.31761   1.32250
 Alpha virt. eigenvalues --    1.32834   1.32876   1.33544   1.34389   1.34563
 Alpha virt. eigenvalues --    1.35733   1.35987   1.36114   1.36901   1.37056
 Alpha virt. eigenvalues --    1.37733   1.37923   1.38200   1.38303   1.38793
 Alpha virt. eigenvalues --    1.39447   1.39893   1.40875   1.41355   1.42239
 Alpha virt. eigenvalues --    1.43421   1.44101   1.44364   1.44700   1.46196
 Alpha virt. eigenvalues --    1.47561   1.48246   1.48440   1.48891   1.50037
 Alpha virt. eigenvalues --    1.50520   1.51406   1.52158   1.53309   1.54143
 Alpha virt. eigenvalues --    1.54758   1.55789   1.57038   1.57583   1.58989
 Alpha virt. eigenvalues --    1.59509   1.60459   1.61047   1.61387   1.62185
 Alpha virt. eigenvalues --    1.62385   1.62565   1.62573   1.63109   1.63254
 Alpha virt. eigenvalues --    1.64064   1.64362   1.64980   1.65953   1.66493
 Alpha virt. eigenvalues --    1.66718   1.67018   1.67139   1.67330   1.67555
 Alpha virt. eigenvalues --    1.67783   1.68057   1.68219   1.68272   1.68689
 Alpha virt. eigenvalues --    1.68992   1.69349   1.69466   1.69726   1.70064
 Alpha virt. eigenvalues --    1.70120   1.70549   1.71049   1.71240   1.71475
 Alpha virt. eigenvalues --    1.71795   1.72252   1.72599   1.73062   1.73153
 Alpha virt. eigenvalues --    1.73647   1.73711   1.73951   1.74636   1.74728
 Alpha virt. eigenvalues --    1.74870   1.75246   1.75803   1.76252   1.76552
 Alpha virt. eigenvalues --    1.77143   1.77496   1.77586   1.78058   1.78501
 Alpha virt. eigenvalues --    1.78621   1.79115   1.79323   1.79409   1.79789
 Alpha virt. eigenvalues --    1.79863   1.80510   1.80958   1.81388   1.81655
 Alpha virt. eigenvalues --    1.81763   1.81842   1.82642   1.82794   1.83080
 Alpha virt. eigenvalues --    1.83088   1.83129   1.83452   1.84154   1.84449
 Alpha virt. eigenvalues --    1.84609   1.84699   1.85006   1.85676   1.86069
 Alpha virt. eigenvalues --    1.86262   1.86512   1.86951   1.87430   1.87914
 Alpha virt. eigenvalues --    1.88183   1.88862   1.89585   1.89860   1.91124
 Alpha virt. eigenvalues --    1.91418   1.91736   1.92465   1.92732   1.92981
 Alpha virt. eigenvalues --    1.93145   1.93569   1.94355   1.95216   1.95378
 Alpha virt. eigenvalues --    1.97386   1.97536   1.97621   1.97979   1.98038
 Alpha virt. eigenvalues --    1.98313   1.98884   1.99310   1.99764   1.99836
 Alpha virt. eigenvalues --    2.00010   2.00602   2.00699   2.01015   2.01193
 Alpha virt. eigenvalues --    2.01514   2.01608   2.02294   2.02479   2.02884
 Alpha virt. eigenvalues --    2.03233   2.03383   2.03544   2.05253   2.05910
 Alpha virt. eigenvalues --    2.07325   2.08554   2.09579   2.10766   2.11998
 Alpha virt. eigenvalues --    2.12421   2.13200   2.13483   2.14558   2.16193
 Alpha virt. eigenvalues --    2.16302   2.17142   2.17664   2.18144   2.18242
 Alpha virt. eigenvalues --    2.20830   2.20931   2.21763   2.22694   2.22878
 Alpha virt. eigenvalues --    2.23408   2.23650   2.23968   2.24307   2.24900
 Alpha virt. eigenvalues --    2.25764   2.26567   2.26852   2.27198   2.27553
 Alpha virt. eigenvalues --    2.27895   2.28346   2.28793   2.29138   2.29369
 Alpha virt. eigenvalues --    2.29904   2.30930   2.31566   2.31802   2.32190
 Alpha virt. eigenvalues --    2.32202   2.32791   2.32940   2.33368   2.33601
 Alpha virt. eigenvalues --    2.34526   2.34765   2.35316   2.36027   2.36237
 Alpha virt. eigenvalues --    2.36534   2.37016   2.37659   2.38305   2.38584
 Alpha virt. eigenvalues --    2.38949   2.40552   2.41526   2.42295   2.42511
 Alpha virt. eigenvalues --    2.42828   2.43157   2.43758   2.44722   2.45530
 Alpha virt. eigenvalues --    2.46320   2.47428   2.47832   2.48786   2.51522
 Alpha virt. eigenvalues --    2.52100   2.53134   2.53658   2.53889   2.54621
 Alpha virt. eigenvalues --    2.55415   2.55599   2.56116   2.56582   2.56949
 Alpha virt. eigenvalues --    2.57795   2.58305   2.58471   2.59176   2.59609
 Alpha virt. eigenvalues --    2.60501   2.61455   2.61533   2.62119   2.62683
 Alpha virt. eigenvalues --    2.62912   2.64435   2.64508   2.64801   2.65733
 Alpha virt. eigenvalues --    2.65896   2.66809   2.67575   2.68489   2.71097
 Alpha virt. eigenvalues --    2.73647   2.73704   2.75421   2.76069   2.77293
 Alpha virt. eigenvalues --    2.78233   2.80780   2.81048   2.81769   2.82260
 Alpha virt. eigenvalues --    2.82829   2.84299   2.85665   2.86431   2.87144
 Alpha virt. eigenvalues --    2.88102   2.88849   2.88967   2.89202   2.90585
 Alpha virt. eigenvalues --    2.90790   2.90888   2.91405   2.91838   2.92381
 Alpha virt. eigenvalues --    2.93181   2.94592   2.94841   2.96831   3.01599
 Alpha virt. eigenvalues --    3.02148   3.02345   3.03533   3.03624   3.05235
 Alpha virt. eigenvalues --    3.05273   3.05704   3.06641   3.07602   3.09772
 Alpha virt. eigenvalues --    3.11462   3.14669   3.15825   3.77996   3.78169
 Alpha virt. eigenvalues --    3.83479   3.84748   3.86111   3.88143   3.89489
 Alpha virt. eigenvalues --    3.89852   3.90690   3.92764   3.93201   3.93404
 Alpha virt. eigenvalues --    3.93764   3.94704   3.96765   3.97549   3.98377
 Alpha virt. eigenvalues --    3.98851   4.00442   4.01467   4.02264   4.02876
 Alpha virt. eigenvalues --    4.03350   4.05139   4.06365   4.06412   4.10394
 Alpha virt. eigenvalues --    4.11186   4.13133   4.13614   4.14272   4.16042
 Alpha virt. eigenvalues --    4.16212   4.18860   4.19749   4.20513   4.21438
 Alpha virt. eigenvalues --    4.21613   4.22012   4.22165   4.26217   4.28269
 Alpha virt. eigenvalues --    4.29804   4.39682   4.39731   4.41062   4.41538
 Alpha virt. eigenvalues --    4.43166   4.43656   4.44690   4.46259   4.47397
 Alpha virt. eigenvalues --    4.49894   4.50436   4.50862   4.51265   4.52653
          Condensed to atoms (all electrons):
 Mulliken charges:
               1
     1  N   -0.759913
     2  H    0.423551
     3  H    0.394387
     4  H    0.448038
     5  C   -0.293444
     6  H    0.256465
     7  H    0.221938
     8  C    0.621223
     9  O   -0.526566
    10  N   -0.580760
    11  H    0.369975
    12  C   -0.242827
    13  H    0.212475
    14  H    0.203197
    15  C    0.599637
    16  O   -0.523841
    17  N   -0.579164
    18  H    0.369838
    19  C   -0.237020
    20  H    0.204650
    21  H    0.188919
    22  C    0.592129
    23  O   -0.527369
    24  N   -0.574160
    25  H    0.381901
    26  C   -0.248888
    27  H    0.178788
    28  H    0.212532
    29  C    0.618585
    30  O   -0.547667
    31  N   -0.599737
    32  H    0.348261
    33  C   -0.220921
    34  H    0.205829
    35  H    0.206358
    36  C    0.583198
    37  O   -0.492845
    38  N   -0.607637
    39  H    0.345790
    40  C   -0.190789
    41  H    0.216557
    42  H    0.189144
    43  C    0.609540
    44  O   -0.562019
    45  N   -0.568104
    46  H    0.358573
    47  C   -0.235630
    48  H    0.203006
    49  H    0.175728
    50  C    0.599731
    51  O   -0.499103
    52  N   -0.600594
    53  H    0.340016
    54  C   -0.233233
    55  H    0.196205
    56  H    0.230494
    57  C    0.597761
    58  O   -0.487880
    59  N   -0.663086
    60  H    0.392683
    61  C   -0.222629
    62  H    0.197101
    63  H    0.230091
    64  C    0.605715
    65  O   -0.583239
    66  N   -0.565775
    67  H    0.356351
    68  C   -0.254142
    69  H    0.192982
    70  H    0.197653
    71  C    0.670676
    72  O   -0.575214
    73  N   -0.587442
    74  H    0.365724
    75  C   -0.198088
    76  H    0.197138
    77  H    0.197955
    78  C    0.610830
    79  O   -0.534890
    80  N   -0.622542
    81  H    0.363192
    82  C   -0.194225
    83  H    0.195576
    84  H    0.196382
    85  C    0.609063
    86  O   -0.532110
    87  N   -0.624445
    88  H    0.362765
    89  C   -0.192897
    90  H    0.196269
    91  H    0.195727
    92  C    0.609330
    93  O   -0.525175
    94  N   -0.626258
    95  H    0.360727
    96  C   -0.177072
    97  H    0.212649
    98  H    0.212733
    99  C    0.569144
   100  O   -0.456587
   101  O   -0.554263
   102  H    0.427319
 Sum of Mulliken charges =   1.00000
 Mulliken charges with hydrogens summed into heavy atoms:
               1
     1  N    0.506063
     5  C    0.184960
     8  C    0.621223
     9  O   -0.526566
    10  N   -0.210786
    12  C    0.172844
    15  C    0.599637
    16  O   -0.523841
    17  N   -0.209326
    19  C    0.156549
    22  C    0.592129
    23  O   -0.527369
    24  N   -0.192259
    26  C    0.142432
    29  C    0.618585
    30  O   -0.547667
    31  N   -0.251476
    33  C    0.191266
    36  C    0.583198
    37  O   -0.492845
    38  N   -0.261847
    40  C    0.214912
    43  C    0.609540
    44  O   -0.562019
    45  N   -0.209531
    47  C    0.143104
    50  C    0.599731
    51  O   -0.499103
    52  N   -0.260577
    54  C    0.193466
    57  C    0.597761
    58  O   -0.487880
    59  N   -0.270404
    61  C    0.204562
    64  C    0.605715
    65  O   -0.583239
    66  N   -0.209425
    68  C    0.136493
    71  C    0.670676
    72  O   -0.575214
    73  N   -0.221717
    75  C    0.197005
    78  C    0.610830
    79  O   -0.534890
    80  N   -0.259350
    82  C    0.197732
    85  C    0.609063
    86  O   -0.532110
    87  N   -0.261681
    89  C    0.199099
    92  C    0.609330
    93  O   -0.525175
    94  N   -0.265531
    96  C    0.248309
    99  C    0.569144
   100  O   -0.456587
   101  O   -0.126944
 Electronic spatial extent (au):  <R**2>=         187993.3819
 Charge=              1.0000 electrons
 Dipole moment (field-independent basis, Debye):
    X=             -7.3003    Y=             18.9086    Z=            -32.8698  Tot=             38.6168
 Quadrupole moment (field-independent basis, Debye-Ang):
   XX=           -225.3190   YY=           -173.4693   ZZ=             29.1913
   XY=            -26.6086   XZ=              6.1955   YZ=           -219.6811
 Traceless Quadrupole moment (field-independent basis, Debye-Ang):
   XX=           -102.1200   YY=            -50.2703   ZZ=            152.3904
   XY=            -26.6086   XZ=              6.1955   YZ=           -219.6811
 Octapole moment (field-independent basis, Debye-Ang**2):
  XXX=            993.9737  YYY=          -3219.9179  ZZZ=           1030.0254  XYY=            543.9938
  XXY=          -1021.2069  XXZ=           1699.2571  XZZ=           1119.3902  YZZ=           1903.1097
  YYZ=             97.9028  XYZ=           -441.5446
 Hexadecapole moment (field-independent basis, Debye-Ang**3):
 XXXX=         -24605.8283 YYYY=         -50945.5663 ZZZZ=         -39911.1957 XXXY=           -579.0934
 XXXZ=          -3026.7241 YYYX=           4534.2901 YYYZ=          22689.7922 ZZZX=         -21280.6319
 ZZZY=         -17577.0214 XXYY=         -12046.7801 XXZZ=         -24155.9823 YYZZ=           2394.2801
 XXYZ=          11163.1174 YYXZ=          -8661.1769 ZZXY=          11914.5746
 N-N= 8.109783626147D+03 E-N=-2.316722068084D+04  KE= 2.961903704985D+03
 Unable to Open any file for archive entry.
 1\1\GINC-SKL-137\SP\RB3LYP\6-31G(d)\C28H45N14O15(1+)\KENGMITH\11-Aug-2
 022\0\\# B3LYP/6-31G* guess=read geom=check nosymm integral(ultrafineg
 rid)\\Candidate Structure: Conf:145 Charge calc in gas phase\\1,1\N,0,
 -4.868750956,6.203267547,-4.1748904189\H,0,-4.1398833533,6.2400317377,
 -3.4435781848\H,0,-5.3754672124,7.0851452975,-4.2830001485\H,0,-4.3185
 688728,6.04063691,-5.0733816637\C,0,-5.7994759812,5.0831895133,-3.8767
 063148\H,0,-5.2045865951,4.1772923756,-3.7455855929\H,0,-6.3251031216,
 5.2988277024,-2.941514463\C,0,-6.783349618,4.9520110487,-5.0366163155\
 O,0,-6.8842773662,5.8578496627,-5.864876746\N,0,-7.5133682618,3.812747
 6408,-5.0481415038\H,0,-7.1314387763,3.0196630767,-4.5402562437\C,0,-8
 .3873347669,3.5038074035,-6.1825042091\H,0,-8.8080820282,4.4425317326,
 -6.5486681086\H,0,-9.1899888967,2.8436458371,-5.85266852\C,0,-7.577387
 2946,2.7724293342,-7.2608531942\O,0,-7.7018011221,1.5610570022,-7.4454
 773981\N,0,-6.6592096757,3.5377303161,-7.9072976109\H,0,-6.5589166319,
 4.5079829924,-7.6250054298\C,0,-5.6138629347,2.9366206388,-8.732641850
 4\H,0,-6.0715412253,2.1866358557,-9.3843090974\H,0,-5.1555511106,3.714
 0860574,-9.3437034147\C,0,-4.513093163,2.3018249194,-7.8622757262\O,0,
 -3.4051528527,2.8149150361,-7.7253883098\N,0,-4.8892451684,1.138408811
 6,-7.2581770289\H,0,-5.8717332272,0.877736724,-7.3389601494\C,0,-4.085
 0668789,0.5280556248,-6.2333536377\H,0,-4.1428602524,-0.5635963129,-6.
 3151767822\H,0,-3.0448682142,0.8217554395,-6.410046961\C,0,-4.47519126
 94,0.9743987407,-4.8097631425\O,0,-5.0852502514,2.0235184746,-4.591102
 4095\N,0,-4.0430889631,0.1441673596,-3.825271489\H,0,-3.6497481221,-0.
 7490091553,-4.0949926131\C,0,-4.3466945242,0.3357806513,-2.4123504286\
 H,0,-4.6465021162,1.3800095275,-2.2852283834\H,0,-5.1833698614,-0.2941
 308559,-2.0936408029\C,0,-3.1779589678,0.0175193009,-1.4706038632\O,0,
 -3.381562477,-0.4467199701,-0.359186139\N,0,-1.9286720604,0.2823360911
 ,-1.948274487\H,0,-1.7944319777,0.8680951027,-2.7643796054\C,0,-0.7752
 088835,0.1268256805,-1.085801418\H,0,-0.949069457,0.6128081067,-0.1145
 884156\H,0,-0.5908624881,-0.9333607319,-0.8756612891\C,0,0.4317571447,
 0.7741371851,-1.7551482425\O,0,0.2986016528,1.6562139905,-2.6127169941
 \N,0,1.6442324177,0.3271273586,-1.3608238247\H,0,1.7067993122,-0.29752
 99351,-0.5684042766\C,0,2.8581739414,0.9697866261,-1.8393254828\H,0,3.
 7121353162,0.4579444023,-1.3882179331\H,0,2.9257742782,0.8526215152,-2
 .9259875992\C,0,2.891284797,2.4496420696,-1.4196650262\O,0,2.587481931
 1,2.7956353342,-0.2883148654\N,0,3.2609088725,3.3262487041,-2.39856886
 02\H,0,3.4027503923,2.9851267334,-3.3388210323\C,0,3.2847965036,4.7585
 739746,-2.1634446736\H,0,3.9724317208,5.2361274982,-2.8655114315\H,0,3
 .6639636737,4.9393695549,-1.1534349659\C,0,1.9385183237,5.4957922389,-
 2.2512093003\O,0,1.9092664631,6.713146195,-2.1770062592\N,0,0.81095315
 86,4.7196364676,-2.4081804283\H,0,0.8914933343,3.7129219621,-2.2967189
 495\C,0,-0.4947510562,5.2970452153,-2.1518440967\H,0,-0.9045230188,4.9
 667555557,-1.1902873292\H,0,-0.3631850317,6.3833732829,-2.0976988608\C
 ,0,-1.5484352917,4.9842039858,-3.2064328485\O,0,-2.7513741666,5.126681
 2914,-2.9434477032\N,0,-1.0863567022,4.557858712,-4.3991552248\H,0,-0.
 0810317793,4.4577229406,-4.4743692564\C,0,-1.9351221242,4.124763308,-5
 .501718215\H,0,-1.436119916,3.3127677024,-6.0342967299\H,0,-2.87152013
 05,3.7370858956,-5.0991199636\C,0,-2.266498134,5.2657366211,-6.4731702
 854\O,0,-3.2513630634,6.0121771991,-6.3146610836\N,0,-1.3981292059,5.4
 493175321,-7.4689035032\H,0,-0.6387440681,4.7986760469,-7.6628192888\C
 ,0,-1.5352898669,6.4717665503,-8.4839609945\H,0,-1.518706153,7.4718197
 04,-8.0348022113\H,0,-2.4912129419,6.3680306458,-9.0126456329\C,0,-0.3
 575809072,6.28713077,-9.4560199655\O,0,0.4455412503,5.3657858625,-9.29
 77836735\N,0,-0.2886440409,7.1821135255,-10.4543199691\H,0,-0.96120547
 91,7.9369834454,-10.5745506516\C,0,0.7427517631,7.1541232277,-11.46882
 44705\H,0,1.7381783197,7.2606849351,-11.0192792363\H,0,0.7355255978,6.
 1985317927,-12.0082579455\C,0,0.4586733795,8.3182560922,-12.4297391713
 \O,0,-0.5073191271,9.0614594376,-12.2535920419\N,0,1.3284423641,8.4515
 068607,-13.4475256196\H,0,2.1244289695,7.8328731207,-13.5826179109\C,0
 ,1.2118019958,9.4945310871,-14.4421131553\H,0,1.2463396815,10.48730318
 39,-13.9749740539\H,0,0.2530813508,9.4256322145,-14.9723679288\C,0,2.3
 796058931,9.3217363573,-15.4216577174\O,0,3.2021978756,8.4187708177,-1
 5.2806811486\N,0,2.4304932807,10.2200151869,-16.4282031094\H,0,1.74338
 41268,10.9593747624,-16.5292359779\C,0,3.4736723887,10.1857793191,-17.
 4304856217\H,0,3.4786683903,9.2326381635,-17.9736233021\H,0,4.46836628
 53,10.2907834565,-16.9798427847\C,0,3.2383977418,11.3218383054,-18.405
 7763614\O,0,2.3194782713,12.1088093254,-18.3287121436\O,0,4.1766198593
 ,11.3460588814,-19.3657150235\H,0,3.9674018834,12.0957596272,-19.95519
 43521\\Version=ES64L-G16RevC.01\HF=-2989.0203009\RMSD=7.417e-09\Dipole
 =-0.1511287,-1.411852,0.1113027\Quadrupole=-75.9237364,-37.3747574,113
 .2984939,-19.7828681,4.606213,-163.3275319\PG=C01 [X(C28H45N14O15)]\\@
 The archive entry for this job was punched.


 ERROR IS THE FORCE THAT WELDS MEN TOGETHER....
 TRUTH IS COMMUNICATED TO MEN ONLY BY DEEDS OF TRUTH.
           TOLSTOI,MY RELIGION
 Job cpu time:       0 days  0 hours  2 minutes 26.4 seconds.
 Elapsed time:       0 days  0 hours  0 minutes 37.2 seconds.
 File lengths (MBytes):  RWF=    688 Int=      0 D2E=      0 Chk=     96 Scr=     32
 Normal termination of Gaussian 16 at Thu Aug 11 11:20:46 2022.
