 Entering Gaussian System, Link 0=/opt/software/Gaussian/g16-AVX2-C.01/g16/g16
 Input=charge-conf-448.com
 Output=charge-conf-448.log
 Initial command:
 /opt/software/Gaussian/g16-AVX2-C.01/g16/l1.exe "/mnt/gs18/scratch/users/kengmith/Gau-32548.inp" -scrdir="/mnt/gs18/scratch/users/kengmith/"
 Entering Link 1 = /opt/software/Gaussian/g16-AVX2-C.01/g16/l1.exe PID=     32559.
  
 Copyright (c) 1988-2019, Gaussian, Inc.  All Rights Reserved.
  
 This is part of the Gaussian(R) 16 program.  It is based on
 the Gaussian(R) 09 system (copyright 2009, Gaussian, Inc.),
 the Gaussian(R) 03 system (copyright 2003, Gaussian, Inc.),
 the Gaussian(R) 98 system (copyright 1998, Gaussian, Inc.),
 the Gaussian(R) 94 system (copyright 1995, Gaussian, Inc.),
 the Gaussian 92(TM) system (copyright 1992, Gaussian, Inc.),
 the Gaussian 90(TM) system (copyright 1990, Gaussian, Inc.),
 the Gaussian 88(TM) system (copyright 1988, Gaussian, Inc.),
 the Gaussian 86(TM) system (copyright 1986, Carnegie Mellon
 University), and the Gaussian 82(TM) system (copyright 1983,
 Carnegie Mellon University). Gaussian is a federally registered
 trademark of Gaussian, Inc.
  
 This software contains proprietary and confidential information,
 including trade secrets, belonging to Gaussian, Inc.
  
 This software is provided under written license and may be
 used, copied, transmitted, or stored only in accord with that
 written license.
  
 The following legend is applicable only to US Government
 contracts under FAR:
  
                    RESTRICTED RIGHTS LEGEND
  
 Use, reproduction and disclosure by the US Government is
 subject to restrictions as set forth in subparagraphs (a)
 and (c) of the Commercial Computer Software - Restricted
 Rights clause in FAR 52.227-19.
  
 Gaussian, Inc.
 340 Quinnipiac St., Bldg. 40, Wallingford CT 06492
  
  
 ---------------------------------------------------------------
 Warning -- This program may not be used in any manner that
 competes with the business of Gaussian, Inc. or will provide
 assistance to any competitor of Gaussian, Inc.  The licensee
 of this program is prohibited from giving any competitor of
 Gaussian, Inc. access to this program.  By using this program,
 the user acknowledges that Gaussian, Inc. is engaged in the
 business of creating and licensing software in the field of
 computational chemistry and represents and warrants to the
 licensee that it is not a competitor of Gaussian, Inc. and that
 it will not use this program in any manner prohibited above.
 ---------------------------------------------------------------
  

 Cite this work as:
 Gaussian 16, Revision C.01,
 M. J. Frisch, G. W. Trucks, H. B. Schlegel, G. E. Scuseria, 
 M. A. Robb, J. R. Cheeseman, G. Scalmani, V. Barone, 
 G. A. Petersson, H. Nakatsuji, X. Li, M. Caricato, A. V. Marenich, 
 J. Bloino, B. G. Janesko, R. Gomperts, B. Mennucci, H. P. Hratchian, 
 J. V. Ortiz, A. F. Izmaylov, J. L. Sonnenberg, D. Williams-Young, 
 F. Ding, F. Lipparini, F. Egidi, J. Goings, B. Peng, A. Petrone, 
 T. Henderson, D. Ranasinghe, V. G. Zakrzewski, J. Gao, N. Rega, 
 G. Zheng, W. Liang, M. Hada, M. Ehara, K. Toyota, R. Fukuda, 
 J. Hasegawa, M. Ishida, T. Nakajima, Y. Honda, O. Kitao, H. Nakai, 
 T. Vreven, K. Throssell, J. A. Montgomery, Jr., J. E. Peralta, 
 F. Ogliaro, M. J. Bearpark, J. J. Heyd, E. N. Brothers, K. N. Kudin, 
 V. N. Staroverov, T. A. Keith, R. Kobayashi, J. Normand, 
 K. Raghavachari, A. P. Rendell, J. C. Burant, S. S. Iyengar, 
 J. Tomasi, M. Cossi, J. M. Millam, M. Klene, C. Adamo, R. Cammi, 
 J. W. Ochterski, R. L. Martin, K. Morokuma, O. Farkas, 
 J. B. Foresman, and D. J. Fox, Gaussian, Inc., Wallingford CT, 2019.
 
 ******************************************
 Gaussian 16:  ES64L-G16RevC.01  3-Jul-2019
                23-Jun-2022 
 ******************************************
 %mem=8gb
 %nproc=4
 Will use up to    4 processors via shared memory.
 %chk=conf-448.chk
 ----------------------------------------------------------------------
 # B3LYP/6-31G* empiricaldispersion=gd3bj guess=read geom=check nosymm 
 integral(ultrafinegrid)
 ----------------------------------------------------------------------
 1/29=2,38=1,172=1/1;
 2/12=2,15=1,40=1/2;
 3/5=1,6=6,7=1,11=2,14=-4,25=1,30=1,74=-5,75=-5,116=-2,124=41/1,2,3;
 4/5=1/1;
 5/5=2,38=6/2;
 6/7=2,8=2,9=2,10=2,28=1/1;
 99/5=1,9=1/99;
 ------------------------------------------------------
 Candidate Structure: Conf:448 Charge calc in gas phase
 ------------------------------------------------------
 Structure from the checkpoint file:  "conf-448.chk"
 Charge =  1 Multiplicity = 1
 Redundant internal coordinates found in file.  (old form).
 N,0,-1.1031523513,-4.6652717944,2.049228882
 H,0,-1.7094955514,-5.1131406566,1.3636589979
 H,0,-0.1511162843,-4.9359537826,1.79921199
 C,0,-1.199827121,-3.2171019744,1.9299568764
 H,0,-2.2567591321,-2.9297620823,1.9843957223
 C,0,-0.5551757386,-2.6825617789,0.6467765083
 C,0,-0.4381292541,-2.5274990906,3.0854771121
 H,0,0.6053141193,-2.8731426006,3.0298120846
 H,0,-0.4094705499,-1.4535971067,2.8759385578
 O,0,0.454260625,-3.1926721407,0.1705811242
 C,0,-1.0080992844,-2.720001908,4.4551391497
 C,0,-1.4289312848,-3.881624385,5.058046221
 H,0,-1.4783976657,-4.8782150194,4.6471589323
 C,0,-1.145910039,-1.6708197598,5.4345040662
 C,0,-1.654729998,-2.2687793675,6.6219428383
 C,0,-0.8963736481,-0.2867513801,5.4287178154
 H,0,-0.5523063368,0.2121932607,4.525395885
 N,0,-1.8202496145,-3.6125077242,6.3554874633
 H,0,-2.1754336014,-4.296000285,7.0057809215
 C,0,-1.6323716405,-0.1668409268,7.7481352676
 H,0,-1.8118446305,0.4337218433,8.6345719948
 C,0,-1.901367222,-1.5304555601,7.7821901246
 H,0,-2.2889007926,-2.0033319207,8.6801099161
 C,0,-1.138932865,0.4505956328,6.5814994153
 H,0,-0.9543402403,1.5209802221,6.5854173022
 N,0,-1.055833195,-1.5079559516,0.1420119428
 H,0,-1.9830104595,-1.2121512108,0.415071983
 C,0,-0.4434014705,-0.8999384462,-1.0370821261
 H,0,-0.8889358519,0.1001285094,-1.1247342199
 C,0,1.0612664105,-0.7012696311,-0.7489667924
 C,0,-0.660108994,-1.6532432055,-2.3699652288
 H,0,0.0723091206,-2.4653179396,-2.3979594693
 O,0,1.9416968672,-0.9576826424,-1.5799749911
 C,0,-0.3943276581,-0.6988394847,-3.5544930076
 H,0,-1.29807676,-0.1039059312,-3.745401853
 H,0,0.3900079795,0.0183965858,-3.288061402
 C,0,-2.0664122681,-2.254380841,-2.4537551261
 H,0,-2.8395554218,-1.4862716163,-2.322179967
 H,0,-2.2270035928,-2.7163643404,-3.4326336302
 H,0,-2.221641324,-3.0295013871,-1.6982963215
 C,0,0.0193749766,-1.431373773,-4.8329125294
 H,0,0.2008444467,-0.729017962,-5.6551455028
 H,0,-0.7520138078,-2.130902962,-5.1704638296
 H,0,0.930056538,-2.0219532206,-4.6639407667
 N,0,1.3556347437,-0.1736201252,0.4566056064
 H,0,0.6034798942,-0.0816795666,1.1282309548
 C,0,2.7169365415,-0.1672590719,0.9853775913
 H,0,3.2593229724,-0.9927106621,0.5196434959
 C,0,2.716133804,-0.4515730452,2.4842855739
 C,0,3.4569841781,1.1682095275,0.7437389863
 H,0,2.883938665,1.9682345896,1.2247370862
 H,0,4.4239447011,1.1125863982,1.2590711601
 O,0,3.6110253762,-1.0137538407,3.0617784156
 C,0,3.67163779,1.5280956988,-0.7322558624
 H,0,4.0661572649,2.5505894826,-0.7831506789
 H,0,2.7141197257,1.530491427,-1.2627972772
 C,0,4.6470472597,0.5835797735,-1.4436377341
 H,0,5.6109503427,0.5608248989,-0.92614118
 H,0,4.2614544064,-0.4356717868,-1.4656046948
 N,0,4.9237392728,0.9959675049,-2.8281514229
 H,0,5.5407541056,1.7887202438,-2.9490830562
 N,0,3.2354302632,-0.2383357339,-3.8615460558
 H,0,2.8711764973,-0.6616921228,-4.7034675408
 H,0,2.7537860425,-0.4833817061,-2.9826370704
 N,0,4.7137875394,1.0234454058,-5.1262571037
 H,0,5.6637163625,1.3473564457,-5.2386828084
 H,0,4.2227137805,0.7701231788,-5.9711136215
 C,0,4.27988714,0.5785723411,-3.9249874071
 O,0,1.6195964162,0.0630552418,3.0913361898
 H,0,1.6516928412,-0.1672988709,4.0416979227
 Recover connectivity data from disk.
                           ----------------------------
                           !    Current Parameters    !
                           ! (Angstroms and Degrees)  !
 --------------------------                            --------------------------
 ! Name  Definition              Value                                          !
 --------------------------------------------------------------------------------
 ! R1    R(1,2)                  1.0189                                         !
 ! R2    R(1,3)                  1.0209                                         !
 ! R3    R(1,4)                  1.4563                                         !
 ! R4    R(4,5)                  1.0966                                         !
 ! R5    R(4,6)                  1.5323                                         !
 ! R6    R(4,7)                  1.5463                                         !
 ! R7    R(6,10)                 1.2272                                         !
 ! R8    R(6,26)                 1.373                                          !
 ! R9    R(7,8)                  1.1006                                         !
 ! R10   R(7,9)                  1.0945                                         !
 ! R11   R(7,11)                 1.496                                          !
 ! R12   R(11,12)                1.3748                                         !
 ! R13   R(11,14)                1.4418                                         !
 ! R14   R(12,13)                1.0791                                         !
 ! R15   R(12,18)                1.3816                                         !
 ! R16   R(14,15)                1.4235                                         !
 ! R17   R(14,16)                1.4064                                         !
 ! R18   R(15,18)                1.3799                                         !
 ! R19   R(15,22)                1.3972                                         !
 ! R20   R(16,17)                1.0878                                         !
 ! R21   R(16,24)                1.3898                                         !
 ! R22   R(18,19)                1.0081                                         !
 ! R23   R(20,21)                1.0857                                         !
 ! R24   R(20,22)                1.3903                                         !
 ! R25   R(20,24)                1.4092                                         !
 ! R26   R(22,23)                1.0863                                         !
 ! R27   R(24,25)                1.0862                                         !
 ! R28   R(26,27)                1.0108                                         !
 ! R29   R(26,28)                1.4612                                         !
 ! R30   R(28,29)                1.0983                                         !
 ! R31   R(28,30)                1.5448                                         !
 ! R32   R(28,31)                1.5463                                         !
 ! R33   R(30,33)                1.2375                                         !
 ! R34   R(30,45)                1.3485                                         !
 ! R35   R(31,32)                1.0939                                         !
 ! R36   R(31,34)                1.5442                                         !
 ! R37   R(31,37)                1.5317                                         !
 ! R38   R(34,35)                1.0987                                         !
 ! R39   R(34,36)                1.0957                                         !
 ! R40   R(34,41)                1.5304                                         !
 ! R41   R(37,38)                1.0977                                         !
 ! R42   R(37,39)                1.0943                                         !
 ! R43   R(37,40)                1.0934                                         !
 ! R44   R(41,42)                1.0965                                         !
 ! R45   R(41,43)                1.0947                                         !
 ! R46   R(41,44)                1.0985                                         !
 ! R47   R(45,46)                1.0126                                         !
 ! R48   R(45,47)                1.4604                                         !
 ! R49   R(47,48)                1.092                                          !
 ! R50   R(47,49)                1.5256                                         !
 ! R51   R(47,50)                1.5458                                         !
 ! R52   R(49,53)                1.2043                                         !
 ! R53   R(49,69)                1.3549                                         !
 ! R54   R(50,51)                1.0953                                         !
 ! R55   R(50,52)                1.0971                                         !
 ! R56   R(50,54)                1.5343                                         !
 ! R57   R(54,55)                1.0971                                         !
 ! R58   R(54,56)                1.0947                                         !
 ! R59   R(54,57)                1.5328                                         !
 ! R60   R(57,58)                1.0943                                         !
 ! R61   R(57,59)                1.09                                           !
 ! R62   R(57,60)                1.4709                                         !
 ! R63   R(60,61)                1.0118                                         !
 ! R64   R(60,68)                1.3386                                         !
 ! R65   R(62,63)                1.0103                                         !
 ! R66   R(62,64)                1.0318                                         !
 ! R67   R(62,68)                1.3275                                         !
 ! R68   R(65,66)                1.0099                                         !
 ! R69   R(65,67)                1.0095                                         !
 ! R70   R(65,68)                1.3525                                         !
 ! R71   R(69,70)                0.9784                                         !
 ! A1    A(2,1,3)              105.8803                                         !
 ! A2    A(2,1,4)              110.0283                                         !
 ! A3    A(3,1,4)              107.7897                                         !
 ! A4    A(1,4,5)              108.6914                                         !
 ! A5    A(1,4,6)              112.8033                                         !
 ! A6    A(1,4,7)              110.462                                          !
 ! A7    A(5,4,6)              110.833                                          !
 ! A8    A(5,4,7)              108.7121                                         !
 ! A9    A(6,4,7)              105.2472                                         !
 ! A10   A(4,6,10)             121.737                                          !
 ! A11   A(4,6,26)             116.9302                                         !
 ! A12   A(10,6,26)            120.8574                                         !
 ! A13   A(4,7,8)              106.8078                                         !
 ! A14   A(4,7,9)              107.9031                                         !
 ! A15   A(4,7,11)             116.0483                                         !
 ! A16   A(8,7,9)              105.88                                           !
 ! A17   A(8,7,11)             111.5375                                         !
 ! A18   A(9,7,11)             108.1504                                         !
 ! A19   A(7,11,12)            128.8212                                         !
 ! A20   A(7,11,14)            124.3797                                         !
 ! A21   A(12,11,14)           106.7207                                         !
 ! A22   A(11,12,13)           128.8585                                         !
 ! A23   A(11,12,18)           109.5085                                         !
 ! A24   A(13,12,18)           121.6325                                         !
 ! A25   A(11,14,15)           107.1631                                         !
 ! A26   A(11,14,16)           134.1356                                         !
 ! A27   A(15,14,16)           118.7007                                         !
 ! A28   A(14,15,18)           106.909                                          !
 ! A29   A(14,15,22)           122.2635                                         !
 ! A30   A(18,15,22)           130.8275                                         !
 ! A31   A(14,16,17)           120.7256                                         !
 ! A32   A(14,16,24)           119.1932                                         !
 ! A33   A(17,16,24)           120.0439                                         !
 ! A34   A(12,18,15)           109.6969                                         !
 ! A35   A(12,18,19)           124.9952                                         !
 ! A36   A(15,18,19)           125.3077                                         !
 ! A37   A(21,20,22)           119.3782                                         !
 ! A38   A(21,20,24)           119.4377                                         !
 ! A39   A(22,20,24)           121.1829                                         !
 ! A40   A(15,22,20)           117.6323                                         !
 ! A41   A(15,22,23)           121.2887                                         !
 ! A42   A(20,22,23)           121.079                                          !
 ! A43   A(16,24,20)           121.0222                                         !
 ! A44   A(16,24,25)           119.7468                                         !
 ! A45   A(20,24,25)           119.2291                                         !
 ! A46   A(6,26,27)            119.0465                                         !
 ! A47   A(6,26,28)            119.9878                                         !
 ! A48   A(27,26,28)           118.7298                                         !
 ! A49   A(26,28,29)           105.8587                                         !
 ! A50   A(26,28,30)           108.1349                                         !
 ! A51   A(26,28,31)           115.7295                                         !
 ! A52   A(29,28,30)           107.031                                          !
 ! A53   A(29,28,31)           108.5387                                         !
 ! A54   A(30,28,31)           111.0951                                         !
 ! A55   A(28,30,33)           122.7559                                         !
 ! A56   A(28,30,45)           115.4467                                         !
 ! A57   A(33,30,45)           121.7424                                         !
 ! A58   A(28,31,32)           106.8504                                         !
 ! A59   A(28,31,34)           109.6328                                         !
 ! A60   A(28,31,37)           111.5323                                         !
 ! A61   A(32,31,34)           108.9014                                         !
 ! A62   A(32,31,37)           108.7823                                         !
 ! A63   A(34,31,37)           111.0157                                         !
 ! A64   A(31,34,35)           109.0489                                         !
 ! A65   A(31,34,36)           109.9528                                         !
 ! A66   A(31,34,41)           113.0458                                         !
 ! A67   A(35,34,36)           106.0578                                         !
 ! A68   A(35,34,41)           109.6573                                         !
 ! A69   A(36,34,41)           108.8407                                         !
 ! A70   A(31,37,38)           111.4366                                         !
 ! A71   A(31,37,39)           110.4489                                         !
 ! A72   A(31,37,40)           111.7624                                         !
 ! A73   A(38,37,39)           107.4136                                         !
 ! A74   A(38,37,40)           108.2532                                         !
 ! A75   A(39,37,40)           107.3334                                         !
 ! A76   A(34,41,42)           111.3796                                         !
 ! A77   A(34,41,43)           111.899                                          !
 ! A78   A(34,41,44)           110.6679                                         !
 ! A79   A(42,41,43)           107.1408                                         !
 ! A80   A(42,41,44)           108.8153                                         !
 ! A81   A(43,41,44)           106.7423                                         !
 ! A82   A(30,45,46)           117.7987                                         !
 ! A83   A(30,45,47)           121.9296                                         !
 ! A84   A(46,45,47)           116.8632                                         !
 ! A85   A(45,47,48)           107.7745                                         !
 ! A86   A(45,47,49)           110.7583                                         !
 ! A87   A(45,47,50)           113.1675                                         !
 ! A88   A(48,47,49)           106.1658                                         !
 ! A89   A(48,47,50)           110.4013                                         !
 ! A90   A(49,47,50)           108.3506                                         !
 ! A91   A(47,49,53)           123.8983                                         !
 ! A92   A(47,49,69)           111.7054                                         !
 ! A93   A(53,49,69)           124.3217                                         !
 ! A94   A(47,50,51)           108.1735                                         !
 ! A95   A(47,50,52)           107.7414                                         !
 ! A96   A(47,50,54)           114.8341                                         !
 ! A97   A(51,50,52)           106.9695                                         !
 ! A98   A(51,50,54)           108.9237                                         !
 ! A99   A(52,50,54)           109.904                                          !
 ! A100  A(50,54,55)           108.272                                          !
 ! A101  A(50,54,56)           110.1434                                         !
 ! A102  A(50,54,57)           113.0133                                         !
 ! A103  A(55,54,56)           106.8585                                         !
 ! A104  A(55,54,57)           108.8996                                         !
 ! A105  A(56,54,57)           109.4529                                         !
 ! A106  A(54,57,58)           110.724                                          !
 ! A107  A(54,57,59)           111.1276                                         !
 ! A108  A(54,57,60)           112.5685                                         !
 ! A109  A(58,57,59)           107.5599                                         !
 ! A110  A(58,57,60)           106.5752                                         !
 ! A111  A(59,57,60)           108.0444                                         !
 ! A112  A(57,60,61)           116.5435                                         !
 ! A113  A(57,60,68)           126.3972                                         !
 ! A114  A(61,60,68)           116.0838                                         !
 ! A115  A(63,62,64)           116.2347                                         !
 ! A116  A(63,62,68)           120.1125                                         !
 ! A117  A(64,62,68)           123.6525                                         !
 ! A118  A(66,65,67)           116.4152                                         !
 ! A119  A(66,65,68)           120.4067                                         !
 ! A120  A(67,65,68)           120.3131                                         !
 ! A121  A(60,68,62)           122.0842                                         !
 ! A122  A(60,68,65)           118.0931                                         !
 ! A123  A(62,68,65)           119.8198                                         !
 ! A124  A(49,69,70)           108.616                                          !
 ! D1    D(2,1,4,5)             53.0716                                         !
 ! D2    D(2,1,4,6)            -70.2623                                         !
 ! D3    D(2,1,4,7)            172.2623                                         !
 ! D4    D(3,1,4,5)            168.0851                                         !
 ! D5    D(3,1,4,6)             44.7512                                         !
 ! D6    D(3,1,4,7)            -72.7242                                         !
 ! D7    D(1,4,6,10)           -35.2738                                         !
 ! D8    D(1,4,6,26)           152.5763                                         !
 ! D9    D(5,4,6,10)          -157.4107                                         !
 ! D10   D(5,4,6,26)            30.4393                                         !
 ! D11   D(7,4,6,10)            85.2344                                         !
 ! D12   D(7,4,6,26)           -86.9155                                         !
 ! D13   D(1,4,7,8)             58.2329                                         !
 ! D14   D(1,4,7,9)            171.6837                                         !
 ! D15   D(1,4,7,11)           -66.8314                                         !
 ! D16   D(5,4,7,8)            177.4111                                         !
 ! D17   D(5,4,7,9)            -69.1381                                         !
 ! D18   D(5,4,7,11)            52.3468                                         !
 ! D19   D(6,4,7,8)            -63.8042                                         !
 ! D20   D(6,4,7,9)             49.6466                                         !
 ! D21   D(6,4,7,11)           171.1315                                         !
 ! D22   D(4,6,26,27)          -20.5262                                         !
 ! D23   D(4,6,26,28)          176.6693                                         !
 ! D24   D(10,6,26,27)         167.2504                                         !
 ! D25   D(10,6,26,28)           4.446                                          !
 ! D26   D(4,7,11,12)           47.245                                          !
 ! D27   D(4,7,11,14)         -136.412                                          !
 ! D28   D(8,7,11,12)          -75.3651                                         !
 ! D29   D(8,7,11,14)          100.9779                                         !
 ! D30   D(9,7,11,12)          168.5982                                         !
 ! D31   D(9,7,11,14)          -15.0588                                         !
 ! D32   D(7,11,12,13)          -3.3959                                         !
 ! D33   D(7,11,12,18)         176.8657                                         !
 ! D34   D(14,11,12,13)        179.755                                          !
 ! D35   D(14,11,12,18)          0.0165                                         !
 ! D36   D(7,11,14,15)        -176.7944                                         !
 ! D37   D(7,11,14,16)           3.4884                                         !
 ! D38   D(12,11,14,15)          0.2313                                         !
 ! D39   D(12,11,14,16)       -179.4859                                         !
 ! D40   D(11,12,18,15)         -0.2699                                         !
 ! D41   D(11,12,18,19)        179.5443                                         !
 ! D42   D(13,12,18,15)        179.9693                                         !
 ! D43   D(13,12,18,19)         -0.2164                                         !
 ! D44   D(11,14,15,18)         -0.3901                                         !
 ! D45   D(11,14,15,22)        179.5995                                         !
 ! D46   D(16,14,15,18)        179.3785                                         !
 ! D47   D(16,14,15,22)         -0.6318                                         !
 ! D48   D(11,14,16,17)          2.6053                                         !
 ! D49   D(11,14,16,24)       -179.6166                                         !
 ! D50   D(15,14,16,17)       -177.0867                                         !
 ! D51   D(15,14,16,24)          0.6914                                         !
 ! D52   D(14,15,18,12)          0.4089                                         !
 ! D53   D(14,15,18,19)       -179.4047                                         !
 ! D54   D(22,15,18,12)       -179.5795                                         !
 ! D55   D(22,15,18,19)          0.6069                                         !
 ! D56   D(14,15,22,20)          0.0283                                         !
 ! D57   D(14,15,22,23)       -179.9337                                         !
 ! D58   D(18,15,22,20)       -179.9848                                         !
 ! D59   D(18,15,22,23)          0.0532                                         !
 ! D60   D(14,16,24,20)         -0.1763                                         !
 ! D61   D(14,16,24,25)       -179.6774                                         !
 ! D62   D(17,16,24,20)        177.6173                                         !
 ! D63   D(17,16,24,25)         -1.8838                                         !
 ! D64   D(21,20,22,15)       -179.8831                                         !
 ! D65   D(21,20,22,23)          0.079                                          !
 ! D66   D(24,20,22,15)          0.5105                                         !
 ! D67   D(24,20,22,23)       -179.5274                                         !
 ! D68   D(21,20,24,16)        179.9467                                         !
 ! D69   D(21,20,24,25)         -0.5496                                         !
 ! D70   D(22,20,24,16)         -0.4471                                         !
 ! D71   D(22,20,24,25)        179.0566                                         !
 ! D72   D(6,26,28,29)        -169.6615                                         !
 ! D73   D(6,26,28,30)         -55.2407                                         !
 ! D74   D(6,26,28,31)          70.0867                                         !
 ! D75   D(27,26,28,29)         27.48                                           !
 ! D76   D(27,26,28,30)        141.9009                                         !
 ! D77   D(27,26,28,31)        -92.7717                                         !
 ! D78   D(26,28,30,33)        137.0983                                         !
 ! D79   D(26,28,30,45)        -45.5589                                         !
 ! D80   D(29,28,30,33)       -109.2569                                         !
 ! D81   D(29,28,30,45)         68.0859                                         !
 ! D82   D(31,28,30,33)          9.0753                                         !
 ! D83   D(31,28,30,45)       -173.5819                                         !
 ! D84   D(26,28,31,32)        -81.0945                                         !
 ! D85   D(26,28,31,34)        161.0392                                         !
 ! D86   D(26,28,31,37)         37.6668                                         !
 ! D87   D(29,28,31,32)        160.1189                                         !
 ! D88   D(29,28,31,34)         42.2527                                         !
 ! D89   D(29,28,31,37)        -81.1197                                         !
 ! D90   D(30,28,31,32)         42.7011                                         !
 ! D91   D(30,28,31,34)        -75.1651                                         !
 ! D92   D(30,28,31,37)        161.4625                                         !
 ! D93   D(28,30,45,46)          9.1924                                         !
 ! D94   D(28,30,45,47)        167.6926                                         !
 ! D95   D(33,30,45,46)       -173.4352                                         !
 ! D96   D(33,30,45,47)        -14.9351                                         !
 ! D97   D(28,31,34,35)        -83.0066                                         !
 ! D98   D(28,31,34,36)         32.885                                          !
 ! D99   D(28,31,34,41)        154.7419                                         !
 ! D100  D(32,31,34,35)        160.4131                                         !
 ! D101  D(32,31,34,36)        -83.6954                                         !
 ! D102  D(32,31,34,41)         38.1616                                         !
 ! D103  D(37,31,34,35)         40.6694                                         !
 ! D104  D(37,31,34,36)        156.561                                          !
 ! D105  D(37,31,34,41)        -81.582                                          !
 ! D106  D(28,31,37,38)         56.3628                                         !
 ! D107  D(28,31,37,39)        175.6726                                         !
 ! D108  D(28,31,37,40)        -64.9065                                         !
 ! D109  D(32,31,37,38)        173.9652                                         !
 ! D110  D(32,31,37,39)        -66.7249                                         !
 ! D111  D(32,31,37,40)         52.696                                          !
 ! D112  D(34,31,37,38)        -66.2201                                         !
 ! D113  D(34,31,37,39)         53.0897                                         !
 ! D114  D(34,31,37,40)        172.5106                                         !
 ! D115  D(31,34,41,42)        179.9918                                         !
 ! D116  D(31,34,41,43)         60.0922                                         !
 ! D117  D(31,34,41,44)        -58.8196                                         !
 ! D118  D(35,34,41,42)         58.0812                                         !
 ! D119  D(35,34,41,43)        -61.8184                                         !
 ! D120  D(35,34,41,44)        179.2698                                         !
 ! D121  D(36,34,41,42)        -57.5287                                         !
 ! D122  D(36,34,41,43)       -177.4283                                         !
 ! D123  D(36,34,41,44)         63.6599                                         !
 ! D124  D(30,45,47,48)        -25.3951                                         !
 ! D125  D(30,45,47,49)       -141.1282                                         !
 ! D126  D(30,45,47,50)         96.9731                                         !
 ! D127  D(46,45,47,48)        133.2945                                         !
 ! D128  D(46,45,47,49)         17.5615                                         !
 ! D129  D(46,45,47,50)       -104.3372                                         !
 ! D130  D(45,47,49,53)        149.1832                                         !
 ! D131  D(45,47,49,69)        -33.8415                                         !
 ! D132  D(48,47,49,53)         32.4538                                         !
 ! D133  D(48,47,49,69)       -150.5709                                         !
 ! D134  D(50,47,49,53)        -86.1363                                         !
 ! D135  D(50,47,49,69)         90.8389                                         !
 ! D136  D(45,47,50,51)         59.1296                                         !
 ! D137  D(45,47,50,52)        174.4418                                         !
 ! D138  D(45,47,50,54)        -62.7432                                         !
 ! D139  D(48,47,50,51)       -179.9782                                         !
 ! D140  D(48,47,50,52)        -64.666                                          !
 ! D141  D(48,47,50,54)         58.149                                          !
 ! D142  D(49,47,50,51)        -64.1082                                         !
 ! D143  D(49,47,50,52)         51.204                                          !
 ! D144  D(49,47,50,54)        174.019                                          !
 ! D145  D(47,49,69,70)        178.342                                          !
 ! D146  D(53,49,69,70)         -4.6979                                         !
 ! D147  D(47,50,54,55)        171.7565                                         !
 ! D148  D(47,50,54,56)         55.2424                                         !
 ! D149  D(47,50,54,57)        -67.5232                                         !
 ! D150  D(51,50,54,55)         50.2918                                         !
 ! D151  D(51,50,54,56)        -66.2223                                         !
 ! D152  D(51,50,54,57)        171.0121                                         !
 ! D153  D(52,50,54,55)        -66.5978                                         !
 ! D154  D(52,50,54,56)        176.8881                                         !
 ! D155  D(52,50,54,57)         54.1225                                         !
 ! D156  D(50,54,57,58)        -56.5175                                         !
 ! D157  D(50,54,57,59)         62.9561                                         !
 ! D158  D(50,54,57,60)       -175.6971                                         !
 ! D159  D(55,54,57,58)         63.8451                                         !
 ! D160  D(55,54,57,59)       -176.6813                                         !
 ! D161  D(55,54,57,60)        -55.3345                                         !
 ! D162  D(56,54,57,58)       -179.6665                                         !
 ! D163  D(56,54,57,59)        -60.1929                                         !
 ! D164  D(56,54,57,60)         61.1539                                         !
 ! D165  D(54,57,60,61)         75.218                                          !
 ! D166  D(54,57,60,68)        -92.9774                                         !
 ! D167  D(58,57,60,61)        -46.3514                                         !
 ! D168  D(58,57,60,68)        145.4532                                         !
 ! D169  D(59,57,60,61)       -161.694                                          !
 ! D170  D(59,57,60,68)         30.1105                                         !
 ! D171  D(57,60,68,62)          3.5186                                         !
 ! D172  D(57,60,68,65)       -177.1005                                         !
 ! D173  D(61,60,68,62)       -164.7242                                         !
 ! D174  D(61,60,68,65)         14.6566                                         !
 ! D175  D(63,62,68,60)       -169.3997                                         !
 ! D176  D(63,62,68,65)         11.2299                                         !
 ! D177  D(64,62,68,60)         10.3674                                         !
 ! D178  D(64,62,68,65)       -169.003                                          !
 ! D179  D(66,65,68,60)         23.1536                                         !
 ! D180  D(66,65,68,62)       -157.451                                          !
 ! D181  D(67,65,68,60)       -176.6897                                         !
 ! D182  D(67,65,68,62)          2.7057                                         !
 --------------------------------------------------------------------------------
 Symmetry turned off by external request.
 Stoichiometry    C23H36N7O4(1+)
 Framework group  C1[X(C23H36N7O4)]
 Deg. of freedom   204
 Full point group                 C1      NOp   1
                          Input orientation:                          
 ---------------------------------------------------------------------
 Center     Atomic      Atomic             Coordinates (Angstroms)
 Number     Number       Type             X           Y           Z
 ---------------------------------------------------------------------
      1          7           0       -1.103152   -4.665272    2.049229
      2          1           0       -1.709496   -5.113141    1.363659
      3          1           0       -0.151116   -4.935954    1.799212
      4          6           0       -1.199827   -3.217102    1.929957
      5          1           0       -2.256759   -2.929762    1.984396
      6          6           0       -0.555176   -2.682562    0.646777
      7          6           0       -0.438129   -2.527499    3.085477
      8          1           0        0.605314   -2.873143    3.029812
      9          1           0       -0.409471   -1.453597    2.875939
     10          8           0        0.454261   -3.192672    0.170581
     11          6           0       -1.008099   -2.720002    4.455139
     12          6           0       -1.428931   -3.881624    5.058046
     13          1           0       -1.478398   -4.878215    4.647159
     14          6           0       -1.145910   -1.670820    5.434504
     15          6           0       -1.654730   -2.268779    6.621943
     16          6           0       -0.896374   -0.286751    5.428718
     17          1           0       -0.552306    0.212193    4.525396
     18          7           0       -1.820250   -3.612508    6.355487
     19          1           0       -2.175434   -4.296000    7.005781
     20          6           0       -1.632372   -0.166841    7.748135
     21          1           0       -1.811845    0.433722    8.634572
     22          6           0       -1.901367   -1.530456    7.782190
     23          1           0       -2.288901   -2.003332    8.680110
     24          6           0       -1.138933    0.450596    6.581499
     25          1           0       -0.954340    1.520980    6.585417
     26          7           0       -1.055833   -1.507956    0.142012
     27          1           0       -1.983010   -1.212151    0.415072
     28          6           0       -0.443401   -0.899938   -1.037082
     29          1           0       -0.888936    0.100129   -1.124734
     30          6           0        1.061266   -0.701270   -0.748967
     31          6           0       -0.660109   -1.653243   -2.369965
     32          1           0        0.072309   -2.465318   -2.397959
     33          8           0        1.941697   -0.957683   -1.579975
     34          6           0       -0.394328   -0.698839   -3.554493
     35          1           0       -1.298077   -0.103906   -3.745402
     36          1           0        0.390008    0.018397   -3.288061
     37          6           0       -2.066412   -2.254381   -2.453755
     38          1           0       -2.839555   -1.486272   -2.322180
     39          1           0       -2.227004   -2.716364   -3.432634
     40          1           0       -2.221641   -3.029501   -1.698296
     41          6           0        0.019375   -1.431374   -4.832913
     42          1           0        0.200844   -0.729018   -5.655146
     43          1           0       -0.752014   -2.130903   -5.170464
     44          1           0        0.930057   -2.021953   -4.663941
     45          7           0        1.355635   -0.173620    0.456606
     46          1           0        0.603480   -0.081680    1.128231
     47          6           0        2.716937   -0.167259    0.985378
     48          1           0        3.259323   -0.992711    0.519643
     49          6           0        2.716134   -0.451573    2.484286
     50          6           0        3.456984    1.168210    0.743739
     51          1           0        2.883939    1.968235    1.224737
     52          1           0        4.423945    1.112586    1.259071
     53          8           0        3.611025   -1.013754    3.061778
     54          6           0        3.671638    1.528096   -0.732256
     55          1           0        4.066157    2.550589   -0.783151
     56          1           0        2.714120    1.530491   -1.262797
     57          6           0        4.647047    0.583580   -1.443638
     58          1           0        5.610950    0.560825   -0.926141
     59          1           0        4.261454   -0.435672   -1.465605
     60          7           0        4.923739    0.995968   -2.828151
     61          1           0        5.540754    1.788720   -2.949083
     62          7           0        3.235430   -0.238336   -3.861546
     63          1           0        2.871176   -0.661692   -4.703468
     64          1           0        2.753786   -0.483382   -2.982637
     65          7           0        4.713788    1.023445   -5.126257
     66          1           0        5.663716    1.347356   -5.238683
     67          1           0        4.222714    0.770123   -5.971114
     68          6           0        4.279887    0.578572   -3.924987
     69          8           0        1.619596    0.063055    3.091336
     70          1           0        1.651693   -0.167299    4.041698
 ---------------------------------------------------------------------
 Rotational constants (GHZ):           0.2057023           0.0617655           0.0518377
 Standard basis: 6-31G(d) (6D, 7F)
   582 basis functions,  1096 primitive gaussians,   582 cartesian basis functions
   127 alpha electrons      127 beta electrons
       nuclear repulsion energy      3772.9125894103 Hartrees.
 NAtoms=   70 NActive=   70 NUniq=   70 SFac= 1.00D+00 NAtFMM=   60 NAOKFM=T Big=T
 Integral buffers will be    131072 words long.
 Raffenetti 2 integral format.
 Two-electron integral symmetry is turned off.
 Nuclear repulsion after empirical dispersion term =     3772.7600904092 Hartrees.
 One-electron integrals computed using PRISM.
 NBasis=   582 RedAO= T EigKep=  3.69D-04  NBF=   582
 NBsUse=   582 1.00D-06 EigRej= -1.00D+00 NBFU=   582
 Initial guess from the checkpoint file:  "conf-448.chk"
 B after Tr=     0.000000    0.000000    0.000000
         Rot=    1.000000    0.000000    0.000000    0.000000 Ang=   0.00 deg.
 Requested convergence on RMS density matrix=1.00D-08 within 128 cycles.
 Requested convergence on MAX density matrix=1.00D-06.
 Requested convergence on             energy=1.00D-06.
 No special actions if energy rises.
 SCF Done:  E(RB3LYP) =  -1582.30869142     A.U. after    1 cycles
            NFock=  1  Conv=0.41D-08     -V/T= 2.0095

 **********************************************************************

            Population analysis using the SCF Density.

 **********************************************************************

 Alpha  occ. eigenvalues --  -19.29831 -19.23797 -19.23733 -19.21175 -14.52279
 Alpha  occ. eigenvalues --  -14.52174 -14.50610 -14.47158 -14.46170 -14.43346
 Alpha  occ. eigenvalues --  -14.39089 -10.48295 -10.42071 -10.40682 -10.37389
 Alpha  occ. eigenvalues --  -10.35393 -10.34591 -10.33953 -10.30760 -10.30454
 Alpha  occ. eigenvalues --  -10.30382 -10.28115 -10.27627 -10.27250 -10.27224
 Alpha  occ. eigenvalues --  -10.26995 -10.26546 -10.26170 -10.24397 -10.24295
 Alpha  occ. eigenvalues --  -10.24019 -10.23776 -10.23718 -10.23665  -1.20467
 Alpha  occ. eigenvalues --   -1.16757  -1.15571  -1.13080  -1.11669  -1.06179
 Alpha  occ. eigenvalues --   -1.04687  -1.04158  -1.03173  -1.02042  -0.96718
 Alpha  occ. eigenvalues --   -0.92218  -0.90474  -0.89300  -0.87347  -0.86053
 Alpha  occ. eigenvalues --   -0.83953  -0.81783  -0.81140  -0.79646  -0.78873
 Alpha  occ. eigenvalues --   -0.77924  -0.76862  -0.74205  -0.73523  -0.73326
 Alpha  occ. eigenvalues --   -0.72400  -0.70955  -0.69959  -0.69340  -0.68516
 Alpha  occ. eigenvalues --   -0.67543  -0.66050  -0.65507  -0.64690  -0.64593
 Alpha  occ. eigenvalues --   -0.63099  -0.62066  -0.61632  -0.60887  -0.59643
 Alpha  occ. eigenvalues --   -0.59071  -0.58710  -0.58402  -0.57486  -0.57377
 Alpha  occ. eigenvalues --   -0.56374  -0.55458  -0.55102  -0.55005  -0.54258
 Alpha  occ. eigenvalues --   -0.53474  -0.53039  -0.52475  -0.52154  -0.51682
 Alpha  occ. eigenvalues --   -0.51587  -0.50532  -0.50227  -0.50116  -0.49765
 Alpha  occ. eigenvalues --   -0.48931  -0.48535  -0.48226  -0.47429  -0.47420
 Alpha  occ. eigenvalues --   -0.47078  -0.46850  -0.46293  -0.46103  -0.45974
 Alpha  occ. eigenvalues --   -0.45340  -0.44662  -0.43569  -0.43306  -0.42912
 Alpha  occ. eigenvalues --   -0.42548  -0.42038  -0.41645  -0.41605  -0.40740
 Alpha  occ. eigenvalues --   -0.40520  -0.39187  -0.38787  -0.38568  -0.38083
 Alpha  occ. eigenvalues --   -0.36186  -0.35548  -0.34771  -0.32970  -0.31459
 Alpha  occ. eigenvalues --   -0.27639  -0.25634
 Alpha virt. eigenvalues --   -0.12180  -0.10128  -0.08996  -0.08301  -0.07576
 Alpha virt. eigenvalues --   -0.06687  -0.04662  -0.04224  -0.03219  -0.02956
 Alpha virt. eigenvalues --   -0.01862  -0.01237   0.00280   0.00493   0.00852
 Alpha virt. eigenvalues --    0.01175   0.02012   0.02220   0.02436   0.03079
 Alpha virt. eigenvalues --    0.03695   0.04015   0.04831   0.05189   0.05367
 Alpha virt. eigenvalues --    0.05589   0.06034   0.06388   0.06706   0.06781
 Alpha virt. eigenvalues --    0.07415   0.07653   0.08220   0.08735   0.09124
 Alpha virt. eigenvalues --    0.09360   0.09794   0.10291   0.10621   0.10746
 Alpha virt. eigenvalues --    0.11224   0.11342   0.12126   0.12216   0.12748
 Alpha virt. eigenvalues --    0.12952   0.13062   0.13346   0.13911   0.14040
 Alpha virt. eigenvalues --    0.14273   0.14634   0.15180   0.16059   0.16618
 Alpha virt. eigenvalues --    0.17052   0.17762   0.17840   0.19238   0.20506
 Alpha virt. eigenvalues --    0.20649   0.21491   0.22538   0.23034   0.23582
 Alpha virt. eigenvalues --    0.24488   0.25071   0.26435   0.26807   0.28494
 Alpha virt. eigenvalues --    0.29561   0.30259   0.31082   0.31556   0.32652
 Alpha virt. eigenvalues --    0.34827   0.36642   0.37886   0.38025   0.38715
 Alpha virt. eigenvalues --    0.40241   0.40998   0.41359   0.42029   0.42976
 Alpha virt. eigenvalues --    0.43156   0.43743   0.44118   0.44504   0.44907
 Alpha virt. eigenvalues --    0.45597   0.45684   0.46480   0.46588   0.47043
 Alpha virt. eigenvalues --    0.47529   0.47999   0.49252   0.49862   0.50258
 Alpha virt. eigenvalues --    0.50668   0.51012   0.51166   0.51849   0.52146
 Alpha virt. eigenvalues --    0.53010   0.53107   0.53237   0.54100   0.54217
 Alpha virt. eigenvalues --    0.54519   0.54886   0.55201   0.55554   0.55642
 Alpha virt. eigenvalues --    0.56263   0.56586   0.56886   0.57136   0.57308
 Alpha virt. eigenvalues --    0.57983   0.58550   0.58714   0.59055   0.59619
 Alpha virt. eigenvalues --    0.60417   0.61397   0.61929   0.62905   0.63021
 Alpha virt. eigenvalues --    0.64421   0.65332   0.65828   0.66674   0.66753
 Alpha virt. eigenvalues --    0.67725   0.68148   0.68473   0.69177   0.70322
 Alpha virt. eigenvalues --    0.70589   0.71103   0.71841   0.72334   0.72596
 Alpha virt. eigenvalues --    0.73085   0.73250   0.73937   0.74387   0.74761
 Alpha virt. eigenvalues --    0.75231   0.75593   0.75814   0.76379   0.76921
 Alpha virt. eigenvalues --    0.77095   0.77593   0.77994   0.78272   0.78697
 Alpha virt. eigenvalues --    0.79157   0.79613   0.80027   0.80390   0.80691
 Alpha virt. eigenvalues --    0.81511   0.81714   0.81992   0.82580   0.82797
 Alpha virt. eigenvalues --    0.83294   0.83548   0.83979   0.84491   0.85338
 Alpha virt. eigenvalues --    0.85500   0.85920   0.86645   0.86685   0.87233
 Alpha virt. eigenvalues --    0.87927   0.88678   0.88874   0.89430   0.89992
 Alpha virt. eigenvalues --    0.90554   0.90700   0.91634   0.92502   0.93044
 Alpha virt. eigenvalues --    0.93405   0.93599   0.94126   0.94423   0.94816
 Alpha virt. eigenvalues --    0.95020   0.95991   0.96355   0.97839   0.98558
 Alpha virt. eigenvalues --    0.98938   1.00875   1.01456   1.02152   1.02868
 Alpha virt. eigenvalues --    1.03696   1.04660   1.06241   1.06357   1.07359
 Alpha virt. eigenvalues --    1.08038   1.09584   1.11265   1.11793   1.12783
 Alpha virt. eigenvalues --    1.13856   1.14357   1.14986   1.16156   1.16531
 Alpha virt. eigenvalues --    1.16987   1.17555   1.19357   1.19592   1.19981
 Alpha virt. eigenvalues --    1.21543   1.22124   1.23732   1.24849   1.25585
 Alpha virt. eigenvalues --    1.26486   1.27799   1.28397   1.29258   1.29857
 Alpha virt. eigenvalues --    1.31265   1.32825   1.33611   1.34115   1.35138
 Alpha virt. eigenvalues --    1.36013   1.36702   1.36960   1.37455   1.38509
 Alpha virt. eigenvalues --    1.40393   1.41375   1.42412   1.42823   1.43655
 Alpha virt. eigenvalues --    1.44228   1.45070   1.45680   1.46618   1.47408
 Alpha virt. eigenvalues --    1.48035   1.49629   1.50664   1.51170   1.52123
 Alpha virt. eigenvalues --    1.52512   1.53931   1.54704   1.55553   1.56754
 Alpha virt. eigenvalues --    1.59212   1.59368   1.59635   1.60897   1.60999
 Alpha virt. eigenvalues --    1.62598   1.64159   1.65203   1.66596   1.66942
 Alpha virt. eigenvalues --    1.67627   1.68990   1.69602   1.70261   1.70335
 Alpha virt. eigenvalues --    1.71170   1.71920   1.73167   1.73727   1.74261
 Alpha virt. eigenvalues --    1.74910   1.75525   1.75765   1.76722   1.77455
 Alpha virt. eigenvalues --    1.77720   1.79015   1.79463   1.79975   1.80200
 Alpha virt. eigenvalues --    1.81305   1.82431   1.82904   1.83218   1.83699
 Alpha virt. eigenvalues --    1.84580   1.85304   1.86312   1.86645   1.87000
 Alpha virt. eigenvalues --    1.87328   1.87875   1.88503   1.88849   1.89562
 Alpha virt. eigenvalues --    1.90173   1.90845   1.91369   1.92240   1.93393
 Alpha virt. eigenvalues --    1.93502   1.93894   1.94819   1.96038   1.96200
 Alpha virt. eigenvalues --    1.97967   1.99002   1.99458   1.99603   1.99875
 Alpha virt. eigenvalues --    2.01493   2.01818   2.02464   2.03485   2.05103
 Alpha virt. eigenvalues --    2.05652   2.07668   2.08104   2.08322   2.09542
 Alpha virt. eigenvalues --    2.10426   2.11503   2.12347   2.14342   2.14831
 Alpha virt. eigenvalues --    2.15678   2.16703   2.18110   2.19618   2.19952
 Alpha virt. eigenvalues --    2.20591   2.20853   2.21215   2.21649   2.22373
 Alpha virt. eigenvalues --    2.23489   2.24334   2.24932   2.25679   2.26233
 Alpha virt. eigenvalues --    2.26557   2.27441   2.28882   2.31035   2.31826
 Alpha virt. eigenvalues --    2.33456   2.33950   2.34063   2.34517   2.34624
 Alpha virt. eigenvalues --    2.34913   2.37199   2.37834   2.38172   2.39442
 Alpha virt. eigenvalues --    2.39734   2.42532   2.42884   2.43902   2.44205
 Alpha virt. eigenvalues --    2.44597   2.45850   2.46261   2.49191   2.50370
 Alpha virt. eigenvalues --    2.50703   2.50872   2.53247   2.53692   2.55670
 Alpha virt. eigenvalues --    2.56543   2.58134   2.58444   2.59428   2.59676
 Alpha virt. eigenvalues --    2.61439   2.62032   2.62319   2.64324   2.64965
 Alpha virt. eigenvalues --    2.66852   2.68799   2.71168   2.71944   2.72279
 Alpha virt. eigenvalues --    2.72551   2.74433   2.76690   2.78266   2.79893
 Alpha virt. eigenvalues --    2.81478   2.82412   2.87441   2.88777   2.90341
 Alpha virt. eigenvalues --    2.91482   2.93968   2.96315   2.97724   2.99545
 Alpha virt. eigenvalues --    3.00961   3.06259   3.08832   3.09676   3.19886
 Alpha virt. eigenvalues --    3.39117   3.65395   3.77018   3.81262   3.83388
 Alpha virt. eigenvalues --    3.86633   3.92093   3.95463   3.96519   4.04218
 Alpha virt. eigenvalues --    4.05017   4.06296   4.07047   4.08566   4.12111
 Alpha virt. eigenvalues --    4.12726   4.15669   4.16731   4.17027   4.22000
 Alpha virt. eigenvalues --    4.23124   4.27922   4.29986   4.31813   4.33391
 Alpha virt. eigenvalues --    4.35804   4.37957   4.40417   4.41299   4.47698
 Alpha virt. eigenvalues --    4.51621   4.56198   4.61339   4.61853   4.74763
          Condensed to atoms (all electrons):
 Mulliken charges:
               1
     1  N   -0.692553
     2  H    0.308092
     3  H    0.319811
     4  C   -0.074802
     5  H    0.143726
     6  C    0.594182
     7  C   -0.369418
     8  H    0.163453
     9  H    0.140353
    10  O   -0.519317
    11  C    0.066807
    12  C    0.016969
    13  H    0.182892
    14  C    0.074231
    15  C    0.318294
    16  C   -0.249725
    17  H    0.110743
    18  N   -0.692961
    19  H    0.335369
    20  C   -0.152144
    21  H    0.135709
    22  C   -0.156801
    23  H    0.135547
    24  C   -0.137155
    25  H    0.124511
    26  N   -0.634577
    27  H    0.342778
    28  C   -0.050644
    29  H    0.168664
    30  C    0.657455
    31  C   -0.059898
    32  H    0.173326
    33  O   -0.585384
    34  C   -0.266711
    35  H    0.146524
    36  H    0.117604
    37  C   -0.466519
    38  H    0.140230
    39  H    0.164904
    40  H    0.154479
    41  C   -0.465971
    42  H    0.141573
    43  H    0.174482
    44  H    0.134998
    45  N   -0.603208
    46  H    0.374463
    47  C   -0.043101
    48  H    0.208182
    49  C    0.590890
    50  C   -0.281343
    51  H    0.173473
    52  H    0.176326
    53  O   -0.433092
    54  C   -0.265786
    55  H    0.155845
    56  H    0.159350
    57  C   -0.177621
    58  H    0.188307
    59  H    0.210969
    60  N   -0.600947
    61  H    0.360147
    62  N   -0.804568
    63  H    0.370765
    64  H    0.469404
    65  N   -0.764557
    66  H    0.378468
    67  H    0.378152
    68  C    0.813276
    69  O   -0.586425
    70  H    0.439505
 Sum of Mulliken charges =   1.00000
 Mulliken charges with hydrogens summed into heavy atoms:
               1
     1  N   -0.064649
     4  C    0.068924
     6  C    0.594182
     7  C   -0.065613
    10  O   -0.519317
    11  C    0.066807
    12  C    0.199862
    14  C    0.074231
    15  C    0.318294
    16  C   -0.138982
    18  N   -0.357592
    20  C   -0.016436
    22  C   -0.021254
    24  C   -0.012644
    26  N   -0.291800
    28  C    0.118021
    30  C    0.657455
    31  C    0.113428
    33  O   -0.585384
    34  C   -0.002582
    37  C   -0.006906
    41  C   -0.014919
    45  N   -0.228745
    47  C    0.165081
    49  C    0.590890
    50  C    0.068456
    53  O   -0.433092
    54  C    0.049409
    57  C    0.221656
    60  N   -0.240800
    62  N    0.035600
    65  N   -0.007936
    68  C    0.813276
    69  O   -0.146921
 Electronic spatial extent (au):  <R**2>=          22746.5480
 Charge=              1.0000 electrons
 Dipole moment (field-independent basis, Debye):
    X=             11.0111    Y=              1.5194    Z=            -11.1307  Tot=             15.7304
 Quadrupole moment (field-independent basis, Debye-Ang):
   XX=           -118.7999   YY=           -178.9865   ZZ=            -98.9409
   XY=             37.3800   XZ=            -72.8927   YZ=            -21.3730
 Traceless Quadrupole moment (field-independent basis, Debye-Ang):
   XX=             13.4425   YY=            -46.7441   ZZ=             33.3015
   XY=             37.3800   XZ=            -72.8927   YZ=            -21.3730
 Octapole moment (field-independent basis, Debye-Ang**2):
  XXX=            -24.9016  YYY=            577.7402  ZZZ=           -743.8455  XYY=           -173.2566
  XXY=            324.7847  XXZ=           -531.5280  XZZ=             56.9641  YZZ=            137.1210
  YYZ=           -122.9342  XYZ=             -2.1688
 Hexadecapole moment (field-independent basis, Debye-Ang**3):
 XXXX=          -4809.5446 YYYY=          -4210.7469 ZZZZ=         -13695.7425 XXXY=           -306.8654
 XXXZ=            540.6881 YYYX=           -752.0955 YYYZ=           1305.7594 ZZZX=           -304.2597
 ZZZY=            628.6102 XXYY=          -1698.4573 XXZZ=          -2699.0217 YYZZ=          -3046.5139
 XXYZ=            155.1779 YYXZ=            412.7672 ZZXY=            388.2589
 N-N= 3.772760090409D+03 E-N=-1.120234400332D+04  KE= 1.567424350960D+03
 Unable to Open any file for archive entry.
 1\1\GINC-SKL-137\SP\RB3LYP\6-31G(d)\C23H36N7O4(1+)\KENGMITH\23-Jun-202
 2\0\\# B3LYP/6-31G* empiricaldispersion=gd3bj guess=read geom=check no
 symm integral(ultrafinegrid)\\Candidate Structure: Conf:448 Charge cal
 c in gas phase\\1,1\N,0,-1.1031523513,-4.6652717944,2.049228882\H,0,-1
 .7094955514,-5.1131406566,1.3636589979\H,0,-0.1511162843,-4.9359537826
 ,1.79921199\C,0,-1.199827121,-3.2171019744,1.9299568764\H,0,-2.2567591
 321,-2.9297620823,1.9843957223\C,0,-0.5551757386,-2.6825617789,0.64677
 65083\C,0,-0.4381292541,-2.5274990906,3.0854771121\H,0,0.6053141193,-2
 .8731426006,3.0298120846\H,0,-0.4094705499,-1.4535971067,2.8759385578\
 O,0,0.454260625,-3.1926721407,0.1705811242\C,0,-1.0080992844,-2.720001
 908,4.4551391497\C,0,-1.4289312848,-3.881624385,5.058046221\H,0,-1.478
 3976657,-4.8782150194,4.6471589323\C,0,-1.145910039,-1.6708197598,5.43
 45040662\C,0,-1.654729998,-2.2687793675,6.6219428383\C,0,-0.8963736481
 ,-0.2867513801,5.4287178154\H,0,-0.5523063368,0.2121932607,4.525395885
 \N,0,-1.8202496145,-3.6125077242,6.3554874633\H,0,-2.1754336014,-4.296
 000285,7.0057809215\C,0,-1.6323716405,-0.1668409268,7.7481352676\H,0,-
 1.8118446305,0.4337218433,8.6345719948\C,0,-1.901367222,-1.5304555601,
 7.7821901246\H,0,-2.2889007926,-2.0033319207,8.6801099161\C,0,-1.13893
 2865,0.4505956328,6.5814994153\H,0,-0.9543402403,1.5209802221,6.585417
 3022\N,0,-1.055833195,-1.5079559516,0.1420119428\H,0,-1.9830104595,-1.
 2121512108,0.415071983\C,0,-0.4434014705,-0.8999384462,-1.0370821261\H
 ,0,-0.8889358519,0.1001285094,-1.1247342199\C,0,1.0612664105,-0.701269
 6311,-0.7489667924\C,0,-0.660108994,-1.6532432055,-2.3699652288\H,0,0.
 0723091206,-2.4653179396,-2.3979594693\O,0,1.9416968672,-0.9576826424,
 -1.5799749911\C,0,-0.3943276581,-0.6988394847,-3.5544930076\H,0,-1.298
 07676,-0.1039059312,-3.745401853\H,0,0.3900079795,0.0183965858,-3.2880
 61402\C,0,-2.0664122681,-2.254380841,-2.4537551261\H,0,-2.8395554218,-
 1.4862716163,-2.322179967\H,0,-2.2270035928,-2.7163643404,-3.432633630
 2\H,0,-2.221641324,-3.0295013871,-1.6982963215\C,0,0.0193749766,-1.431
 373773,-4.8329125294\H,0,0.2008444467,-0.729017962,-5.6551455028\H,0,-
 0.7520138078,-2.130902962,-5.1704638296\H,0,0.930056538,-2.0219532206,
 -4.6639407667\N,0,1.3556347437,-0.1736201252,0.4566056064\H,0,0.603479
 8942,-0.0816795666,1.1282309548\C,0,2.7169365415,-0.1672590719,0.98537
 75913\H,0,3.2593229724,-0.9927106621,0.5196434959\C,0,2.716133804,-0.4
 515730452,2.4842855739\C,0,3.4569841781,1.1682095275,0.7437389863\H,0,
 2.883938665,1.9682345896,1.2247370862\H,0,4.4239447011,1.1125863982,1.
 2590711601\O,0,3.6110253762,-1.0137538407,3.0617784156\C,0,3.67163779,
 1.5280956988,-0.7322558624\H,0,4.0661572649,2.5505894826,-0.7831506789
 \H,0,2.7141197257,1.530491427,-1.2627972772\C,0,4.6470472597,0.5835797
 735,-1.4436377341\H,0,5.6109503427,0.5608248989,-0.92614118\H,0,4.2614
 544064,-0.4356717868,-1.4656046948\N,0,4.9237392728,0.9959675049,-2.82
 81514229\H,0,5.5407541056,1.7887202438,-2.9490830562\N,0,3.2354302632,
 -0.2383357339,-3.8615460558\H,0,2.8711764973,-0.6616921228,-4.70346754
 08\H,0,2.7537860425,-0.4833817061,-2.9826370704\N,0,4.7137875394,1.023
 4454058,-5.1262571037\H,0,5.6637163625,1.3473564457,-5.2386828084\H,0,
 4.2227137805,0.7701231788,-5.9711136215\C,0,4.27988714,0.5785723411,-3
 .9249874071\O,0,1.6195964162,0.0630552418,3.0913361898\H,0,1.651692841
 2,-0.1672988709,4.0416979227\\Version=ES64L-G16RevC.01\HF=-1582.308691
 4\RMSD=4.090e-09\Dipole=2.8832008,2.6783498,-6.198682\Quadrupole=9.994
 1992,-34.753074,24.7588748,27.791136,-54.1939576,-15.890319\PG=C01 [X(
 C23H36N7O4)]\\@
 The archive entry for this job was punched.


 LIFE IS A CONTINUAL STRUGGLE AGAINST THE TENDENCY TO PRODUCE ENTROPY.
 Job cpu time:       0 days  0 hours  1 minutes 24.4 seconds.
 Elapsed time:       0 days  0 hours  0 minutes 22.2 seconds.
 File lengths (MBytes):  RWF=    296 Int=      0 D2E=      0 Chk=     40 Scr=     16
 Normal termination of Gaussian 16 at Thu Jun 23 12:42:46 2022.
