 Entering Gaussian System, Link 0=/opt/software/Gaussian/g16-AVX2-C.01/g16/g16
 Input=charge-conf-962.com
 Output=charge-conf-962.log
 Initial command:
 /opt/software/Gaussian/g16-AVX2-C.01/g16/l1.exe "/mnt/gs18/scratch/users/kengmith/Gau-7667.inp" -scrdir="/mnt/gs18/scratch/users/kengmith/"
 Entering Link 1 = /opt/software/Gaussian/g16-AVX2-C.01/g16/l1.exe PID=      7677.
  
 Copyright (c) 1988-2019, Gaussian, Inc.  All Rights Reserved.
  
 This is part of the Gaussian(R) 16 program.  It is based on
 the Gaussian(R) 09 system (copyright 2009, Gaussian, Inc.),
 the Gaussian(R) 03 system (copyright 2003, Gaussian, Inc.),
 the Gaussian(R) 98 system (copyright 1998, Gaussian, Inc.),
 the Gaussian(R) 94 system (copyright 1995, Gaussian, Inc.),
 the Gaussian 92(TM) system (copyright 1992, Gaussian, Inc.),
 the Gaussian 90(TM) system (copyright 1990, Gaussian, Inc.),
 the Gaussian 88(TM) system (copyright 1988, Gaussian, Inc.),
 the Gaussian 86(TM) system (copyright 1986, Carnegie Mellon
 University), and the Gaussian 82(TM) system (copyright 1983,
 Carnegie Mellon University). Gaussian is a federally registered
 trademark of Gaussian, Inc.
  
 This software contains proprietary and confidential information,
 including trade secrets, belonging to Gaussian, Inc.
  
 This software is provided under written license and may be
 used, copied, transmitted, or stored only in accord with that
 written license.
  
 The following legend is applicable only to US Government
 contracts under FAR:
  
                    RESTRICTED RIGHTS LEGEND
  
 Use, reproduction and disclosure by the US Government is
 subject to restrictions as set forth in subparagraphs (a)
 and (c) of the Commercial Computer Software - Restricted
 Rights clause in FAR 52.227-19.
  
 Gaussian, Inc.
 340 Quinnipiac St., Bldg. 40, Wallingford CT 06492
  
  
 ---------------------------------------------------------------
 Warning -- This program may not be used in any manner that
 competes with the business of Gaussian, Inc. or will provide
 assistance to any competitor of Gaussian, Inc.  The licensee
 of this program is prohibited from giving any competitor of
 Gaussian, Inc. access to this program.  By using this program,
 the user acknowledges that Gaussian, Inc. is engaged in the
 business of creating and licensing software in the field of
 computational chemistry and represents and warrants to the
 licensee that it is not a competitor of Gaussian, Inc. and that
 it will not use this program in any manner prohibited above.
 ---------------------------------------------------------------
  

 Cite this work as:
 Gaussian 16, Revision C.01,
 M. J. Frisch, G. W. Trucks, H. B. Schlegel, G. E. Scuseria, 
 M. A. Robb, J. R. Cheeseman, G. Scalmani, V. Barone, 
 G. A. Petersson, H. Nakatsuji, X. Li, M. Caricato, A. V. Marenich, 
 J. Bloino, B. G. Janesko, R. Gomperts, B. Mennucci, H. P. Hratchian, 
 J. V. Ortiz, A. F. Izmaylov, J. L. Sonnenberg, D. Williams-Young, 
 F. Ding, F. Lipparini, F. Egidi, J. Goings, B. Peng, A. Petrone, 
 T. Henderson, D. Ranasinghe, V. G. Zakrzewski, J. Gao, N. Rega, 
 G. Zheng, W. Liang, M. Hada, M. Ehara, K. Toyota, R. Fukuda, 
 J. Hasegawa, M. Ishida, T. Nakajima, Y. Honda, O. Kitao, H. Nakai, 
 T. Vreven, K. Throssell, J. A. Montgomery, Jr., J. E. Peralta, 
 F. Ogliaro, M. J. Bearpark, J. J. Heyd, E. N. Brothers, K. N. Kudin, 
 V. N. Staroverov, T. A. Keith, R. Kobayashi, J. Normand, 
 K. Raghavachari, A. P. Rendell, J. C. Burant, S. S. Iyengar, 
 J. Tomasi, M. Cossi, J. M. Millam, M. Klene, C. Adamo, R. Cammi, 
 J. W. Ochterski, R. L. Martin, K. Morokuma, O. Farkas, 
 J. B. Foresman, and D. J. Fox, Gaussian, Inc., Wallingford CT, 2019.
 
 ******************************************
 Gaussian 16:  ES64L-G16RevC.01  3-Jul-2019
                24-May-2022 
 ******************************************
 %mem=8gb
 %nproc=4
 Will use up to    4 processors via shared memory.
 %chk=conf-962.chk
 -------------------------------------------------------------------
 # B3LYP/6-31G* guess=read geom=check nosymm integral(ultrafinegrid)
 -------------------------------------------------------------------
 1/29=2,38=1,172=1/1;
 2/12=2,15=1,40=1/2;
 3/5=1,6=6,7=1,11=2,14=-4,25=1,30=1,74=-5,75=-5,116=-2/1,2,3;
 4/5=1/1;
 5/5=2,38=6/2;
 6/7=2,8=2,9=2,10=2,28=1/1;
 99/5=1,9=1/99;
 ------------------------------------------------------
 Candidate Structure: Conf:962 Charge calc in gas phase
 ------------------------------------------------------
 Structure from the checkpoint file:  "conf-962.chk"
 Charge =  1 Multiplicity = 1
 Redundant internal coordinates found in file.  (old form).
 N,0,-1.1311718081,-3.499701144,3.9451379962
 H,0,-0.2715163984,-3.2366832202,4.4256050354
 H,0,-2.6433305923,-3.1979686014,5.1017944451
 H,0,-0.9019706711,-4.3478601852,3.4262948008
 C,0,-1.5282502281,-2.4442812707,3.0137405263
 H,0,-1.764856158,-1.5592668157,3.6188518319
 C,0,-0.4021875889,-2.0745159526,2.0314769003
 C,0,-2.8021304979,-2.8602545049,2.2355674369
 H,0,-2.5313686918,-3.6030049992,1.4737317238
 H,0,-3.1903476546,-1.98652381,1.6991138965
 O,0,0.5680129157,-2.7918953705,1.8461820878
 C,0,-3.9237760859,-3.4471365492,3.1214229032
 H,0,-3.632697483,-4.440317813,3.4789059277
 H,0,-4.8272119509,-3.5573514769,2.5174196231
 C,0,-4.2700655919,-2.5499347073,4.3119202904
 O,0,-5.2206240491,-1.8056735169,4.3282646006
 O,0,-3.4051254926,-2.615917714,5.3482014807
 N,0,-0.5855733799,-0.8716414318,1.3753250955
 H,0,-1.4006067862,-0.323483443,1.6169421206
 C,0,0.2758053187,-0.3381866334,0.3402561888
 H,0,-0.2786858882,0.4732615126,-0.1428755842
 C,0,1.5363664438,0.3009717292,0.9167274279
 C,0,0.6359808182,-1.3733805367,-0.7893028445
 H,0,1.1313470707,-2.2255024059,-0.3234497552
 H,0,-0.3340971829,-1.721138546,-1.162518239
 O,0,1.9800433378,-0.1786331715,2.0341740896
 C,0,1.4784407643,-0.7819117119,-1.8918863227
 C,0,0.9498543047,0.154181686,-2.7998668401
 H,0,-0.1102513662,0.4027858515,-2.7661378159
 C,0,2.8344918332,-1.1165012308,-2.0112795489
 H,0,3.2609696595,-1.8661209509,-1.3474922957
 C,0,1.7495573024,0.757415695,-3.7662394992
 H,0,1.3377024499,1.4731470698,-4.470742631
 C,0,3.6463961892,-0.5294177063,-2.9800222889
 H,0,4.6860138416,-0.8285878426,-3.0778356116
 O,0,3.8504755273,1.0544380062,-4.7965084124
 C,0,3.1165516809,0.4326354439,-3.8600184081
 N,0,2.1264660519,1.2797973587,0.2579869876
 H,0,1.7080293576,1.4996295132,-0.6459770197
 C,0,3.4872661288,1.8615667475,0.458294219
 H,0,4.197732132,1.0264441806,0.4885554429
 C,0,3.5576971671,2.6119931754,1.8036719796
 C,0,3.8196151269,2.8207526673,-0.6939340959
 H,0,3.4978094995,2.3608412195,-1.6357814833
 H,0,3.2356888332,3.7346292745,-0.5485411273
 O,0,3.5333801364,3.7983303529,1.9593142514
 C,0,5.3336356954,3.139514444,-0.7597002428
 H,0,5.7691438763,3.0842120334,0.2453691586
 H,0,5.4602680293,4.18369815,-1.0661722595
 C,0,6.1096507272,2.2213148801,-1.7261625484
 H,0,7.1542052004,2.1368881728,-1.401499018
 H,0,5.6911179461,1.2057772289,-1.6979759512
 C,0,6.0725915101,2.7420433457,-3.1693708247
 H,0,5.0629568463,3.0857669373,-3.4250604704
 H,0,6.7370968125,3.6148082509,-3.2481215522
 N,0,6.4170193276,1.6807086756,-4.1396997229
 H,0,6.6588839959,2.1008899803,-5.0376337866
 H,0,4.8308184823,0.999248073,-4.5883686324
 H,0,7.2491787236,1.1743460319,-3.837001929
 O,0,3.6663947834,1.7206710624,2.8418315978
 H,0,2.7302447895,0.3379144553,2.4309325014
 H,0,3.6884851787,2.2154565172,3.6868016042
 Recover connectivity data from disk.
                           ----------------------------
                           !    Current Parameters    !
                           ! (Angstroms and Degrees)  !
 --------------------------                            --------------------------
 ! Name  Definition              Value                                          !
 --------------------------------------------------------------------------------
 ! R1    R(1,2)                  1.0193                                         !
 ! R2    R(1,3)                  1.9276                                         !
 ! R3    R(1,4)                  1.0203                                         !
 ! R4    R(1,5)                  1.4626                                         !
 ! R5    R(5,6)                  1.0979                                         !
 ! R6    R(5,7)                  1.5393                                         !
 ! R7    R(5,8)                  1.5496                                         !
 ! R8    R(7,11)                 1.2208                                         !
 ! R9    R(7,18)                 1.3824                                         !
 ! R10   R(8,9)                  1.0979                                         !
 ! R11   R(8,10)                 1.0963                                         !
 ! R12   R(8,12)                 1.5451                                         !
 ! R13   R(12,13)                1.095                                          !
 ! R14   R(12,14)                1.0923                                         !
 ! R15   R(12,15)                1.5304                                         !
 ! R16   R(15,16)                1.2074                                         !
 ! R17   R(15,17)                1.3514                                         !
 ! R18   R(18,19)                1.0115                                         !
 ! R19   R(18,20)                1.4484                                         !
 ! R20   R(20,21)                1.0951                                         !
 ! R21   R(20,22)                1.5264                                         !
 ! R22   R(20,23)                1.5739                                         !
 ! R23   R(22,26)                1.2944                                         !
 ! R24   R(22,38)                1.3192                                         !
 ! R25   R(23,24)                1.0902                                         !
 ! R26   R(23,25)                1.096                                          !
 ! R27   R(23,27)                1.5084                                         !
 ! R28   R(27,28)                1.4072                                         !
 ! R29   R(27,30)                1.4018                                         !
 ! R30   R(28,29)                1.0894                                         !
 ! R31   R(28,32)                1.3919                                         !
 ! R32   R(30,31)                1.0883                                         !
 ! R33   R(30,34)                1.3937                                         !
 ! R34   R(32,33)                1.0855                                         !
 ! R35   R(32,37)                1.4082                                         !
 ! R36   R(34,35)                1.0862                                         !
 ! R37   R(34,37)                1.4074                                         !
 ! R38   R(36,37)                1.3425                                         !
 ! R39   R(38,39)                1.0201                                         !
 ! R40   R(38,40)                1.4934                                         !
 ! R41   R(40,41)                1.0969                                         !
 ! R42   R(40,42)                1.5421                                         !
 ! R43   R(40,43)                1.5356                                         !
 ! R44   R(42,46)                1.1968                                         !
 ! R45   R(42,60)                1.3726                                         !
 ! R46   R(43,44)                1.0964                                         !
 ! R47   R(43,45)                1.0942                                         !
 ! R48   R(43,47)                1.5486                                         !
 ! R49   R(47,48)                1.0968                                         !
 ! R50   R(47,49)                1.0956                                         !
 ! R51   R(47,50)                1.5425                                         !
 ! R52   R(50,51)                1.0971                                         !
 ! R53   R(50,52)                1.0988                                         !
 ! R54   R(50,53)                1.5347                                         !
 ! R55   R(53,54)                1.0968                                         !
 ! R56   R(53,55)                1.0998                                         !
 ! R57   R(53,56)                1.4787                                         !
 ! R58   R(56,57)                1.0205                                         !
 ! R59   R(56,58)                1.7837                                         !
 ! R60   R(56,59)                1.0201                                         !
 ! R61   R(60,61)                1.7197                                         !
 ! R62   R(60,62)                0.9794                                         !
 ! A1    A(2,1,3)              109.7776                                         !
 ! A2    A(2,1,4)              105.3507                                         !
 ! A3    A(2,1,5)              110.0559                                         !
 ! A4    A(3,1,4)              127.6958                                         !
 ! A5    A(3,1,5)               93.2211                                         !
 ! A6    A(4,1,5)              109.6948                                         !
 ! A7    A(1,5,6)              106.8112                                         !
 ! A8    A(1,5,7)              112.4018                                         !
 ! A9    A(1,5,8)              110.4426                                         !
 ! A10   A(6,5,7)              108.4036                                         !
 ! A11   A(6,5,8)              108.4209                                         !
 ! A12   A(7,5,8)              110.2059                                         !
 ! A13   A(5,7,11)             122.4846                                         !
 ! A14   A(5,7,18)             114.5094                                         !
 ! A15   A(11,7,18)            123.0051                                         !
 ! A16   A(5,8,9)              109.1063                                         !
 ! A17   A(5,8,10)             108.8376                                         !
 ! A18   A(5,8,12)             114.2562                                         !
 ! A19   A(9,8,10)             106.6756                                         !
 ! A20   A(9,8,12)             108.6572                                         !
 ! A21   A(10,8,12)            109.0386                                         !
 ! A22   A(8,12,13)            109.7999                                         !
 ! A23   A(8,12,14)            108.7665                                         !
 ! A24   A(8,12,15)            112.8039                                         !
 ! A25   A(13,12,14)           107.9915                                         !
 ! A26   A(13,12,15)           109.7514                                         !
 ! A27   A(14,12,15)           107.5866                                         !
 ! A28   A(12,15,16)           123.3706                                         !
 ! A29   A(12,15,17)           115.0273                                         !
 ! A30   A(16,15,17)           121.5741                                         !
 ! A31   A(7,18,19)            117.7138                                         !
 ! A32   A(7,18,20)            125.5044                                         !
 ! A33   A(19,18,20)           116.763                                          !
 ! A34   A(18,20,21)           106.6812                                         !
 ! A35   A(18,20,22)           112.053                                          !
 ! A36   A(18,20,23)           113.9986                                         !
 ! A37   A(21,20,22)           105.9316                                         !
 ! A38   A(21,20,23)           106.6542                                         !
 ! A39   A(22,20,23)           110.9447                                         !
 ! A40   A(20,22,26)           116.9973                                         !
 ! A41   A(20,22,38)           119.4411                                         !
 ! A42   A(26,22,38)           123.5505                                         !
 ! A43   A(20,23,24)           108.1434                                         !
 ! A44   A(20,23,25)           104.5084                                         !
 ! A45   A(20,23,27)           113.2346                                         !
 ! A46   A(24,23,25)           107.4381                                         !
 ! A47   A(24,23,27)           111.4112                                         !
 ! A48   A(25,23,27)           111.7058                                         !
 ! A49   A(23,27,28)           121.5142                                         !
 ! A50   A(23,27,30)           120.5936                                         !
 ! A51   A(28,27,30)           117.8528                                         !
 ! A52   A(27,28,29)           119.8265                                         !
 ! A53   A(27,28,32)           121.365                                          !
 ! A54   A(29,28,32)           118.7967                                         !
 ! A55   A(27,30,31)           119.4414                                         !
 ! A56   A(27,30,34)           121.4802                                         !
 ! A57   A(31,30,34)           119.0663                                         !
 ! A58   A(28,32,33)           121.2249                                         !
 ! A59   A(28,32,37)           120.2671                                         !
 ! A60   A(33,32,37)           118.502                                          !
 ! A61   A(30,34,35)           120.2745                                         !
 ! A62   A(30,34,37)           120.2165                                         !
 ! A63   A(35,34,37)           119.4916                                         !
 ! A64   A(32,37,34)           118.7828                                         !
 ! A65   A(32,37,36)           118.0557                                         !
 ! A66   A(34,37,36)           123.1599                                         !
 ! A67   A(22,38,39)           114.7666                                         !
 ! A68   A(22,38,40)           129.025                                          !
 ! A69   A(39,38,40)           114.1217                                         !
 ! A70   A(38,40,41)           107.2958                                         !
 ! A71   A(38,40,42)           110.3767                                         !
 ! A72   A(38,40,43)           109.8702                                         !
 ! A73   A(41,40,42)           108.4724                                         !
 ! A74   A(41,40,43)           110.8602                                         !
 ! A75   A(42,40,43)           109.9237                                         !
 ! A76   A(40,42,46)           126.5068                                         !
 ! A77   A(40,42,60)           110.3327                                         !
 ! A78   A(46,42,60)           123.1586                                         !
 ! A79   A(40,43,44)           108.6036                                         !
 ! A80   A(40,43,45)           107.8477                                         !
 ! A81   A(40,43,47)           111.8408                                         !
 ! A82   A(44,43,45)           107.9296                                         !
 ! A83   A(44,43,47)           109.6826                                         !
 ! A84   A(45,43,47)           110.8218                                         !
 ! A85   A(43,47,48)           109.811                                          !
 ! A86   A(43,47,49)           108.7274                                         !
 ! A87   A(43,47,50)           113.324                                          !
 ! A88   A(48,47,49)           104.9817                                         !
 ! A89   A(48,47,50)           110.1443                                         !
 ! A90   A(49,47,50)           109.507                                          !
 ! A91   A(47,50,51)           109.8393                                         !
 ! A92   A(47,50,52)           110.0274                                         !
 ! A93   A(47,50,53)           112.0287                                         !
 ! A94   A(51,50,52)           106.4962                                         !
 ! A95   A(51,50,53)           109.11                                           !
 ! A96   A(52,50,53)           109.1791                                         !
 ! A97   A(50,53,54)           110.3524                                         !
 ! A98   A(50,53,55)           108.7845                                         !
 ! A99   A(50,53,56)           111.5871                                         !
 ! A100  A(54,53,55)           106.9071                                         !
 ! A101  A(54,53,56)           106.6413                                         !
 ! A102  A(55,53,56)           112.4493                                         !
 ! A103  A(53,56,57)           109.6991                                         !
 ! A104  A(53,56,58)           103.4226                                         !
 ! A105  A(53,56,59)           110.5843                                         !
 ! A106  A(57,56,58)            98.4383                                         !
 ! A107  A(57,56,59)           105.7927                                         !
 ! A108  A(58,56,59)           127.6217                                         !
 ! A109  A(42,60,61)           107.3564                                         !
 ! A110  A(42,60,62)           109.0414                                         !
 ! A111  A(61,60,62)           128.6548                                         !
 ! D1    D(2,1,5,6)            -64.6341                                         !
 ! D2    D(2,1,5,7)             54.1339                                         !
 ! D3    D(2,1,5,8)            177.6618                                         !
 ! D4    D(3,1,5,6)             47.782                                          !
 ! D5    D(3,1,5,7)            166.55                                           !
 ! D6    D(3,1,5,8)            -69.9221                                         !
 ! D7    D(4,1,5,6)            179.898                                          !
 ! D8    D(4,1,5,7)            -61.334                                          !
 ! D9    D(4,1,5,8)             62.1939                                         !
 ! D10   D(1,5,7,11)            16.4773                                         !
 ! D11   D(1,5,7,18)          -163.8641                                         !
 ! D12   D(6,5,7,11)           134.3067                                         !
 ! D13   D(6,5,7,18)           -46.0348                                         !
 ! D14   D(8,5,7,11)          -107.1826                                         !
 ! D15   D(8,5,7,18)            72.476                                          !
 ! D16   D(1,5,8,9)            -75.106                                          !
 ! D17   D(1,5,8,10)           168.8507                                         !
 ! D18   D(1,5,8,12)            46.7258                                         !
 ! D19   D(6,5,8,9)            168.1841                                         !
 ! D20   D(6,5,8,10)            52.1409                                         !
 ! D21   D(6,5,8,12)           -69.9841                                         !
 ! D22   D(7,5,8,9)             49.6839                                         !
 ! D23   D(7,5,8,10)           -66.3593                                         !
 ! D24   D(7,5,8,12)           171.5157                                         !
 ! D25   D(5,7,18,19)            2.7162                                         !
 ! D26   D(5,7,18,20)         -175.6494                                         !
 ! D27   D(11,7,18,19)        -177.6273                                         !
 ! D28   D(11,7,18,20)           4.0071                                         !
 ! D29   D(5,8,12,13)          -71.0793                                         !
 ! D30   D(5,8,12,14)          170.9486                                         !
 ! D31   D(5,8,12,15)           51.6722                                         !
 ! D32   D(9,8,12,13)           50.9988                                         !
 ! D33   D(9,8,12,14)          -66.9733                                         !
 ! D34   D(9,8,12,15)          173.7502                                         !
 ! D35   D(10,8,12,13)         166.9058                                         !
 ! D36   D(10,8,12,14)          48.9337                                         !
 ! D37   D(10,8,12,15)         -70.3427                                         !
 ! D38   D(8,12,15,16)          99.87                                           !
 ! D39   D(8,12,15,17)         -78.2289                                         !
 ! D40   D(13,12,15,16)       -137.3514                                         !
 ! D41   D(13,12,15,17)         44.5497                                         !
 ! D42   D(14,12,15,16)        -20.088                                          !
 ! D43   D(14,12,15,17)        161.8132                                         !
 ! D44   D(7,18,20,21)         165.3844                                         !
 ! D45   D(7,18,20,22)         -79.1125                                         !
 ! D46   D(7,18,20,23)          47.939                                          !
 ! D47   D(19,18,20,21)        -12.9952                                         !
 ! D48   D(19,18,20,22)        102.508                                          !
 ! D49   D(19,18,20,23)       -130.4406                                         !
 ! D50   D(18,20,22,26)         29.3302                                         !
 ! D51   D(18,20,22,38)       -151.8383                                         !
 ! D52   D(21,20,22,26)        145.2884                                         !
 ! D53   D(21,20,22,38)        -35.8801                                         !
 ! D54   D(23,20,22,26)        -99.3463                                         !
 ! D55   D(23,20,22,38)         79.4853                                         !
 ! D56   D(18,20,23,24)        -58.8039                                         !
 ! D57   D(18,20,23,25)         55.4348                                         !
 ! D58   D(18,20,23,27)        177.2268                                         !
 ! D59   D(21,20,23,24)       -176.2649                                         !
 ! D60   D(21,20,23,25)        -62.0262                                         !
 ! D61   D(21,20,23,27)         59.7658                                         !
 ! D62   D(22,20,23,24)         68.8198                                         !
 ! D63   D(22,20,23,25)       -176.9415                                         !
 ! D64   D(22,20,23,27)        -55.1494                                         !
 ! D65   D(20,22,38,39)         -3.6999                                         !
 ! D66   D(20,22,38,40)       -166.1156                                         !
 ! D67   D(26,22,38,39)        175.0508                                         !
 ! D68   D(26,22,38,40)         12.6351                                         !
 ! D69   D(20,23,27,28)        -70.1016                                         !
 ! D70   D(20,23,27,30)        107.5642                                         !
 ! D71   D(24,23,27,28)        167.7342                                         !
 ! D72   D(24,23,27,30)        -14.6                                            !
 ! D73   D(25,23,27,28)         47.5656                                         !
 ! D74   D(25,23,27,30)       -134.7685                                         !
 ! D75   D(23,27,28,29)         -5.1207                                         !
 ! D76   D(23,27,28,32)        176.1421                                         !
 ! D77   D(30,27,28,29)        177.1518                                         !
 ! D78   D(30,27,28,32)         -1.5854                                         !
 ! D79   D(23,27,30,31)          4.6032                                         !
 ! D80   D(23,27,30,34)       -176.6735                                         !
 ! D81   D(28,27,30,31)       -177.6473                                         !
 ! D82   D(28,27,30,34)          1.076                                          !
 ! D83   D(27,28,32,33)        179.494                                          !
 ! D84   D(27,28,32,37)          0.3935                                         !
 ! D85   D(29,28,32,33)          0.7442                                         !
 ! D86   D(29,28,32,37)       -178.3564                                         !
 ! D87   D(27,30,34,35)       -177.851                                          !
 ! D88   D(27,30,34,37)          0.6234                                         !
 ! D89   D(31,30,34,35)          0.8769                                         !
 ! D90   D(31,30,34,37)        179.3514                                         !
 ! D91   D(28,32,37,34)          1.3243                                         !
 ! D92   D(28,32,37,36)       -179.1094                                         !
 ! D93   D(33,32,37,34)       -177.8005                                         !
 ! D94   D(33,32,37,36)          1.7658                                         !
 ! D95   D(30,34,37,32)         -1.8248                                         !
 ! D96   D(30,34,37,36)        178.6324                                         !
 ! D97   D(35,34,37,32)        176.6616                                         !
 ! D98   D(35,34,37,36)         -2.8812                                         !
 ! D99   D(22,38,40,41)         50.0618                                         !
 ! D100  D(22,38,40,42)        -67.9507                                         !
 ! D101  D(22,38,40,43)        170.6656                                         !
 ! D102  D(39,38,40,41)       -112.4465                                         !
 ! D103  D(39,38,40,42)        129.5409                                         !
 ! D104  D(39,38,40,43)          8.1573                                         !
 ! D105  D(38,40,42,46)       -103.6601                                         !
 ! D106  D(38,40,42,60)         76.8253                                         !
 ! D107  D(41,40,42,46)        139.0521                                         !
 ! D108  D(41,40,42,60)        -40.4625                                         !
 ! D109  D(43,40,42,46)         17.6918                                         !
 ! D110  D(43,40,42,60)       -161.8228                                         !
 ! D111  D(38,40,43,44)        -42.7532                                         !
 ! D112  D(38,40,43,45)         73.9664                                         !
 ! D113  D(38,40,43,47)       -163.9361                                         !
 ! D114  D(41,40,43,44)         75.6726                                         !
 ! D115  D(41,40,43,45)       -167.6078                                         !
 ! D116  D(41,40,43,47)        -45.5102                                         !
 ! D117  D(42,40,43,44)       -164.4079                                         !
 ! D118  D(42,40,43,45)        -47.6883                                         !
 ! D119  D(42,40,43,47)         74.4092                                         !
 ! D120  D(40,42,60,61)        -35.5407                                         !
 ! D121  D(40,42,60,62)       -178.6876                                         !
 ! D122  D(46,42,60,61)        144.9253                                         !
 ! D123  D(46,42,60,62)          1.7785                                         !
 ! D124  D(40,43,47,48)        -29.6092                                         !
 ! D125  D(40,43,47,49)       -143.956                                          !
 ! D126  D(40,43,47,50)         94.0292                                         !
 ! D127  D(44,43,47,48)       -150.1655                                         !
 ! D128  D(44,43,47,49)         95.4877                                         !
 ! D129  D(44,43,47,50)        -26.5271                                         !
 ! D130  D(45,43,47,48)         90.7675                                         !
 ! D131  D(45,43,47,49)        -23.5793                                         !
 ! D132  D(45,43,47,50)       -145.5941                                         !
 ! D133  D(43,47,50,51)       -152.771                                          !
 ! D134  D(43,47,50,52)        -35.8467                                         !
 ! D135  D(43,47,50,53)         85.8007                                         !
 ! D136  D(48,47,50,51)        -29.3154                                         !
 ! D137  D(48,47,50,52)         87.6089                                         !
 ! D138  D(48,47,50,53)       -150.7437                                         !
 ! D139  D(49,47,50,51)         85.6501                                         !
 ! D140  D(49,47,50,52)       -157.4256                                         !
 ! D141  D(49,47,50,53)        -35.7782                                         !
 ! D142  D(47,50,53,54)        -43.1529                                         !
 ! D143  D(47,50,53,55)         73.8352                                         !
 ! D144  D(47,50,53,56)       -161.5293                                         !
 ! D145  D(51,50,53,54)       -164.9998                                         !
 ! D146  D(51,50,53,55)        -48.0117                                         !
 ! D147  D(51,50,53,56)         76.6238                                         !
 ! D148  D(52,50,53,54)         78.98                                           !
 ! D149  D(52,50,53,55)       -164.0318                                         !
 ! D150  D(52,50,53,56)        -39.3964                                         !
 ! D151  D(50,53,56,57)       -163.054                                          !
 ! D152  D(50,53,56,58)         92.7235                                         !
 ! D153  D(50,53,56,59)        -46.7423                                         !
 ! D154  D(54,53,56,57)         76.3725                                         !
 ! D155  D(54,53,56,58)        -27.85                                           !
 ! D156  D(54,53,56,59)       -167.3158                                         !
 ! D157  D(55,53,56,57)        -40.4945                                         !
 ! D158  D(55,53,56,58)       -144.717                                          !
 ! D159  D(55,53,56,59)         75.8173                                         !
 --------------------------------------------------------------------------------
 Symmetry turned off by external request.
 Stoichiometry    C20H31N4O7(1+)
 Framework group  C1[X(C20H31N4O7)]
 Deg. of freedom   180
 Full point group                 C1      NOp   1
                          Input orientation:                          
 ---------------------------------------------------------------------
 Center     Atomic      Atomic             Coordinates (Angstroms)
 Number     Number       Type             X           Y           Z
 ---------------------------------------------------------------------
      1          7           0       -1.131172   -3.499701    3.945138
      2          1           0       -0.271516   -3.236683    4.425605
      3          1           0       -2.643331   -3.197969    5.101794
      4          1           0       -0.901971   -4.347860    3.426295
      5          6           0       -1.528250   -2.444281    3.013741
      6          1           0       -1.764856   -1.559267    3.618852
      7          6           0       -0.402188   -2.074516    2.031477
      8          6           0       -2.802130   -2.860255    2.235567
      9          1           0       -2.531369   -3.603005    1.473732
     10          1           0       -3.190348   -1.986524    1.699114
     11          8           0        0.568013   -2.791895    1.846182
     12          6           0       -3.923776   -3.447137    3.121423
     13          1           0       -3.632697   -4.440318    3.478906
     14          1           0       -4.827212   -3.557351    2.517420
     15          6           0       -4.270066   -2.549935    4.311920
     16          8           0       -5.220624   -1.805674    4.328265
     17          8           0       -3.405125   -2.615918    5.348201
     18          7           0       -0.585573   -0.871641    1.375325
     19          1           0       -1.400607   -0.323483    1.616942
     20          6           0        0.275805   -0.338187    0.340256
     21          1           0       -0.278686    0.473262   -0.142876
     22          6           0        1.536366    0.300972    0.916727
     23          6           0        0.635981   -1.373381   -0.789303
     24          1           0        1.131347   -2.225502   -0.323450
     25          1           0       -0.334097   -1.721139   -1.162518
     26          8           0        1.980043   -0.178633    2.034174
     27          6           0        1.478441   -0.781912   -1.891886
     28          6           0        0.949854    0.154182   -2.799867
     29          1           0       -0.110251    0.402786   -2.766138
     30          6           0        2.834492   -1.116501   -2.011280
     31          1           0        3.260970   -1.866121   -1.347492
     32          6           0        1.749557    0.757416   -3.766239
     33          1           0        1.337702    1.473147   -4.470743
     34          6           0        3.646396   -0.529418   -2.980022
     35          1           0        4.686014   -0.828588   -3.077836
     36          8           0        3.850476    1.054438   -4.796508
     37          6           0        3.116552    0.432635   -3.860018
     38          7           0        2.126466    1.279797    0.257987
     39          1           0        1.708029    1.499630   -0.645977
     40          6           0        3.487266    1.861567    0.458294
     41          1           0        4.197732    1.026444    0.488555
     42          6           0        3.557697    2.611993    1.803672
     43          6           0        3.819615    2.820753   -0.693934
     44          1           0        3.497809    2.360841   -1.635781
     45          1           0        3.235689    3.734629   -0.548541
     46          8           0        3.533380    3.798330    1.959314
     47          6           0        5.333636    3.139514   -0.759700
     48          1           0        5.769144    3.084212    0.245369
     49          1           0        5.460268    4.183698   -1.066172
     50          6           0        6.109651    2.221315   -1.726163
     51          1           0        7.154205    2.136888   -1.401499
     52          1           0        5.691118    1.205777   -1.697976
     53          6           0        6.072592    2.742043   -3.169371
     54          1           0        5.062957    3.085767   -3.425060
     55          1           0        6.737097    3.614808   -3.248122
     56          7           0        6.417019    1.680709   -4.139700
     57          1           0        6.658884    2.100890   -5.037634
     58          1           0        4.830818    0.999248   -4.588369
     59          1           0        7.249179    1.174346   -3.837002
     60          8           0        3.666395    1.720671    2.841832
     61          1           0        2.730245    0.337914    2.430933
     62          1           0        3.688485    2.215457    3.686802
 ---------------------------------------------------------------------
 Rotational constants (GHZ):           0.2669747           0.0601499           0.0530208
 Standard basis: 6-31G(d) (6D, 7F)
   527 basis functions,   992 primitive gaussians,   527 cartesian basis functions
   117 alpha electrons      117 beta electrons
       nuclear repulsion energy      3233.9263866680 Hartrees.
 NAtoms=   62 NActive=   62 NUniq=   62 SFac= 1.00D+00 NAtFMM=   60 NAOKFM=T Big=T
 Integral buffers will be    131072 words long.
 Raffenetti 2 integral format.
 Two-electron integral symmetry is turned off.
 One-electron integrals computed using PRISM.
 NBasis=   527 RedAO= T EigKep=  4.34D-04  NBF=   527
 NBsUse=   527 1.00D-06 EigRej= -1.00D+00 NBFU=   527
 Initial guess from the checkpoint file:  "conf-962.chk"
 B after Tr=     0.000000    0.000000    0.000000
         Rot=    1.000000    0.000000    0.000000    0.000000 Ang=   0.00 deg.
 Requested convergence on RMS density matrix=1.00D-08 within 128 cycles.
 Requested convergence on MAX density matrix=1.00D-06.
 Requested convergence on             energy=1.00D-06.
 No special actions if energy rises.
 SCF Done:  E(RB3LYP) =  -1526.17820250     A.U. after    1 cycles
            NFock=  1  Conv=0.31D-08     -V/T= 2.0093

 **********************************************************************

            Population analysis using the SCF Density.

 **********************************************************************

 Alpha  occ. eigenvalues --  -19.38299 -19.37519 -19.31081 -19.25113 -19.23895
 Alpha  occ. eigenvalues --  -19.23504 -19.18395 -14.57345 -14.49616 -14.44534
 Alpha  occ. eigenvalues --  -14.43504 -10.50477 -10.49011 -10.41712 -10.40793
 Alpha  occ. eigenvalues --  -10.40318 -10.37080 -10.35264 -10.33654 -10.33406
 Alpha  occ. eigenvalues --  -10.32298 -10.32193 -10.31425 -10.30534 -10.30411
 Alpha  occ. eigenvalues --  -10.30284 -10.30278 -10.29862 -10.29371 -10.29177
 Alpha  occ. eigenvalues --  -10.27504  -1.29143  -1.27250  -1.19010  -1.15938
 Alpha  occ. eigenvalues --   -1.14448  -1.14024  -1.13947  -1.06470  -1.06264
 Alpha  occ. eigenvalues --   -1.00422  -1.00365  -0.97333  -0.96224  -0.92219
 Alpha  occ. eigenvalues --   -0.89680  -0.87917  -0.86252  -0.85581  -0.83816
 Alpha  occ. eigenvalues --   -0.82611  -0.80214  -0.79364  -0.77631  -0.75459
 Alpha  occ. eigenvalues --   -0.74725  -0.72666  -0.72380  -0.70621  -0.70241
 Alpha  occ. eigenvalues --   -0.69822  -0.68202  -0.67899  -0.65847  -0.65286
 Alpha  occ. eigenvalues --   -0.65045  -0.64316  -0.63127  -0.62262  -0.61229
 Alpha  occ. eigenvalues --   -0.60459  -0.59594  -0.59545  -0.59060  -0.58631
 Alpha  occ. eigenvalues --   -0.58369  -0.57865  -0.57481  -0.57049  -0.55805
 Alpha  occ. eigenvalues --   -0.54834  -0.54514  -0.54123  -0.53651  -0.53106
 Alpha  occ. eigenvalues --   -0.52821  -0.52300  -0.52199  -0.51801  -0.51361
 Alpha  occ. eigenvalues --   -0.50369  -0.50188  -0.50086  -0.49538  -0.49256
 Alpha  occ. eigenvalues --   -0.48777  -0.48521  -0.47698  -0.46658  -0.46480
 Alpha  occ. eigenvalues --   -0.46004  -0.45618  -0.45021  -0.44957  -0.44067
 Alpha  occ. eigenvalues --   -0.44018  -0.43707  -0.42477  -0.41978  -0.39082
 Alpha  occ. eigenvalues --   -0.37938  -0.36977  -0.36360  -0.36163  -0.35897
 Alpha  occ. eigenvalues --   -0.32030  -0.32000
 Alpha virt. eigenvalues --   -0.19482  -0.16765  -0.11947  -0.10422  -0.10055
 Alpha virt. eigenvalues --   -0.08735  -0.06907  -0.05329  -0.04608  -0.04361
 Alpha virt. eigenvalues --   -0.03048  -0.02344  -0.01748  -0.01499  -0.00821
 Alpha virt. eigenvalues --   -0.00210   0.00721   0.01379   0.01505   0.02391
 Alpha virt. eigenvalues --    0.02642   0.02837   0.03305   0.03643   0.04349
 Alpha virt. eigenvalues --    0.04412   0.04600   0.05392   0.05807   0.06173
 Alpha virt. eigenvalues --    0.07171   0.07273   0.07403   0.07624   0.08182
 Alpha virt. eigenvalues --    0.08346   0.08481   0.08733   0.09315   0.09590
 Alpha virt. eigenvalues --    0.09983   0.10578   0.11331   0.11807   0.11997
 Alpha virt. eigenvalues --    0.12433   0.12759   0.13475   0.14026   0.15732
 Alpha virt. eigenvalues --    0.16411   0.16627   0.16858   0.17217   0.17556
 Alpha virt. eigenvalues --    0.18067   0.19204   0.19547   0.21337   0.23451
 Alpha virt. eigenvalues --    0.24006   0.24766   0.26353   0.27349   0.28228
 Alpha virt. eigenvalues --    0.29683   0.30385   0.31059   0.32794   0.36685
 Alpha virt. eigenvalues --    0.37117   0.37637   0.38004   0.39001   0.40262
 Alpha virt. eigenvalues --    0.40593   0.41802   0.42074   0.42863   0.43375
 Alpha virt. eigenvalues --    0.43791   0.43936   0.44486   0.45051   0.45449
 Alpha virt. eigenvalues --    0.45804   0.47032   0.47259   0.47568   0.47797
 Alpha virt. eigenvalues --    0.48421   0.50305   0.50405   0.50869   0.51351
 Alpha virt. eigenvalues --    0.51485   0.51733   0.52195   0.52672   0.52891
 Alpha virt. eigenvalues --    0.53605   0.54534   0.54544   0.54878   0.55337
 Alpha virt. eigenvalues --    0.55669   0.56320   0.56680   0.58158   0.58698
 Alpha virt. eigenvalues --    0.59059   0.59765   0.60470   0.61468   0.62910
 Alpha virt. eigenvalues --    0.63902   0.63952   0.64315   0.64786   0.65504
 Alpha virt. eigenvalues --    0.66151   0.66698   0.67468   0.67998   0.68096
 Alpha virt. eigenvalues --    0.68520   0.69644   0.69816   0.70580   0.71152
 Alpha virt. eigenvalues --    0.71819   0.72454   0.72719   0.73188   0.73503
 Alpha virt. eigenvalues --    0.74079   0.74631   0.75221   0.75326   0.76252
 Alpha virt. eigenvalues --    0.76578   0.76987   0.77022   0.77550   0.78187
 Alpha virt. eigenvalues --    0.78429   0.78844   0.79351   0.79663   0.80149
 Alpha virt. eigenvalues --    0.80380   0.80903   0.81074   0.81610   0.82443
 Alpha virt. eigenvalues --    0.83039   0.83464   0.84156   0.84340   0.84584
 Alpha virt. eigenvalues --    0.84742   0.85755   0.86728   0.86779   0.87515
 Alpha virt. eigenvalues --    0.88216   0.88824   0.88895   0.89872   0.90243
 Alpha virt. eigenvalues --    0.90592   0.91467   0.91943   0.93250   0.94772
 Alpha virt. eigenvalues --    0.95220   0.96051   0.96849   0.98012   0.98322
 Alpha virt. eigenvalues --    0.98798   1.01829   1.02181   1.02788   1.04075
 Alpha virt. eigenvalues --    1.04445   1.05307   1.06207   1.07108   1.08618
 Alpha virt. eigenvalues --    1.08985   1.09574   1.10673   1.11224   1.12426
 Alpha virt. eigenvalues --    1.13124   1.13926   1.14712   1.17101   1.17799
 Alpha virt. eigenvalues --    1.18875   1.19490   1.20850   1.22194   1.23391
 Alpha virt. eigenvalues --    1.24754   1.25464   1.27174   1.27850   1.28632
 Alpha virt. eigenvalues --    1.30233   1.31207   1.32798   1.33135   1.33817
 Alpha virt. eigenvalues --    1.34941   1.35591   1.35875   1.36833   1.37819
 Alpha virt. eigenvalues --    1.38333   1.38608   1.39357   1.40078   1.40735
 Alpha virt. eigenvalues --    1.41333   1.43229   1.44411   1.45117   1.46073
 Alpha virt. eigenvalues --    1.48611   1.49579   1.51081   1.51536   1.52346
 Alpha virt. eigenvalues --    1.52703   1.55141   1.56159   1.56886   1.58871
 Alpha virt. eigenvalues --    1.59160   1.59935   1.60687   1.62178   1.62998
 Alpha virt. eigenvalues --    1.64350   1.65940   1.66399   1.67093   1.67867
 Alpha virt. eigenvalues --    1.68423   1.68615   1.69314   1.70266   1.70602
 Alpha virt. eigenvalues --    1.71614   1.71988   1.72129   1.72922   1.73132
 Alpha virt. eigenvalues --    1.74080   1.74980   1.76026   1.76080   1.77659
 Alpha virt. eigenvalues --    1.77913   1.78342   1.78474   1.79564   1.80187
 Alpha virt. eigenvalues --    1.80546   1.81362   1.81697   1.83097   1.83397
 Alpha virt. eigenvalues --    1.83872   1.84316   1.85223   1.85628   1.86180
 Alpha virt. eigenvalues --    1.86852   1.86983   1.87779   1.88523   1.89286
 Alpha virt. eigenvalues --    1.91264   1.92148   1.93411   1.93997   1.94874
 Alpha virt. eigenvalues --    1.95221   1.95997   1.96577   1.97708   1.98602
 Alpha virt. eigenvalues --    2.00369   2.01109   2.02508   2.02931   2.03443
 Alpha virt. eigenvalues --    2.04102   2.04504   2.05937   2.07301   2.10372
 Alpha virt. eigenvalues --    2.11078   2.12542   2.13300   2.13828   2.14806
 Alpha virt. eigenvalues --    2.15669   2.17794   2.18803   2.19165   2.20776
 Alpha virt. eigenvalues --    2.21379   2.22390   2.22803   2.24005   2.25995
 Alpha virt. eigenvalues --    2.26891   2.27491   2.27743   2.28873   2.30129
 Alpha virt. eigenvalues --    2.30841   2.31516   2.32947   2.34372   2.35046
 Alpha virt. eigenvalues --    2.35836   2.37213   2.37518   2.39297   2.39681
 Alpha virt. eigenvalues --    2.40612   2.42253   2.42971   2.44928   2.46005
 Alpha virt. eigenvalues --    2.47449   2.47597   2.48581   2.49601   2.51371
 Alpha virt. eigenvalues --    2.51637   2.51995   2.55116   2.55808   2.56659
 Alpha virt. eigenvalues --    2.57607   2.58014   2.59436   2.60860   2.61931
 Alpha virt. eigenvalues --    2.63794   2.65191   2.66415   2.68041   2.68872
 Alpha virt. eigenvalues --    2.69367   2.69628   2.71199   2.73647   2.78606
 Alpha virt. eigenvalues --    2.79308   2.80405   2.83529   2.84077   2.85292
 Alpha virt. eigenvalues --    2.89235   2.91639   2.92849   2.93657   2.98078
 Alpha virt. eigenvalues --    3.01522   3.02425   3.04260   3.30289   3.73821
 Alpha virt. eigenvalues --    3.75219   3.77243   3.80974   3.87551   3.89680
 Alpha virt. eigenvalues --    3.94748   3.98811   4.00971   4.03226   4.04142
 Alpha virt. eigenvalues --    4.04695   4.05872   4.06252   4.14345   4.16250
 Alpha virt. eigenvalues --    4.17352   4.19510   4.22905   4.24347   4.26021
 Alpha virt. eigenvalues --    4.27439   4.35153   4.38190   4.39105   4.41251
 Alpha virt. eigenvalues --    4.45018   4.49854   4.51631   4.60023   4.66269
          Condensed to atoms (all electrons):
 Mulliken charges:
               1
     1  N   -0.736145
     2  H    0.331269
     3  H    0.442937
     4  H    0.334304
     5  C   -0.100455
     6  H    0.177373
     7  C    0.616463
     8  C   -0.282491
     9  H    0.164816
    10  H    0.155516
    11  O   -0.504695
    12  C   -0.361944
    13  H    0.171491
    14  H    0.189913
    15  C    0.576289
    16  O   -0.442058
    17  O   -0.589823
    18  N   -0.619983
    19  H    0.354741
    20  C   -0.064627
    21  H    0.190241
    22  C    0.650774
    23  C   -0.368692
    24  H    0.224547
    25  H    0.192269
    26  O   -0.533750
    27  C    0.128693
    28  C   -0.230982
    29  H    0.143166
    30  C   -0.208058
    31  H    0.147241
    32  C   -0.167268
    33  H    0.166261
    34  C   -0.199706
    35  H    0.152467
    36  O   -0.671790
    37  C    0.364347
    38  N   -0.574293
    39  H    0.396290
    40  C   -0.063492
    41  H    0.220433
    42  C    0.616480
    43  C   -0.326834
    44  H    0.183481
    45  H    0.198050
    46  O   -0.380602
    47  C   -0.284172
    48  H    0.153845
    49  H    0.181353
    50  C   -0.290211
    51  H    0.162442
    52  H    0.145565
    53  C   -0.138177
    54  H    0.163948
    55  H    0.161359
    56  N   -0.778736
    57  H    0.342661
    58  H    0.461822
    59  H    0.329034
    60  O   -0.611875
    61  H    0.481962
    62  H    0.457016
 Sum of Mulliken charges =   1.00000
 Mulliken charges with hydrogens summed into heavy atoms:
               1
     1  N   -0.070572
     5  C    0.076918
     7  C    0.616463
     8  C    0.037841
    11  O   -0.504695
    12  C   -0.000540
    15  C    0.576289
    16  O   -0.442058
    17  O   -0.146886
    18  N   -0.265242
    20  C    0.125615
    22  C    0.650774
    23  C    0.048124
    26  O   -0.051789
    27  C    0.128693
    28  C   -0.087816
    30  C   -0.060816
    32  C   -0.001007
    34  C   -0.047239
    36  O   -0.209968
    37  C    0.364347
    38  N   -0.178003
    40  C    0.156940
    42  C    0.616480
    43  C    0.054697
    46  O   -0.380602
    47  C    0.051026
    50  C    0.017796
    53  C    0.187129
    56  N   -0.107041
    60  O   -0.154859
 Electronic spatial extent (au):  <R**2>=          21366.0417
 Charge=              1.0000 electrons
 Dipole moment (field-independent basis, Debye):
    X=             17.9606    Y=              4.2463    Z=             -1.1067  Tot=             18.4889
 Quadrupole moment (field-independent basis, Debye-Ang):
   XX=           -109.9400   YY=           -156.4561   ZZ=           -169.5105
   XY=             33.2797   XZ=              7.2724   YZ=             -9.8454
 Traceless Quadrupole moment (field-independent basis, Debye-Ang):
   XX=             35.3622   YY=            -11.1539   ZZ=            -24.2083
   XY=             33.2797   XZ=              7.2724   YZ=             -9.8454
 Octapole moment (field-independent basis, Debye-Ang**2):
  XXX=            -56.6674  YYY=            -23.3898  ZZZ=           -197.4501  XYY=           -245.6306
  XXY=            192.6445  XXZ=           -364.0321  XZZ=             40.4677  YZZ=             79.5663
  YYZ=            -24.2776  XYZ=            -56.9083
 Hexadecapole moment (field-independent basis, Debye-Ang**3):
 XXXX=         -10211.6982 YYYY=          -4884.7089 ZZZZ=          -9040.8896 XXXY=          -2023.5675
 XXXZ=           2372.6263 YYYX=          -2685.8295 YYYZ=           1282.8612 ZZZX=           3795.2218
 ZZZY=           1718.5925 XXYY=          -2568.4703 XXZZ=          -3201.2318 YYZZ=          -2014.9036
 XXYZ=            299.7422 YYXZ=            799.7669 ZZXY=           -768.5972
 N-N= 3.233926386668D+03 E-N=-9.998599505388D+03  KE= 1.512098007143D+03
 Unable to Open any file for archive entry.
 1\1\GINC-SKL-154\SP\RB3LYP\6-31G(d)\C20H31N4O7(1+)\KENGMITH\24-May-202
 2\0\\# B3LYP/6-31G* guess=read geom=check nosymm integral(ultrafinegri
 d)\\Candidate Structure: Conf:962 Charge calc in gas phase\\1,1\N,0,-1
 .1311718081,-3.499701144,3.9451379962\H,0,-0.2715163984,-3.2366832202,
 4.4256050354\H,0,-2.6433305923,-3.1979686014,5.1017944451\H,0,-0.90197
 06711,-4.3478601852,3.4262948008\C,0,-1.5282502281,-2.4442812707,3.013
 7405263\H,0,-1.764856158,-1.5592668157,3.6188518319\C,0,-0.4021875889,
 -2.0745159526,2.0314769003\C,0,-2.8021304979,-2.8602545049,2.235567436
 9\H,0,-2.5313686918,-3.6030049992,1.4737317238\H,0,-3.1903476546,-1.98
 652381,1.6991138965\O,0,0.5680129157,-2.7918953705,1.8461820878\C,0,-3
 .9237760859,-3.4471365492,3.1214229032\H,0,-3.632697483,-4.440317813,3
 .4789059277\H,0,-4.8272119509,-3.5573514769,2.5174196231\C,0,-4.270065
 5919,-2.5499347073,4.3119202904\O,0,-5.2206240491,-1.8056735169,4.3282
 646006\O,0,-3.4051254926,-2.615917714,5.3482014807\N,0,-0.5855733799,-
 0.8716414318,1.3753250955\H,0,-1.4006067862,-0.323483443,1.6169421206\
 C,0,0.2758053187,-0.3381866334,0.3402561888\H,0,-0.2786858882,0.473261
 5126,-0.1428755842\C,0,1.5363664438,0.3009717292,0.9167274279\C,0,0.63
 59808182,-1.3733805367,-0.7893028445\H,0,1.1313470707,-2.2255024059,-0
 .3234497552\H,0,-0.3340971829,-1.721138546,-1.162518239\O,0,1.98004333
 78,-0.1786331715,2.0341740896\C,0,1.4784407643,-0.7819117119,-1.891886
 3227\C,0,0.9498543047,0.154181686,-2.7998668401\H,0,-0.1102513662,0.40
 27858515,-2.7661378159\C,0,2.8344918332,-1.1165012308,-2.0112795489\H,
 0,3.2609696595,-1.8661209509,-1.3474922957\C,0,1.7495573024,0.75741569
 5,-3.7662394992\H,0,1.3377024499,1.4731470698,-4.470742631\C,0,3.64639
 61892,-0.5294177063,-2.9800222889\H,0,4.6860138416,-0.8285878426,-3.07
 78356116\O,0,3.8504755273,1.0544380062,-4.7965084124\C,0,3.1165516809,
 0.4326354439,-3.8600184081\N,0,2.1264660519,1.2797973587,0.2579869876\
 H,0,1.7080293576,1.4996295132,-0.6459770197\C,0,3.4872661288,1.8615667
 475,0.458294219\H,0,4.197732132,1.0264441806,0.4885554429\C,0,3.557697
 1671,2.6119931754,1.8036719796\C,0,3.8196151269,2.8207526673,-0.693934
 0959\H,0,3.4978094995,2.3608412195,-1.6357814833\H,0,3.2356888332,3.73
 46292745,-0.5485411273\O,0,3.5333801364,3.7983303529,1.9593142514\C,0,
 5.3336356954,3.139514444,-0.7597002428\H,0,5.7691438763,3.0842120334,0
 .2453691586\H,0,5.4602680293,4.18369815,-1.0661722595\C,0,6.1096507272
 ,2.2213148801,-1.7261625484\H,0,7.1542052004,2.1368881728,-1.401499018
 \H,0,5.6911179461,1.2057772289,-1.6979759512\C,0,6.0725915101,2.742043
 3457,-3.1693708247\H,0,5.0629568463,3.0857669373,-3.4250604704\H,0,6.7
 370968125,3.6148082509,-3.2481215522\N,0,6.4170193276,1.6807086756,-4.
 1396997229\H,0,6.6588839959,2.1008899803,-5.0376337866\H,0,4.830818482
 3,0.999248073,-4.5883686324\H,0,7.2491787236,1.1743460319,-3.837001929
 \O,0,3.6663947834,1.7206710624,2.8418315978\H,0,2.7302447895,0.3379144
 553,2.4309325014\H,0,3.6884851787,2.2154565172,3.6868016042\\Version=E
 S64L-G16RevC.01\HF=-1526.1782025\RMSD=3.118e-09\Dipole=4.3335,1.807717
 2,-1.0390035\Quadrupole=26.2909288,-8.2926637,-17.998265,24.7426706,5.
 4068522,-7.3197772\PG=C01 [X(C20H31N4O7)]\\@
 The archive entry for this job was punched.


 TRUST EVERYONE, BUT CUT THE CARDS.
 Job cpu time:       0 days  0 hours  1 minutes  2.5 seconds.
 Elapsed time:       0 days  0 hours  0 minutes 16.1 seconds.
 File lengths (MBytes):  RWF=    264 Int=      0 D2E=      0 Chk=     40 Scr=     16
 Normal termination of Gaussian 16 at Tue May 24 03:25:41 2022.
