 Entering Gaussian System, Link 0=/opt/software/Gaussian/g16-AVX2-C.01/g16/g16
 Input=charge-conf-288.com
 Output=charge-conf-288.log
 Initial command:
 /opt/software/Gaussian/g16-AVX2-C.01/g16/l1.exe "/mnt/gs18/scratch/users/kengmith/Gau-46633.inp" -scrdir="/mnt/gs18/scratch/users/kengmith/"
 Entering Link 1 = /opt/software/Gaussian/g16-AVX2-C.01/g16/l1.exe PID=     46643.
  
 Copyright (c) 1988-2019, Gaussian, Inc.  All Rights Reserved.
  
 This is part of the Gaussian(R) 16 program.  It is based on
 the Gaussian(R) 09 system (copyright 2009, Gaussian, Inc.),
 the Gaussian(R) 03 system (copyright 2003, Gaussian, Inc.),
 the Gaussian(R) 98 system (copyright 1998, Gaussian, Inc.),
 the Gaussian(R) 94 system (copyright 1995, Gaussian, Inc.),
 the Gaussian 92(TM) system (copyright 1992, Gaussian, Inc.),
 the Gaussian 90(TM) system (copyright 1990, Gaussian, Inc.),
 the Gaussian 88(TM) system (copyright 1988, Gaussian, Inc.),
 the Gaussian 86(TM) system (copyright 1986, Carnegie Mellon
 University), and the Gaussian 82(TM) system (copyright 1983,
 Carnegie Mellon University). Gaussian is a federally registered
 trademark of Gaussian, Inc.
  
 This software contains proprietary and confidential information,
 including trade secrets, belonging to Gaussian, Inc.
  
 This software is provided under written license and may be
 used, copied, transmitted, or stored only in accord with that
 written license.
  
 The following legend is applicable only to US Government
 contracts under FAR:
  
                    RESTRICTED RIGHTS LEGEND
  
 Use, reproduction and disclosure by the US Government is
 subject to restrictions as set forth in subparagraphs (a)
 and (c) of the Commercial Computer Software - Restricted
 Rights clause in FAR 52.227-19.
  
 Gaussian, Inc.
 340 Quinnipiac St., Bldg. 40, Wallingford CT 06492
  
  
 ---------------------------------------------------------------
 Warning -- This program may not be used in any manner that
 competes with the business of Gaussian, Inc. or will provide
 assistance to any competitor of Gaussian, Inc.  The licensee
 of this program is prohibited from giving any competitor of
 Gaussian, Inc. access to this program.  By using this program,
 the user acknowledges that Gaussian, Inc. is engaged in the
 business of creating and licensing software in the field of
 computational chemistry and represents and warrants to the
 licensee that it is not a competitor of Gaussian, Inc. and that
 it will not use this program in any manner prohibited above.
 ---------------------------------------------------------------
  

 Cite this work as:
 Gaussian 16, Revision C.01,
 M. J. Frisch, G. W. Trucks, H. B. Schlegel, G. E. Scuseria, 
 M. A. Robb, J. R. Cheeseman, G. Scalmani, V. Barone, 
 G. A. Petersson, H. Nakatsuji, X. Li, M. Caricato, A. V. Marenich, 
 J. Bloino, B. G. Janesko, R. Gomperts, B. Mennucci, H. P. Hratchian, 
 J. V. Ortiz, A. F. Izmaylov, J. L. Sonnenberg, D. Williams-Young, 
 F. Ding, F. Lipparini, F. Egidi, J. Goings, B. Peng, A. Petrone, 
 T. Henderson, D. Ranasinghe, V. G. Zakrzewski, J. Gao, N. Rega, 
 G. Zheng, W. Liang, M. Hada, M. Ehara, K. Toyota, R. Fukuda, 
 J. Hasegawa, M. Ishida, T. Nakajima, Y. Honda, O. Kitao, H. Nakai, 
 T. Vreven, K. Throssell, J. A. Montgomery, Jr., J. E. Peralta, 
 F. Ogliaro, M. J. Bearpark, J. J. Heyd, E. N. Brothers, K. N. Kudin, 
 V. N. Staroverov, T. A. Keith, R. Kobayashi, J. Normand, 
 K. Raghavachari, A. P. Rendell, J. C. Burant, S. S. Iyengar, 
 J. Tomasi, M. Cossi, J. M. Millam, M. Klene, C. Adamo, R. Cammi, 
 J. W. Ochterski, R. L. Martin, K. Morokuma, O. Farkas, 
 J. B. Foresman, and D. J. Fox, Gaussian, Inc., Wallingford CT, 2019.
 
 ******************************************
 Gaussian 16:  ES64L-G16RevC.01  3-Jul-2019
                 1-Jun-2022 
 ******************************************
 %mem=8gb
 %nproc=4
 Will use up to    4 processors via shared memory.
 %chk=conf-288.chk
 ----------------------------------------------------------------------
 # B3LYP/6-31G* empiricaldispersion=gd3 guess=read geom=check nosymm in
 tegral(ultrafinegrid)
 ----------------------------------------------------------------------
 1/29=2,38=1,172=1/1;
 2/12=2,15=1,40=1/2;
 3/5=1,6=6,7=1,11=2,14=-4,25=1,30=1,74=-5,75=-5,116=-2,124=31/1,2,3;
 4/5=1/1;
 5/5=2,38=6/2;
 6/7=2,8=2,9=2,10=2,28=1/1;
 99/5=1,9=1/99;
 ------------------------------------------------------
 Candidate Structure: Conf:288 Charge calc in gas phase
 ------------------------------------------------------
 Structure from the checkpoint file:  "conf-288.chk"
 Charge =  1 Multiplicity = 1
 Redundant internal coordinates found in file.  (old form).
 N,0,1.1300191507,-2.0867742038,-3.4511907737
 H,0,2.1123974278,-1.5349165373,-3.5223500172
 H,0,1.2887442252,-2.8468001858,-2.766450772
 H,0,0.9160431123,-2.4884154927,-4.3668602854
 C,0,-0.0211816989,-1.3037674604,-2.8989455266
 H,0,0.0494534323,-0.2863068729,-3.2940995108
 C,0,0.2056833872,-1.3464681767,-1.3622465522
 C,0,-1.3521618662,-1.9567895175,-3.3065352986
 H,0,-1.3859290776,-2.9703076609,-2.8877747111
 H,0,-1.3854320282,-2.049835817,-4.3980648516
 O,0,0.7772402567,-2.3266378652,-0.9009601652
 C,0,-2.5777414247,-1.1567771639,-2.8403070532
 H,0,-2.621583297,-1.0811305428,-1.7521561757
 H,0,-2.532559961,-0.1374551896,-3.2504077299
 C,0,-3.8987822217,-1.7595516301,-3.2904961813
 O,0,-4.8753572246,-1.8705845239,-2.5920003267
 O,0,-3.8541811814,-2.1365490575,-4.5918190299
 N,0,-0.2953932678,-0.2953102304,-0.6672764668
 H,0,-0.6627378295,0.4606274334,-1.2310295272
 C,0,0.1290904744,0.1184754809,0.6978421989
 H,0,-0.5619316276,0.9225407647,0.9689286723
 C,0,1.5560277295,0.669580895,0.5013080491
 C,0,0.0593145417,-0.9937483124,1.7433663494
 H,0,0.7097468239,-1.8095157333,1.424489998
 H,0,-0.969958181,-1.3753524815,1.7647587866
 O,0,2.5141123572,-0.0863058652,0.4028873065
 C,0,0.4769156287,-0.5287048887,3.1538261696
 H,0,1.5309786699,-0.2205945711,3.1016942609
 C,0,-0.3498702224,0.6604754957,3.6669175939
 H,0,-1.4233718744,0.4314585253,3.6472429548
 H,0,-0.0813489715,0.8987305364,4.7015094697
 H,0,-0.1857927135,1.5725217773,3.0791385209
 C,0,0.3817369821,-1.7145241693,4.1244534452
 H,0,-0.6568473268,-2.0547761644,4.2246539822
 H,0,0.9820992307,-2.56285637,3.7770438732
 H,0,0.7383573342,-1.4339049179,5.1213283911
 N,0,1.6369820162,2.0133758441,0.2637238012
 H,0,0.8636643893,2.6229605221,0.4908730386
 C,0,2.8682994766,2.5981151893,-0.2463202703
 H,0,3.6601136204,1.8860739244,0.0072737568
 C,0,3.239671043,3.9216961232,0.4056934731
 C,0,2.8528994045,2.7703203781,-1.7900586333
 H,0,3.8887835141,2.9169208682,-2.1116589583
 H,0,2.307880931,3.6834718815,-2.0627579341
 O,0,4.2182530644,4.5543772084,0.0877377764
 C,0,2.2240573514,1.5624166336,-2.4983912477
 H,0,2.5340642437,0.6356621274,-2.0066466066
 H,0,1.1328039286,1.6237619513,-2.4035950634
 C,0,2.5724268935,1.4639566689,-3.988114126
 H,0,2.4374007897,2.431311869,-4.481347927
 H,0,1.9009843352,0.7552488514,-4.4936818836
 N,0,3.9590293553,1.065837163,-4.2005418105
 H,0,4.5248150082,1.6351141755,-4.8132944985
 N,0,5.7760239854,-0.3417255567,-4.1229176818
 H,0,6.1841612927,-1.236940454,-3.8918572636
 H,0,6.3740824451,0.4487176713,-3.9184159217
 N,0,3.6196084862,-1.1555737633,-3.5702244458
 H,0,4.1428931872,-1.9698424967,-3.2540580877
 C,0,4.4216120913,-0.1905050636,-3.9371946711
 O,0,2.3495160722,4.3231752803,1.3413058552
 H,0,2.6700426869,5.1769650356,1.6915680187
 H,0,-4.7356522611,-2.4925241089,-4.8159603266
 Recover connectivity data from disk.
                           ----------------------------
                           !    Current Parameters    !
                           ! (Angstroms and Degrees)  !
 --------------------------                            --------------------------
 ! Name  Definition              Value                                          !
 --------------------------------------------------------------------------------
 ! R1    R(1,2)                  1.129                                          !
 ! R2    R(1,3)                  1.0352                                         !
 ! R3    R(1,4)                  1.0225                                         !
 ! R4    R(1,5)                  1.4978                                         !
 ! R5    R(5,6)                  1.0938                                         !
 ! R6    R(5,7)                  1.5539                                         !
 ! R7    R(5,8)                  1.5376                                         !
 ! R8    R(7,11)                 1.2248                                         !
 ! R9    R(7,18)                 1.3561                                         !
 ! R10   R(8,9)                  1.0971                                         !
 ! R11   R(8,10)                 1.096                                          !
 ! R12   R(8,12)                 1.536                                          !
 ! R13   R(12,13)                1.0917                                         !
 ! R14   R(12,14)                1.0997                                         !
 ! R15   R(12,15)                1.5202                                         !
 ! R16   R(15,16)                1.2058                                         !
 ! R17   R(15,17)                1.3556                                         !
 ! R18   R(17,62)                0.9767                                         !
 ! R19   R(18,19)                1.012                                          !
 ! R20   R(18,20)                1.4883                                         !
 ! R21   R(20,21)                1.0943                                         !
 ! R22   R(20,22)                1.5422                                         !
 ! R23   R(20,23)                1.5281                                         !
 ! R24   R(22,26)                1.2243                                         !
 ! R25   R(22,37)                1.367                                          !
 ! R26   R(23,24)                1.091                                          !
 ! R27   R(23,25)                1.0979                                         !
 ! R28   R(23,27)                1.5427                                         !
 ! R29   R(27,28)                1.0994                                         !
 ! R30   R(27,29)                1.5366                                         !
 ! R31   R(27,33)                1.5354                                         !
 ! R32   R(29,30)                1.0978                                         !
 ! R33   R(29,31)                1.0951                                         !
 ! R34   R(29,32)                1.0974                                         !
 ! R35   R(33,34)                1.0975                                         !
 ! R36   R(33,35)                1.0958                                         !
 ! R37   R(33,36)                1.0953                                         !
 ! R38   R(37,38)                1.0105                                         !
 ! R39   R(37,39)                1.4554                                         !
 ! R40   R(39,40)                1.0947                                         !
 ! R41   R(39,41)                1.5215                                         !
 ! R42   R(39,42)                1.5534                                         !
 ! R43   R(41,45)                1.2079                                         !
 ! R44   R(41,60)                1.3524                                         !
 ! R45   R(42,43)                1.0945                                         !
 ! R46   R(42,44)                1.0978                                         !
 ! R47   R(42,46)                1.535                                          !
 ! R48   R(46,47)                1.094                                          !
 ! R49   R(46,48)                1.0971                                         !
 ! R50   R(46,49)                1.5331                                         !
 ! R51   R(49,50)                1.0942                                         !
 ! R52   R(49,51)                1.0994                                         !
 ! R53   R(49,52)                1.4582                                         !
 ! R54   R(52,53)                1.0098                                         !
 ! R55   R(52,59)                1.3645                                         !
 ! R56   R(54,55)                1.0106                                         !
 ! R57   R(54,56)                1.0121                                         !
 ! R58   R(54,59)                1.3754                                         !
 ! R59   R(57,58)                1.0182                                         !
 ! R60   R(57,59)                1.3074                                         !
 ! R61   R(60,61)                0.9769                                         !
 ! A1    A(2,1,3)              105.4938                                         !
 ! A2    A(2,1,4)              108.5202                                         !
 ! A3    A(2,1,5)              115.8799                                         !
 ! A4    A(3,1,4)              109.6351                                         !
 ! A5    A(3,1,5)              104.9378                                         !
 ! A6    A(4,1,5)              112.0048                                         !
 ! A7    A(1,5,6)              107.6655                                         !
 ! A8    A(1,5,7)              103.771                                          !
 ! A9    A(1,5,8)              110.2165                                         !
 ! A10   A(6,5,7)              111.9253                                         !
 ! A11   A(6,5,8)              110.8064                                         !
 ! A12   A(7,5,8)              112.1391                                         !
 ! A13   A(5,7,11)             117.5519                                         !
 ! A14   A(5,7,18)             115.5658                                         !
 ! A15   A(11,7,18)            126.85                                           !
 ! A16   A(5,8,9)              108.5302                                         !
 ! A17   A(5,8,10)             109.0471                                         !
 ! A18   A(5,8,12)             112.8935                                         !
 ! A19   A(9,8,10)             107.5038                                         !
 ! A20   A(9,8,12)             109.9209                                         !
 ! A21   A(10,8,12)            108.8012                                         !
 ! A22   A(8,12,13)            111.7578                                         !
 ! A23   A(8,12,14)            109.6821                                         !
 ! A24   A(8,12,15)            113.387                                          !
 ! A25   A(13,12,14)           108.0083                                         !
 ! A26   A(13,12,15)           106.7236                                         !
 ! A27   A(14,12,15)           107.0255                                         !
 ! A28   A(12,15,16)           124.6629                                         !
 ! A29   A(12,15,17)           111.4666                                         !
 ! A30   A(16,15,17)           123.8585                                         !
 ! A31   A(15,17,62)           106.9761                                         !
 ! A32   A(7,18,19)            115.3174                                         !
 ! A33   A(7,18,20)            125.4643                                         !
 ! A34   A(19,18,20)           114.0046                                         !
 ! A35   A(18,20,21)           104.5607                                         !
 ! A36   A(18,20,22)           104.2621                                         !
 ! A37   A(18,20,23)           114.3431                                         !
 ! A38   A(21,20,22)           110.687                                          !
 ! A39   A(21,20,23)           109.6624                                         !
 ! A40   A(22,20,23)           112.9255                                         !
 ! A41   A(20,22,26)           120.908                                          !
 ! A42   A(20,22,37)           115.3538                                         !
 ! A43   A(26,22,37)           123.1328                                         !
 ! A44   A(20,23,24)           108.4841                                         !
 ! A45   A(20,23,25)           108.0058                                         !
 ! A46   A(20,23,27)           113.1896                                         !
 ! A47   A(24,23,25)           107.7409                                         !
 ! A48   A(24,23,27)           109.3441                                         !
 ! A49   A(25,23,27)           109.9203                                         !
 ! A50   A(23,27,28)           107.4966                                         !
 ! A51   A(23,27,29)           113.1371                                         !
 ! A52   A(23,27,33)           109.1705                                         !
 ! A53   A(28,27,29)           108.3503                                         !
 ! A54   A(28,27,33)           107.8099                                         !
 ! A55   A(29,27,33)           110.6879                                         !
 ! A56   A(27,29,30)           111.0217                                         !
 ! A57   A(27,29,31)           110.6044                                         !
 ! A58   A(27,29,32)           112.5764                                         !
 ! A59   A(30,29,31)           107.5828                                         !
 ! A60   A(30,29,32)           108.0582                                         !
 ! A61   A(31,29,32)           106.7708                                         !
 ! A62   A(27,33,34)           110.8443                                         !
 ! A63   A(27,33,35)           111.317                                          !
 ! A64   A(27,33,36)           110.9352                                         !
 ! A65   A(34,33,35)           107.9027                                         !
 ! A66   A(34,33,36)           107.7252                                         !
 ! A67   A(35,33,36)           107.9692                                         !
 ! A68   A(22,37,38)           120.5695                                         !
 ! A69   A(22,37,39)           120.3943                                         !
 ! A70   A(38,37,39)           118.9363                                         !
 ! A71   A(37,39,40)           105.6312                                         !
 ! A72   A(37,39,41)           113.9435                                         !
 ! A73   A(37,39,42)           112.6079                                         !
 ! A74   A(40,39,41)           106.8595                                         !
 ! A75   A(40,39,42)           108.0294                                         !
 ! A76   A(41,39,42)           109.3816                                         !
 ! A77   A(39,41,45)           122.7246                                         !
 ! A78   A(39,41,60)           113.2079                                         !
 ! A79   A(45,41,60)           124.0468                                         !
 ! A80   A(39,42,43)           107.3056                                         !
 ! A81   A(39,42,44)           110.1197                                         !
 ! A82   A(39,42,46)           112.05                                           !
 ! A83   A(43,42,44)           106.5861                                         !
 ! A84   A(43,42,46)           110.9488                                         !
 ! A85   A(44,42,46)           109.6653                                         !
 ! A86   A(42,46,47)           110.0664                                         !
 ! A87   A(42,46,48)           108.882                                          !
 ! A88   A(42,46,49)           113.9446                                         !
 ! A89   A(47,46,48)           106.8819                                         !
 ! A90   A(47,46,49)           108.5414                                         !
 ! A91   A(48,46,49)           108.2753                                         !
 ! A92   A(46,49,50)           110.6833                                         !
 ! A93   A(46,49,51)           110.4549                                         !
 ! A94   A(46,49,52)           112.0352                                         !
 ! A95   A(50,49,51)           106.6929                                         !
 ! A96   A(50,49,52)           107.0406                                         !
 ! A97   A(51,49,52)           109.7405                                         !
 ! A98   A(49,52,53)           117.858                                          !
 ! A99   A(49,52,59)           123.0696                                         !
 ! A100  A(53,52,59)           116.5038                                         !
 ! A101  A(55,54,56)           114.0153                                         !
 ! A102  A(55,54,59)           117.6579                                         !
 ! A103  A(56,54,59)           117.9527                                         !
 ! A104  A(58,57,59)           111.2354                                         !
 ! A105  A(52,59,54)           114.1431                                         !
 ! A106  A(52,59,57)           121.7279                                         !
 ! A107  A(54,59,57)           124.1123                                         !
 ! A108  A(41,60,61)           106.95                                           !
 ! D1    D(2,1,5,6)             39.0139                                         !
 ! D2    D(2,1,5,7)            -79.7715                                         !
 ! D3    D(2,1,5,8)            159.981                                          !
 ! D4    D(3,1,5,6)            154.9089                                         !
 ! D5    D(3,1,5,7)             36.1236                                         !
 ! D6    D(3,1,5,8)            -84.124                                          !
 ! D7    D(4,1,5,6)            -86.2148                                         !
 ! D8    D(4,1,5,7)            154.9999                                         !
 ! D9    D(4,1,5,8)             34.7524                                         !
 ! D10   D(1,5,7,11)           -29.6621                                         !
 ! D11   D(1,5,7,18)           152.2589                                         !
 ! D12   D(6,5,7,11)          -145.4762                                         !
 ! D13   D(6,5,7,18)            36.4449                                         !
 ! D14   D(8,5,7,11)            89.2737                                         !
 ! D15   D(8,5,7,18)           -88.8052                                         !
 ! D16   D(1,5,8,9)             61.2196                                         !
 ! D17   D(1,5,8,10)           -55.608                                          !
 ! D18   D(1,5,8,12)          -176.6654                                         !
 ! D19   D(6,5,8,9)           -179.7105                                         !
 ! D20   D(6,5,8,10)            63.4619                                         !
 ! D21   D(6,5,8,12)           -57.5955                                         !
 ! D22   D(7,5,8,9)            -53.848                                          !
 ! D23   D(7,5,8,10)          -170.6756                                         !
 ! D24   D(7,5,8,12)            68.267                                          !
 ! D25   D(5,7,18,19)           -7.2464                                         !
 ! D26   D(5,7,18,20)         -160.0613                                         !
 ! D27   D(11,7,18,19)         174.8822                                         !
 ! D28   D(11,7,18,20)          22.0672                                         !
 ! D29   D(5,8,12,13)          -61.8917                                         !
 ! D30   D(5,8,12,14)           57.8629                                         !
 ! D31   D(5,8,12,15)          177.4334                                         !
 ! D32   D(9,8,12,13)           59.4387                                         !
 ! D33   D(9,8,12,14)          179.1934                                         !
 ! D34   D(9,8,12,15)          -61.2362                                         !
 ! D35   D(10,8,12,13)         176.9113                                         !
 ! D36   D(10,8,12,14)         -63.3341                                         !
 ! D37   D(10,8,12,15)          56.2364                                         !
 ! D38   D(8,12,15,16)         136.5778                                         !
 ! D39   D(8,12,15,17)         -44.6432                                         !
 ! D40   D(13,12,15,16)         13.0981                                         !
 ! D41   D(13,12,15,17)       -168.1228                                         !
 ! D42   D(14,12,15,16)       -102.3448                                         !
 ! D43   D(14,12,15,17)         76.4343                                         !
 ! D44   D(12,15,17,62)       -178.7086                                         !
 ! D45   D(16,15,17,62)          0.0821                                         !
 ! D46   D(7,18,20,21)        -173.9723                                         !
 ! D47   D(7,18,20,22)          69.7566                                         !
 ! D48   D(7,18,20,23)         -54.033                                          !
 ! D49   D(19,18,20,21)         32.9052                                         !
 ! D50   D(19,18,20,22)        -83.3659                                         !
 ! D51   D(19,18,20,23)        152.8445                                         !
 ! D52   D(18,20,22,26)        -79.6961                                         !
 ! D53   D(18,20,22,37)         91.6546                                         !
 ! D54   D(21,20,22,26)        168.3868                                         !
 ! D55   D(21,20,22,37)        -20.2625                                         !
 ! D56   D(23,20,22,26)         45.0048                                         !
 ! D57   D(23,20,22,37)       -143.6446                                         !
 ! D58   D(18,20,23,24)         59.6481                                         !
 ! D59   D(18,20,23,25)        -56.8704                                         !
 ! D60   D(18,20,23,27)       -178.8074                                         !
 ! D61   D(21,20,23,24)        176.6924                                         !
 ! D62   D(21,20,23,25)         60.1739                                         !
 ! D63   D(21,20,23,27)        -61.7631                                         !
 ! D64   D(22,20,23,24)        -59.3602                                         !
 ! D65   D(22,20,23,25)       -175.8787                                         !
 ! D66   D(22,20,23,27)         62.1843                                         !
 ! D67   D(20,22,37,38)         18.2597                                         !
 ! D68   D(20,22,37,39)       -165.4134                                         !
 ! D69   D(26,22,37,38)       -170.6039                                         !
 ! D70   D(26,22,37,39)          5.723                                          !
 ! D71   D(20,23,27,28)        -62.9567                                         !
 ! D72   D(20,23,27,29)         56.6254                                         !
 ! D73   D(20,23,27,33)       -179.6439                                         !
 ! D74   D(24,23,27,28)         58.1031                                         !
 ! D75   D(24,23,27,29)        177.6853                                         !
 ! D76   D(24,23,27,33)        -58.584                                          !
 ! D77   D(25,23,27,28)        176.1841                                         !
 ! D78   D(25,23,27,29)        -64.2337                                         !
 ! D79   D(25,23,27,33)         59.497                                          !
 ! D80   D(23,27,29,30)         55.6032                                         !
 ! D81   D(23,27,29,31)        174.9583                                         !
 ! D82   D(23,27,29,32)        -65.6905                                         !
 ! D83   D(28,27,29,30)        174.6941                                         !
 ! D84   D(28,27,29,31)        -65.9509                                         !
 ! D85   D(28,27,29,32)         53.4003                                         !
 ! D86   D(33,27,29,30)        -67.2903                                         !
 ! D87   D(33,27,29,31)         52.0648                                         !
 ! D88   D(33,27,29,32)        171.416                                          !
 ! D89   D(23,27,33,34)        -64.2863                                         !
 ! D90   D(23,27,33,35)         55.8239                                         !
 ! D91   D(23,27,33,36)        176.0794                                         !
 ! D92   D(28,27,33,34)        179.2257                                         !
 ! D93   D(28,27,33,35)        -60.6641                                         !
 ! D94   D(28,27,33,36)         59.5914                                         !
 ! D95   D(29,27,33,34)         60.8807                                         !
 ! D96   D(29,27,33,35)       -179.0091                                         !
 ! D97   D(29,27,33,36)        -58.7536                                         !
 ! D98   D(22,37,39,40)        -21.4441                                         !
 ! D99   D(22,37,39,41)       -138.4294                                         !
 ! D100  D(22,37,39,42)         96.2439                                         !
 ! D101  D(38,37,39,40)        154.9423                                         !
 ! D102  D(38,37,39,41)         37.957                                          !
 ! D103  D(38,37,39,42)        -87.3698                                         !
 ! D104  D(37,39,41,45)       -178.7963                                         !
 ! D105  D(37,39,41,60)         -0.3881                                         !
 ! D106  D(40,39,41,45)         64.9323                                         !
 ! D107  D(40,39,41,60)       -116.6595                                         !
 ! D108  D(42,39,41,45)        -51.7758                                         !
 ! D109  D(42,39,41,60)        126.6324                                         !
 ! D110  D(37,39,42,43)       -163.0627                                         !
 ! D111  D(37,39,42,44)         81.307                                          !
 ! D112  D(37,39,42,46)        -41.0411                                         !
 ! D113  D(40,39,42,43)        -46.8002                                         !
 ! D114  D(40,39,42,44)       -162.4305                                         !
 ! D115  D(40,39,42,46)         75.2214                                         !
 ! D116  D(41,39,42,43)         69.1653                                         !
 ! D117  D(41,39,42,44)        -46.465                                          !
 ! D118  D(41,39,42,46)       -168.8131                                         !
 ! D119  D(39,41,60,61)       -179.5374                                         !
 ! D120  D(45,41,60,61)         -1.1536                                         !
 ! D121  D(39,42,46,47)        -39.4517                                         !
 ! D122  D(39,42,46,48)         77.4003                                         !
 ! D123  D(39,42,46,49)       -161.635                                          !
 ! D124  D(43,42,46,47)         80.464                                          !
 ! D125  D(43,42,46,48)       -162.6841                                         !
 ! D126  D(43,42,46,49)        -41.7194                                         !
 ! D127  D(44,42,46,47)       -162.058                                          !
 ! D128  D(44,42,46,48)        -45.2061                                         !
 ! D129  D(44,42,46,49)         75.7586                                         !
 ! D130  D(42,46,49,50)        -47.2435                                         !
 ! D131  D(42,46,49,51)       -165.181                                          !
 ! D132  D(42,46,49,52)         72.1448                                         !
 ! D133  D(47,46,49,50)       -170.2621                                         !
 ! D134  D(47,46,49,51)         71.8004                                         !
 ! D135  D(47,46,49,52)        -50.8738                                         !
 ! D136  D(48,46,49,50)         74.0588                                         !
 ! D137  D(48,46,49,51)        -43.8788                                         !
 ! D138  D(48,46,49,52)       -166.553                                          !
 ! D139  D(46,49,52,53)       -128.0805                                         !
 ! D140  D(46,49,52,59)         70.7508                                         !
 ! D141  D(50,49,52,53)         -6.5746                                         !
 ! D142  D(50,49,52,59)       -167.7433                                         !
 ! D143  D(51,49,52,53)        108.8408                                         !
 ! D144  D(51,49,52,59)        -52.3278                                         !
 ! D145  D(49,52,59,54)       -176.0527                                         !
 ! D146  D(49,52,59,57)          5.3746                                         !
 ! D147  D(53,52,59,54)         22.543                                          !
 ! D148  D(53,52,59,57)       -156.0296                                         !
 ! D149  D(55,54,59,52)        176.5489                                         !
 ! D150  D(55,54,59,57)         -4.9174                                         !
 ! D151  D(56,54,59,52)         33.5836                                         !
 ! D152  D(56,54,59,57)       -147.8828                                         !
 ! D153  D(58,57,59,52)       -169.6884                                         !
 ! D154  D(58,57,59,54)         11.8848                                         !
 --------------------------------------------------------------------------------
 Symmetry turned off by external request.
 Stoichiometry    C17H33N6O6(1+)
 Framework group  C1[X(C17H33N6O6)]
 Deg. of freedom   180
 Full point group                 C1      NOp   1
                          Input orientation:                          
 ---------------------------------------------------------------------
 Center     Atomic      Atomic             Coordinates (Angstroms)
 Number     Number       Type             X           Y           Z
 ---------------------------------------------------------------------
      1          7           0        1.130019   -2.086774   -3.451191
      2          1           0        2.112397   -1.534917   -3.522350
      3          1           0        1.288744   -2.846800   -2.766451
      4          1           0        0.916043   -2.488415   -4.366860
      5          6           0       -0.021182   -1.303767   -2.898946
      6          1           0        0.049453   -0.286307   -3.294100
      7          6           0        0.205683   -1.346468   -1.362247
      8          6           0       -1.352162   -1.956790   -3.306535
      9          1           0       -1.385929   -2.970308   -2.887775
     10          1           0       -1.385432   -2.049836   -4.398065
     11          8           0        0.777240   -2.326638   -0.900960
     12          6           0       -2.577741   -1.156777   -2.840307
     13          1           0       -2.621583   -1.081131   -1.752156
     14          1           0       -2.532560   -0.137455   -3.250408
     15          6           0       -3.898782   -1.759552   -3.290496
     16          8           0       -4.875357   -1.870585   -2.592000
     17          8           0       -3.854181   -2.136549   -4.591819
     18          7           0       -0.295393   -0.295310   -0.667276
     19          1           0       -0.662738    0.460627   -1.231030
     20          6           0        0.129090    0.118475    0.697842
     21          1           0       -0.561932    0.922541    0.968929
     22          6           0        1.556028    0.669581    0.501308
     23          6           0        0.059315   -0.993748    1.743366
     24          1           0        0.709747   -1.809516    1.424490
     25          1           0       -0.969958   -1.375352    1.764759
     26          8           0        2.514112   -0.086306    0.402887
     27          6           0        0.476916   -0.528705    3.153826
     28          1           0        1.530979   -0.220595    3.101694
     29          6           0       -0.349870    0.660475    3.666918
     30          1           0       -1.423372    0.431459    3.647243
     31          1           0       -0.081349    0.898731    4.701509
     32          1           0       -0.185793    1.572522    3.079139
     33          6           0        0.381737   -1.714524    4.124453
     34          1           0       -0.656847   -2.054776    4.224654
     35          1           0        0.982099   -2.562856    3.777044
     36          1           0        0.738357   -1.433905    5.121328
     37          7           0        1.636982    2.013376    0.263724
     38          1           0        0.863664    2.622961    0.490873
     39          6           0        2.868299    2.598115   -0.246320
     40          1           0        3.660114    1.886074    0.007274
     41          6           0        3.239671    3.921696    0.405693
     42          6           0        2.852899    2.770320   -1.790059
     43          1           0        3.888784    2.916921   -2.111659
     44          1           0        2.307881    3.683472   -2.062758
     45          8           0        4.218253    4.554377    0.087738
     46          6           0        2.224057    1.562417   -2.498391
     47          1           0        2.534064    0.635662   -2.006647
     48          1           0        1.132804    1.623762   -2.403595
     49          6           0        2.572427    1.463957   -3.988114
     50          1           0        2.437401    2.431312   -4.481348
     51          1           0        1.900984    0.755249   -4.493682
     52          7           0        3.959029    1.065837   -4.200542
     53          1           0        4.524815    1.635114   -4.813294
     54          7           0        5.776024   -0.341726   -4.122918
     55          1           0        6.184161   -1.236940   -3.891857
     56          1           0        6.374082    0.448718   -3.918416
     57          7           0        3.619608   -1.155574   -3.570224
     58          1           0        4.142893   -1.969842   -3.254058
     59          6           0        4.421612   -0.190505   -3.937195
     60          8           0        2.349516    4.323175    1.341306
     61          1           0        2.670043    5.176965    1.691568
     62          1           0       -4.735652   -2.492524   -4.815960
 ---------------------------------------------------------------------
 Rotational constants (GHZ):           0.1480730           0.1103260           0.0790647
 Standard basis: 6-31G(d) (6D, 7F)
   501 basis functions,   944 primitive gaussians,   501 cartesian basis functions
   112 alpha electrons      112 beta electrons
       nuclear repulsion energy      3085.0714064627 Hartrees.
 NAtoms=   62 NActive=   62 NUniq=   62 SFac= 1.00D+00 NAtFMM=   60 NAOKFM=T Big=T
 Integral buffers will be    131072 words long.
 Raffenetti 2 integral format.
 Two-electron integral symmetry is turned off.
 Nuclear repulsion after empirical dispersion term =     3084.9921365992 Hartrees.
 One-electron integrals computed using PRISM.
 NBasis=   501 RedAO= T EigKep=  1.96D-03  NBF=   501
 NBsUse=   501 1.00D-06 EigRej= -1.00D+00 NBFU=   501
 Initial guess from the checkpoint file:  "conf-288.chk"
 B after Tr=     0.000000    0.000000    0.000000
         Rot=    1.000000    0.000000    0.000000    0.000000 Ang=   0.00 deg.
 Requested convergence on RMS density matrix=1.00D-08 within 128 cycles.
 Requested convergence on MAX density matrix=1.00D-06.
 Requested convergence on             energy=1.00D-06.
 No special actions if energy rises.
 SCF Done:  E(RB3LYP) =  -1447.47064496     A.U. after    1 cycles
            NFock=  1  Conv=0.44D-08     -V/T= 2.0094

 **********************************************************************

            Population analysis using the SCF Density.

 **********************************************************************

 Alpha  occ. eigenvalues --  -19.29592 -19.29343 -19.25338 -19.23478 -19.23324
 Alpha  occ. eigenvalues --  -19.21847 -14.54841 -14.49647 -14.48034 -14.47528
 Alpha  occ. eigenvalues --  -14.46962 -14.43309 -10.42565 -10.42555 -10.42030
 Alpha  occ. eigenvalues --  -10.41803 -10.39194 -10.38911 -10.34674 -10.34557
 Alpha  occ. eigenvalues --  -10.34056 -10.33321 -10.31979 -10.30000 -10.29776
 Alpha  occ. eigenvalues --  -10.26785 -10.26738 -10.25074 -10.24076  -1.20239
 Alpha  occ. eigenvalues --   -1.20076  -1.17616  -1.14060  -1.11306  -1.11268
 Alpha  occ. eigenvalues --   -1.11236  -1.10016  -1.05733  -1.03249  -1.01845
 Alpha  occ. eigenvalues --   -0.97746  -0.93637  -0.91058  -0.89803  -0.86526
 Alpha  occ. eigenvalues --   -0.85755  -0.83266  -0.79525  -0.77368  -0.75885
 Alpha  occ. eigenvalues --   -0.74763  -0.74402  -0.71659  -0.71327  -0.70911
 Alpha  occ. eigenvalues --   -0.70670  -0.69869  -0.68548  -0.68124  -0.67013
 Alpha  occ. eigenvalues --   -0.65031  -0.64422  -0.63936  -0.62172  -0.61794
 Alpha  occ. eigenvalues --   -0.60891  -0.59781  -0.59370  -0.58801  -0.58100
 Alpha  occ. eigenvalues --   -0.57850  -0.57260  -0.56970  -0.56679  -0.56581
 Alpha  occ. eigenvalues --   -0.55833  -0.54263  -0.53759  -0.53516  -0.53079
 Alpha  occ. eigenvalues --   -0.52299  -0.51757  -0.51365  -0.50923  -0.50506
 Alpha  occ. eigenvalues --   -0.49737  -0.49423  -0.49176  -0.48757  -0.48409
 Alpha  occ. eigenvalues --   -0.47994  -0.47745  -0.46754  -0.46455  -0.45499
 Alpha  occ. eigenvalues --   -0.45237  -0.44930  -0.44213  -0.42276  -0.41435
 Alpha  occ. eigenvalues --   -0.41362  -0.41311  -0.40783  -0.40097  -0.39462
 Alpha  occ. eigenvalues --   -0.38371  -0.38115  -0.37946  -0.36979  -0.36320
 Alpha  occ. eigenvalues --   -0.35364  -0.34640
 Alpha virt. eigenvalues --   -0.12551  -0.09233  -0.08744  -0.08437  -0.07747
 Alpha virt. eigenvalues --   -0.07223  -0.06583  -0.05374  -0.03614  -0.02721
 Alpha virt. eigenvalues --   -0.01840  -0.01573  -0.01125  -0.00539   0.00074
 Alpha virt. eigenvalues --    0.00822   0.01471   0.02234   0.02411   0.02831
 Alpha virt. eigenvalues --    0.03142   0.03614   0.04421   0.05156   0.05422
 Alpha virt. eigenvalues --    0.05845   0.06186   0.06520   0.07353   0.07688
 Alpha virt. eigenvalues --    0.07891   0.08010   0.08469   0.08718   0.08972
 Alpha virt. eigenvalues --    0.09503   0.09722   0.10034   0.10856   0.11201
 Alpha virt. eigenvalues --    0.11410   0.12023   0.12364   0.13070   0.13290
 Alpha virt. eigenvalues --    0.13662   0.14203   0.14792   0.15392   0.15958
 Alpha virt. eigenvalues --    0.16775   0.17662   0.17743   0.18346   0.19060
 Alpha virt. eigenvalues --    0.19926   0.21594   0.22452   0.23718   0.25625
 Alpha virt. eigenvalues --    0.26123   0.26900   0.28654   0.29978   0.31183
 Alpha virt. eigenvalues --    0.31911   0.35899   0.37245   0.39079   0.39866
 Alpha virt. eigenvalues --    0.40201   0.40956   0.41731   0.41982   0.42864
 Alpha virt. eigenvalues --    0.43247   0.44171   0.44414   0.44711   0.45213
 Alpha virt. eigenvalues --    0.45422   0.46964   0.47102   0.47289   0.48412
 Alpha virt. eigenvalues --    0.48873   0.49539   0.49871   0.50605   0.51441
 Alpha virt. eigenvalues --    0.51816   0.52605   0.53224   0.53587   0.54373
 Alpha virt. eigenvalues --    0.54997   0.55665   0.56710   0.57217   0.57489
 Alpha virt. eigenvalues --    0.57773   0.58240   0.58764   0.59705   0.60698
 Alpha virt. eigenvalues --    0.61281   0.62496   0.63273   0.63864   0.64484
 Alpha virt. eigenvalues --    0.64915   0.65925   0.66276   0.66820   0.67471
 Alpha virt. eigenvalues --    0.67607   0.67901   0.68631   0.68874   0.69100
 Alpha virt. eigenvalues --    0.70234   0.70614   0.71340   0.72080   0.72511
 Alpha virt. eigenvalues --    0.72855   0.73185   0.73962   0.75033   0.75343
 Alpha virt. eigenvalues --    0.75651   0.76064   0.76193   0.76967   0.77369
 Alpha virt. eigenvalues --    0.77610   0.78136   0.78364   0.79027   0.79192
 Alpha virt. eigenvalues --    0.79672   0.79936   0.80473   0.81148   0.81286
 Alpha virt. eigenvalues --    0.82246   0.82602   0.83273   0.83428   0.83609
 Alpha virt. eigenvalues --    0.84361   0.84686   0.84953   0.85412   0.85647
 Alpha virt. eigenvalues --    0.85853   0.86067   0.86512   0.86997   0.87568
 Alpha virt. eigenvalues --    0.88621   0.89172   0.90525   0.90988   0.91753
 Alpha virt. eigenvalues --    0.92529   0.92716   0.93394   0.94303   0.94655
 Alpha virt. eigenvalues --    0.96342   0.96741   0.97242   0.97792   0.98513
 Alpha virt. eigenvalues --    0.98887   1.00034   1.00428   1.03137   1.03951
 Alpha virt. eigenvalues --    1.04567   1.04906   1.06866   1.08138   1.09745
 Alpha virt. eigenvalues --    1.10935   1.12019   1.12915   1.14241   1.15327
 Alpha virt. eigenvalues --    1.17674   1.18688   1.19689   1.22384   1.22922
 Alpha virt. eigenvalues --    1.23705   1.24266   1.24715   1.27416   1.28344
 Alpha virt. eigenvalues --    1.29044   1.30142   1.31183   1.32096   1.32875
 Alpha virt. eigenvalues --    1.34492   1.35244   1.35890   1.38103   1.39411
 Alpha virt. eigenvalues --    1.39780   1.40936   1.42388   1.44019   1.45386
 Alpha virt. eigenvalues --    1.45691   1.46668   1.49633   1.50418   1.50734
 Alpha virt. eigenvalues --    1.51751   1.54439   1.55041   1.56409   1.58153
 Alpha virt. eigenvalues --    1.58379   1.59303   1.60285   1.60791   1.60996
 Alpha virt. eigenvalues --    1.62865   1.62966   1.63518   1.64464   1.65147
 Alpha virt. eigenvalues --    1.65992   1.66970   1.67256   1.68043   1.68656
 Alpha virt. eigenvalues --    1.69436   1.70743   1.71013   1.71079   1.71333
 Alpha virt. eigenvalues --    1.71782   1.72734   1.73479   1.74539   1.74843
 Alpha virt. eigenvalues --    1.76011   1.76884   1.77591   1.78783   1.79911
 Alpha virt. eigenvalues --    1.80453   1.81149   1.81625   1.82237   1.82341
 Alpha virt. eigenvalues --    1.82568   1.83888   1.84827   1.84883   1.85840
 Alpha virt. eigenvalues --    1.86675   1.87451   1.88379   1.89234   1.90604
 Alpha virt. eigenvalues --    1.90969   1.91473   1.93056   1.93448   1.93979
 Alpha virt. eigenvalues --    1.95154   1.95374   1.96468   1.97554   1.98516
 Alpha virt. eigenvalues --    1.98657   2.00123   2.01341   2.01950   2.02573
 Alpha virt. eigenvalues --    2.02846   2.03511   2.05661   2.07348   2.07833
 Alpha virt. eigenvalues --    2.08636   2.09988   2.14100   2.14966   2.16851
 Alpha virt. eigenvalues --    2.16963   2.17891   2.19091   2.20291   2.20657
 Alpha virt. eigenvalues --    2.22078   2.22731   2.23381   2.24402   2.25649
 Alpha virt. eigenvalues --    2.25972   2.26922   2.28099   2.29070   2.29526
 Alpha virt. eigenvalues --    2.30737   2.31704   2.33287   2.33907   2.36398
 Alpha virt. eigenvalues --    2.37719   2.38176   2.38822   2.39855   2.42630
 Alpha virt. eigenvalues --    2.42732   2.43733   2.44113   2.44929   2.46701
 Alpha virt. eigenvalues --    2.47166   2.48654   2.50132   2.52615   2.54692
 Alpha virt. eigenvalues --    2.55267   2.55779   2.57349   2.58004   2.59116
 Alpha virt. eigenvalues --    2.59180   2.60861   2.61609   2.63304   2.64139
 Alpha virt. eigenvalues --    2.65208   2.66015   2.67372   2.69434   2.70458
 Alpha virt. eigenvalues --    2.72945   2.75221   2.78552   2.82989   2.85137
 Alpha virt. eigenvalues --    2.87498   2.88265   2.89302   2.90107   2.93376
 Alpha virt. eigenvalues --    2.97591   2.98647   3.01579   3.03422   3.06411
 Alpha virt. eigenvalues --    3.68385   3.72329   3.74918   3.77068   3.85773
 Alpha virt. eigenvalues --    3.87489   3.93245   3.95180   3.97619   4.05197
 Alpha virt. eigenvalues --    4.08089   4.09480   4.10966   4.12570   4.13360
 Alpha virt. eigenvalues --    4.18659   4.21510   4.22392   4.25328   4.27386
 Alpha virt. eigenvalues --    4.31773   4.32215   4.35979   4.42146   4.47402
 Alpha virt. eigenvalues --    4.48821   4.52984   4.55803   4.58969
          Condensed to atoms (all electrons):
 Mulliken charges:
               1
     1  N   -0.793455
     2  H    0.458022
     3  H    0.401647
     4  H    0.383206
     5  C   -0.105763
     6  H    0.178615
     7  C    0.663459
     8  C   -0.287692
     9  H    0.189857
    10  H    0.188064
    11  O   -0.498256
    12  C   -0.374079
    13  H    0.203477
    14  H    0.176442
    15  C    0.582109
    16  O   -0.428017
    17  O   -0.565335
    18  N   -0.612458
    19  H    0.337588
    20  C   -0.065702
    21  H    0.156120
    22  C    0.638622
    23  C   -0.264882
    24  H    0.201220
    25  H    0.143972
    26  O   -0.508899
    27  C   -0.091639
    28  H    0.148569
    29  C   -0.454338
    30  H    0.149461
    31  H    0.165174
    32  H    0.124391
    33  C   -0.447460
    34  H    0.147922
    35  H    0.153672
    36  H    0.156205
    37  N   -0.617702
    38  H    0.344337
    39  C   -0.062912
    40  H    0.224980
    41  C    0.594441
    42  C   -0.268700
    43  H    0.177026
    44  H    0.151809
    45  O   -0.445043
    46  C   -0.289745
    47  H    0.197927
    48  H    0.112369
    49  C   -0.139033
    50  H    0.172879
    51  H    0.141127
    52  N   -0.596469
    53  H    0.351839
    54  N   -0.762379
    55  H    0.354185
    56  H    0.355378
    57  N   -0.764006
    58  H    0.311647
    59  C    0.721861
    60  O   -0.574419
    61  H    0.429644
    62  H    0.429125
 Sum of Mulliken charges =   1.00000
 Mulliken charges with hydrogens summed into heavy atoms:
               1
     1  N    0.449421
     5  C    0.072851
     7  C    0.663459
     8  C    0.090228
    11  O   -0.498256
    12  C    0.005841
    15  C    0.582109
    16  O   -0.428017
    17  O   -0.136210
    18  N   -0.274870
    20  C    0.090418
    22  C    0.638622
    23  C    0.080310
    26  O   -0.508899
    27  C    0.056930
    29  C   -0.015313
    33  C    0.010339
    37  N   -0.273365
    39  C    0.162068
    41  C    0.594441
    42  C    0.060135
    45  O   -0.445043
    46  C    0.020551
    49  C    0.174972
    52  N   -0.244631
    54  N   -0.052817
    57  N   -0.452359
    59  C    0.721861
    60  O   -0.144775
 Electronic spatial extent (au):  <R**2>=          16247.3451
 Charge=              1.0000 electrons
 Dipole moment (field-independent basis, Debye):
    X=              7.5660    Y=              0.4928    Z=            -15.1685  Tot=             16.9579
 Quadrupole moment (field-independent basis, Debye-Ang):
   XX=           -125.7299   YY=           -141.5850   ZZ=            -93.0458
   XY=             -0.3242   XZ=            -29.4850   YZ=             21.0029
 Traceless Quadrupole moment (field-independent basis, Debye-Ang):
   XX=             -5.6097   YY=            -21.4648   ZZ=             27.0744
   XY=             -0.3242   XZ=            -29.4850   YZ=             21.0029
 Octapole moment (field-independent basis, Debye-Ang**2):
  XXX=           -207.6538  YYY=            -48.4136  ZZZ=            332.7623  XYY=           -158.7012
  XXY=            -75.5250  XXZ=            -74.4354  XZZ=            -70.1137  YZZ=            -70.8510
  YYZ=            136.3458  XYZ=            -14.6879
 Hexadecapole moment (field-independent basis, Debye-Ang**3):
 XXXX=          -5968.0714 YYYY=          -3761.3402 ZZZZ=          -7064.5223 XXXY=          -1784.6385
 XXXZ=           -388.4781 YYYX=          -1537.8389 YYYZ=           -101.8315 ZZZX=            489.3870
 ZZZY=           -286.6116 XXYY=          -1969.5269 XXZZ=          -1469.4335 YYZZ=          -1565.5395
 XXYZ=              8.6061 YYXZ=            263.1308 ZZXY=           -171.8751
 N-N= 3.084992136599D+03 E-N=-9.520182185378D+03  KE= 1.434054652425D+03
 Unable to Open any file for archive entry.
 1\1\GINC-AMR-183\SP\RB3LYP\6-31G(d)\C17H33N6O6(1+)\KENGMITH\01-Jun-202
 2\0\\# B3LYP/6-31G* empiricaldispersion=gd3 guess=read geom=check nosy
 mm integral(ultrafinegrid)\\Candidate Structure: Conf:288 Charge calc 
 in gas phase\\1,1\N,0,1.1300191507,-2.0867742038,-3.4511907737\H,0,2.1
 123974278,-1.5349165373,-3.5223500172\H,0,1.2887442252,-2.8468001858,-
 2.766450772\H,0,0.9160431123,-2.4884154927,-4.3668602854\C,0,-0.021181
 6989,-1.3037674604,-2.8989455266\H,0,0.0494534323,-0.2863068729,-3.294
 0995108\C,0,0.2056833872,-1.3464681767,-1.3622465522\C,0,-1.3521618662
 ,-1.9567895175,-3.3065352986\H,0,-1.3859290776,-2.9703076609,-2.887774
 7111\H,0,-1.3854320282,-2.049835817,-4.3980648516\O,0,0.7772402567,-2.
 3266378652,-0.9009601652\C,0,-2.5777414247,-1.1567771639,-2.8403070532
 \H,0,-2.621583297,-1.0811305428,-1.7521561757\H,0,-2.532559961,-0.1374
 551896,-3.2504077299\C,0,-3.8987822217,-1.7595516301,-3.2904961813\O,0
 ,-4.8753572246,-1.8705845239,-2.5920003267\O,0,-3.8541811814,-2.136549
 0575,-4.5918190299\N,0,-0.2953932678,-0.2953102304,-0.6672764668\H,0,-
 0.6627378295,0.4606274334,-1.2310295272\C,0,0.1290904744,0.1184754809,
 0.6978421989\H,0,-0.5619316276,0.9225407647,0.9689286723\C,0,1.5560277
 295,0.669580895,0.5013080491\C,0,0.0593145417,-0.9937483124,1.74336634
 94\H,0,0.7097468239,-1.8095157333,1.424489998\H,0,-0.969958181,-1.3753
 524815,1.7647587866\O,0,2.5141123572,-0.0863058652,0.4028873065\C,0,0.
 4769156287,-0.5287048887,3.1538261696\H,0,1.5309786699,-0.2205945711,3
 .1016942609\C,0,-0.3498702224,0.6604754957,3.6669175939\H,0,-1.4233718
 744,0.4314585253,3.6472429548\H,0,-0.0813489715,0.8987305364,4.7015094
 697\H,0,-0.1857927135,1.5725217773,3.0791385209\C,0,0.3817369821,-1.71
 45241693,4.1244534452\H,0,-0.6568473268,-2.0547761644,4.2246539822\H,0
 ,0.9820992307,-2.56285637,3.7770438732\H,0,0.7383573342,-1.4339049179,
 5.1213283911\N,0,1.6369820162,2.0133758441,0.2637238012\H,0,0.86366438
 93,2.6229605221,0.4908730386\C,0,2.8682994766,2.5981151893,-0.24632027
 03\H,0,3.6601136204,1.8860739244,0.0072737568\C,0,3.239671043,3.921696
 1232,0.4056934731\C,0,2.8528994045,2.7703203781,-1.7900586333\H,0,3.88
 87835141,2.9169208682,-2.1116589583\H,0,2.307880931,3.6834718815,-2.06
 27579341\O,0,4.2182530644,4.5543772084,0.0877377764\C,0,2.2240573514,1
 .5624166336,-2.4983912477\H,0,2.5340642437,0.6356621274,-2.0066466066\
 H,0,1.1328039286,1.6237619513,-2.4035950634\C,0,2.5724268935,1.4639566
 689,-3.988114126\H,0,2.4374007897,2.431311869,-4.481347927\H,0,1.90098
 43352,0.7552488514,-4.4936818836\N,0,3.9590293553,1.065837163,-4.20054
 18105\H,0,4.5248150082,1.6351141755,-4.8132944985\N,0,5.7760239854,-0.
 3417255567,-4.1229176818\H,0,6.1841612927,-1.236940454,-3.8918572636\H
 ,0,6.3740824451,0.4487176713,-3.9184159217\N,0,3.6196084862,-1.1555737
 633,-3.5702244458\H,0,4.1428931872,-1.9698424967,-3.2540580877\C,0,4.4
 216120913,-0.1905050636,-3.9371946711\O,0,2.3495160722,4.3231752803,1.
 3413058552\H,0,2.6700426869,5.1769650356,1.6915680187\H,0,-4.735652261
 1,-2.4925241089,-4.8159603266\\Version=ES64L-G16RevC.01\HF=-1447.47064
 5\RMSD=4.377e-09\Dipole=1.0424985,-0.0622191,-3.7574062\Quadrupole=-4.
 1706406,-15.9585256,20.1291662,-0.2410361,-21.921407,15.6151727\PG=C01
  [X(C17H33N6O6)]\\@
 The archive entry for this job was punched.


 CHINESE FORTUNE COOKIE OF JAN 1 1967 SAY....
 ALL THINGS ARE DIFFICULT BEFORE THEY ARE EASY.
 WE LEARN SO LITTLE AND FORGET SO MUCH.
 YOU WILL OVERCOME OBSTACLES TO ACHIEVE SUCCESS.
 AH SO.
 Job cpu time:       0 days  0 hours  0 minutes 56.4 seconds.
 Elapsed time:       0 days  0 hours  0 minutes 14.7 seconds.
 File lengths (MBytes):  RWF=    248 Int=      0 D2E=      0 Chk=     32 Scr=     16
 Normal termination of Gaussian 16 at Wed Jun  1 02:21:20 2022.
