 Entering Gaussian System, Link 0=/opt/software/Gaussian/g16-AVX2-C.01/g16/g16
 Input=charge-conf-123.com
 Output=charge-conf-123.log
 Initial command:
 /opt/software/Gaussian/g16-AVX2-C.01/g16/l1.exe "/mnt/gs18/scratch/users/kengmith/Gau-100731.inp" -scrdir="/mnt/gs18/scratch/users/kengmith/"
 Entering Link 1 = /opt/software/Gaussian/g16-AVX2-C.01/g16/l1.exe PID=    100742.
  
 Copyright (c) 1988-2019, Gaussian, Inc.  All Rights Reserved.
  
 This is part of the Gaussian(R) 16 program.  It is based on
 the Gaussian(R) 09 system (copyright 2009, Gaussian, Inc.),
 the Gaussian(R) 03 system (copyright 2003, Gaussian, Inc.),
 the Gaussian(R) 98 system (copyright 1998, Gaussian, Inc.),
 the Gaussian(R) 94 system (copyright 1995, Gaussian, Inc.),
 the Gaussian 92(TM) system (copyright 1992, Gaussian, Inc.),
 the Gaussian 90(TM) system (copyright 1990, Gaussian, Inc.),
 the Gaussian 88(TM) system (copyright 1988, Gaussian, Inc.),
 the Gaussian 86(TM) system (copyright 1986, Carnegie Mellon
 University), and the Gaussian 82(TM) system (copyright 1983,
 Carnegie Mellon University). Gaussian is a federally registered
 trademark of Gaussian, Inc.
  
 This software contains proprietary and confidential information,
 including trade secrets, belonging to Gaussian, Inc.
  
 This software is provided under written license and may be
 used, copied, transmitted, or stored only in accord with that
 written license.
  
 The following legend is applicable only to US Government
 contracts under FAR:
  
                    RESTRICTED RIGHTS LEGEND
  
 Use, reproduction and disclosure by the US Government is
 subject to restrictions as set forth in subparagraphs (a)
 and (c) of the Commercial Computer Software - Restricted
 Rights clause in FAR 52.227-19.
  
 Gaussian, Inc.
 340 Quinnipiac St., Bldg. 40, Wallingford CT 06492
  
  
 ---------------------------------------------------------------
 Warning -- This program may not be used in any manner that
 competes with the business of Gaussian, Inc. or will provide
 assistance to any competitor of Gaussian, Inc.  The licensee
 of this program is prohibited from giving any competitor of
 Gaussian, Inc. access to this program.  By using this program,
 the user acknowledges that Gaussian, Inc. is engaged in the
 business of creating and licensing software in the field of
 computational chemistry and represents and warrants to the
 licensee that it is not a competitor of Gaussian, Inc. and that
 it will not use this program in any manner prohibited above.
 ---------------------------------------------------------------
  

 Cite this work as:
 Gaussian 16, Revision C.01,
 M. J. Frisch, G. W. Trucks, H. B. Schlegel, G. E. Scuseria, 
 M. A. Robb, J. R. Cheeseman, G. Scalmani, V. Barone, 
 G. A. Petersson, H. Nakatsuji, X. Li, M. Caricato, A. V. Marenich, 
 J. Bloino, B. G. Janesko, R. Gomperts, B. Mennucci, H. P. Hratchian, 
 J. V. Ortiz, A. F. Izmaylov, J. L. Sonnenberg, D. Williams-Young, 
 F. Ding, F. Lipparini, F. Egidi, J. Goings, B. Peng, A. Petrone, 
 T. Henderson, D. Ranasinghe, V. G. Zakrzewski, J. Gao, N. Rega, 
 G. Zheng, W. Liang, M. Hada, M. Ehara, K. Toyota, R. Fukuda, 
 J. Hasegawa, M. Ishida, T. Nakajima, Y. Honda, O. Kitao, H. Nakai, 
 T. Vreven, K. Throssell, J. A. Montgomery, Jr., J. E. Peralta, 
 F. Ogliaro, M. J. Bearpark, J. J. Heyd, E. N. Brothers, K. N. Kudin, 
 V. N. Staroverov, T. A. Keith, R. Kobayashi, J. Normand, 
 K. Raghavachari, A. P. Rendell, J. C. Burant, S. S. Iyengar, 
 J. Tomasi, M. Cossi, J. M. Millam, M. Klene, C. Adamo, R. Cammi, 
 J. W. Ochterski, R. L. Martin, K. Morokuma, O. Farkas, 
 J. B. Foresman, and D. J. Fox, Gaussian, Inc., Wallingford CT, 2019.
 
 ******************************************
 Gaussian 16:  ES64L-G16RevC.01  3-Jul-2019
                 1-Jun-2022 
 ******************************************
 %mem=8gb
 %nproc=4
 Will use up to    4 processors via shared memory.
 %chk=conf-123.chk
 ----------------------------------------------------------------------
 # B3LYP/6-31G* empiricaldispersion=gd3 guess=read geom=check nosymm in
 tegral(ultrafinegrid)
 ----------------------------------------------------------------------
 1/29=2,38=1,172=1/1;
 2/12=2,15=1,40=1/2;
 3/5=1,6=6,7=1,11=2,14=-4,25=1,30=1,74=-5,75=-5,116=-2,124=31/1,2,3;
 4/5=1/1;
 5/5=2,38=6/2;
 6/7=2,8=2,9=2,10=2,28=1/1;
 99/5=1,9=1/99;
 ------------------------------------------------------
 Candidate Structure: Conf:123 Charge calc in gas phase
 ------------------------------------------------------
 Structure from the checkpoint file:  "conf-123.chk"
 Charge =  1 Multiplicity = 1
 Redundant internal coordinates found in file.  (old form).
 N,0,-1.7847139672,1.1846693198,-4.4524726729
 H,0,-1.7080377899,0.8991679182,-5.4520494524
 H,0,-2.7563074288,1.3014837588,-4.1536811763
 H,0,-1.3037480163,2.1204566702,-4.3191312657
 C,0,-1.0794931047,0.1545063163,-3.6215068588
 H,0,-1.6338220633,-0.7858912017,-3.7226928872
 C,0,-1.1654273126,0.6548583019,-2.15976215
 C,0,0.3738079468,-0.0182571142,-4.1243005037
 H,0,0.9959748735,-0.3389038821,-3.2830224017
 H,0,0.774397781,0.9610717075,-4.4136225219
 O,0,-1.7049737996,1.7349551596,-1.9235838664
 C,0,0.579063475,-1.0436926852,-5.2494103018
 H,0,1.6507370525,-1.2074090101,-5.4027361244
 H,0,0.1762361895,-2.0247302891,-4.9598441581
 C,0,-0.0309656285,-0.7038753486,-6.5919939622
 O,0,-0.9228994277,0.11215648,-6.795408817
 O,0,0.5029813952,-1.4282068003,-7.5741639362
 N,0,-0.6136653316,-0.16948123,-1.2462010348
 H,0,-0.1009263787,-0.9731290617,-1.6017897249
 C,0,0.0326901079,0.3408029535,-0.0301006217
 H,0,-0.2334024741,1.3951268734,0.0595294428
 C,0,1.5454498381,0.206515501,-0.313799325
 C,0,-0.3820556475,-0.4346386961,1.2287003394
 H,0,0.1540135565,0.0027083941,2.0824001245
 H,0,-0.0250328509,-1.4690508633,1.1346575049
 O,0,1.9531438205,-0.6450565912,-1.113466202
 C,0,-1.8960020605,-0.4294422432,1.5116938582
 H,0,-2.3916783655,-0.923587064,0.6637960666
 C,0,-2.1855182681,-1.2466019709,2.7787248942
 H,0,-1.7225477409,-0.7811044847,3.65798277
 H,0,-3.2630845039,-1.3097855094,2.964972345
 H,0,-1.7970641726,-2.2685497038,2.6970131018
 C,0,-2.4621039778,0.993629425,1.6307782701
 H,0,-1.9328206062,1.5610949232,2.4078797598
 H,0,-2.3887045109,1.5473539241,0.6881618098
 H,0,-3.5206504917,0.9626226561,1.9110398065
 N,0,2.3472774832,1.0688824208,0.3320962558
 H,0,1.9558164253,1.7542932826,0.9670389836
 C,0,3.7695394535,1.201335099,0.0498365019
 H,0,4.1339354026,0.2437291692,-0.3289791209
 C,0,4.470948871,1.5471184569,1.3566025424
 C,0,4.0287774498,2.3316260641,-0.9800844394
 H,0,5.1098518313,2.4932941632,-1.0595346793
 H,0,3.5891700737,3.2476359159,-0.5660791855
 O,0,3.9114041857,2.0115079368,2.3251258518
 C,0,3.4055435836,2.0535132661,-2.3565878364
 H,0,4.021048229,1.3394829026,-2.9160875794
 H,0,2.4349319498,1.5841029695,-2.2154665186
 C,0,3.1813467536,3.3421064717,-3.1773766997
 H,0,3.9564318407,3.4691450737,-3.9380219886
 H,0,3.2160200384,4.2180574042,-2.51753646
 N,0,1.8885916816,3.3293194171,-3.8869949714
 H,0,1.905356311,3.7667210821,-4.7997714184
 N,0,-0.4412216529,3.6937872894,-3.960039476
 H,0,-1.1711741037,4.1463139028,-3.4132825923
 H,0,-0.2752506152,4.2577664398,-4.7936105733
 N,0,0.7419147484,3.4451877665,-1.8715094649
 H,0,-0.1990634556,3.5135269518,-1.4871441178
 C,0,0.7370846151,3.5292480752,-3.1471288993
 O,0,5.7956451497,1.3299544472,1.2743604459
 H,0,6.1922797571,1.6171127711,2.1195214697
 H,0,0.0492912859,-1.2014539126,-8.4099208784
 Recover connectivity data from disk.
                           ----------------------------
                           !    Current Parameters    !
                           ! (Angstroms and Degrees)  !
 --------------------------                            --------------------------
 ! Name  Definition              Value                                          !
 --------------------------------------------------------------------------------
 ! R1    R(1,2)                  1.0424                                         !
 ! R2    R(1,3)                  1.0232                                         !
 ! R3    R(1,4)                  1.0606                                         !
 ! R4    R(1,5)                  1.4997                                         !
 ! R5    R(5,6)                  1.0963                                         !
 ! R6    R(5,7)                  1.5474                                         !
 ! R7    R(5,8)                  1.5475                                         !
 ! R8    R(7,11)                 1.2302                                         !
 ! R9    R(7,18)                 1.3485                                         !
 ! R10   R(8,9)                  1.0944                                         !
 ! R11   R(8,10)                 1.0969                                         !
 ! R12   R(8,12)                 1.5361                                         !
 ! R13   R(12,13)                1.0949                                         !
 ! R14   R(12,14)                1.0993                                         !
 ! R15   R(12,15)                1.5133                                         !
 ! R16   R(15,16)                1.2259                                         !
 ! R17   R(15,17)                1.3321                                         !
 ! R18   R(17,62)                0.9776                                         !
 ! R19   R(18,19)                1.0174                                         !
 ! R20   R(18,20)                1.4687                                         !
 ! R21   R(20,21)                1.0911                                         !
 ! R22   R(20,22)                1.545                                          !
 ! R23   R(20,23)                1.5355                                         !
 ! R24   R(22,26)                1.2373                                         !
 ! R25   R(22,37)                1.3431                                         !
 ! R26   R(23,24)                1.0988                                         !
 ! R27   R(23,25)                1.0983                                         !
 ! R28   R(23,27)                1.5402                                         !
 ! R29   R(27,28)                1.0995                                         !
 ! R30   R(27,29)                1.5352                                         !
 ! R31   R(27,33)                1.5362                                         !
 ! R32   R(29,30)                1.0973                                         !
 ! R33   R(29,31)                1.0954                                         !
 ! R34   R(29,32)                1.0963                                         !
 ! R35   R(33,34)                1.0982                                         !
 ! R36   R(33,35)                1.0957                                         !
 ! R37   R(33,36)                1.0955                                         !
 ! R38   R(37,38)                1.013                                          !
 ! R39   R(37,39)                1.456                                          !
 ! R40   R(39,40)                1.0924                                         !
 ! R41   R(39,41)                1.5229                                         !
 ! R42   R(39,42)                1.551                                          !
 ! R43   R(41,45)                1.2111                                         !
 ! R44   R(41,60)                1.3449                                         !
 ! R45   R(42,43)                1.096                                          !
 ! R46   R(42,44)                1.0971                                         !
 ! R47   R(42,46)                1.5364                                         !
 ! R48   R(46,47)                1.0962                                         !
 ! R49   R(46,48)                1.0874                                         !
 ! R50   R(46,49)                1.5442                                         !
 ! R51   R(49,50)                1.0934                                         !
 ! R52   R(49,51)                1.0972                                         !
 ! R53   R(49,52)                1.4748                                         !
 ! R54   R(52,53)                1.0123                                         !
 ! R55   R(52,59)                1.3832                                         !
 ! R56   R(54,55)                1.0181                                         !
 ! R57   R(54,56)                1.02                                           !
 ! R58   R(54,59)                1.4409                                         !
 ! R59   R(57,58)                1.0187                                         !
 ! R60   R(57,59)                1.2784                                         !
 ! R61   R(60,61)                0.9768                                         !
 ! A1    A(2,1,3)              112.4049                                         !
 ! A2    A(2,1,4)              109.2005                                         !
 ! A3    A(2,1,5)              107.9753                                         !
 ! A4    A(3,1,4)              107.0485                                         !
 ! A5    A(3,1,5)              111.2937                                         !
 ! A6    A(4,1,5)              108.8553                                         !
 ! A7    A(1,5,6)              107.4767                                         !
 ! A8    A(1,5,7)              105.9734                                         !
 ! A9    A(1,5,8)              109.7721                                         !
 ! A10   A(6,5,7)              109.6624                                         !
 ! A11   A(6,5,8)              110.4327                                         !
 ! A12   A(7,5,8)              113.2771                                         !
 ! A13   A(5,7,11)             119.3139                                         !
 ! A14   A(5,7,18)             114.8071                                         !
 ! A15   A(11,7,18)            125.8783                                         !
 ! A16   A(5,8,9)              108.4727                                         !
 ! A17   A(5,8,10)             109.2073                                         !
 ! A18   A(5,8,12)             115.9764                                         !
 ! A19   A(9,8,10)             104.8757                                         !
 ! A20   A(9,8,12)             106.9478                                         !
 ! A21   A(10,8,12)            110.7328                                         !
 ! A22   A(8,12,13)            109.4619                                         !
 ! A23   A(8,12,14)            110.7222                                         !
 ! A24   A(8,12,15)            116.4907                                         !
 ! A25   A(13,12,14)           105.1949                                         !
 ! A26   A(13,12,15)           107.6917                                         !
 ! A27   A(14,12,15)           106.6401                                         !
 ! A28   A(12,15,16)           126.1552                                         !
 ! A29   A(12,15,17)           111.7437                                         !
 ! A30   A(16,15,17)           122.0904                                         !
 ! A31   A(15,17,62)           108.5534                                         !
 ! A32   A(7,18,19)            116.889                                          !
 ! A33   A(7,18,20)            121.9117                                         !
 ! A34   A(19,18,20)           110.0009                                         !
 ! A35   A(18,20,21)           107.2433                                         !
 ! A36   A(18,20,22)           104.3986                                         !
 ! A37   A(18,20,23)           112.6104                                         !
 ! A38   A(21,20,22)           109.7473                                         !
 ! A39   A(21,20,23)           110.7794                                         !
 ! A40   A(22,20,23)           111.7836                                         !
 ! A41   A(20,22,26)           120.0754                                         !
 ! A42   A(20,22,37)           116.1326                                         !
 ! A43   A(26,22,37)           123.7816                                         !
 ! A44   A(20,23,24)           107.706                                          !
 ! A45   A(20,23,25)           108.5189                                         !
 ! A46   A(20,23,27)           114.4827                                         !
 ! A47   A(24,23,25)           106.4267                                         !
 ! A48   A(24,23,27)           109.5998                                         !
 ! A49   A(25,23,27)           109.7816                                         !
 ! A50   A(23,27,28)           107.4541                                         !
 ! A51   A(23,27,29)           109.5857                                         !
 ! A52   A(23,27,33)           112.3096                                         !
 ! A53   A(28,27,29)           108.1934                                         !
 ! A54   A(28,27,33)           108.0592                                         !
 ! A55   A(29,27,33)           111.0764                                         !
 ! A56   A(27,29,30)           110.8507                                         !
 ! A57   A(27,29,31)           110.8883                                         !
 ! A58   A(27,29,32)           111.5816                                         !
 ! A59   A(30,29,31)           107.6547                                         !
 ! A60   A(30,29,32)           107.7977                                         !
 ! A61   A(31,29,32)           107.9066                                         !
 ! A62   A(27,33,34)           110.8504                                         !
 ! A63   A(27,33,35)           112.1348                                         !
 ! A64   A(27,33,36)           110.4697                                         !
 ! A65   A(34,33,35)           108.3812                                         !
 ! A66   A(34,33,36)           107.4159                                         !
 ! A67   A(35,33,36)           107.4057                                         !
 ! A68   A(22,37,38)           120.3429                                         !
 ! A69   A(22,37,39)           123.2541                                         !
 ! A70   A(38,37,39)           115.9399                                         !
 ! A71   A(37,39,40)           108.2596                                         !
 ! A72   A(37,39,41)           107.7104                                         !
 ! A73   A(37,39,42)           110.9954                                         !
 ! A74   A(40,39,41)           110.058                                          !
 ! A75   A(40,39,42)           110.6597                                         !
 ! A76   A(41,39,42)           109.1084                                         !
 ! A77   A(39,41,45)           124.0891                                         !
 ! A78   A(39,41,60)           111.3784                                         !
 ! A79   A(45,41,60)           124.4641                                         !
 ! A80   A(39,42,43)           108.6939                                         !
 ! A81   A(39,42,44)           106.9117                                         !
 ! A82   A(39,42,46)           113.2798                                         !
 ! A83   A(43,42,44)           107.4235                                         !
 ! A84   A(43,42,46)           111.2158                                         !
 ! A85   A(44,42,46)           109.0669                                         !
 ! A86   A(42,46,47)           110.3292                                         !
 ! A87   A(42,46,48)           108.9026                                         !
 ! A88   A(42,46,49)           112.5856                                         !
 ! A89   A(47,46,48)           106.6331                                         !
 ! A90   A(47,46,49)           110.7185                                         !
 ! A91   A(48,46,49)           107.4356                                         !
 ! A92   A(46,49,50)           111.3351                                         !
 ! A93   A(46,49,51)           109.9966                                         !
 ! A94   A(46,49,52)           112.0738                                         !
 ! A95   A(50,49,51)           107.6504                                         !
 ! A96   A(50,49,52)           106.7181                                         !
 ! A97   A(51,49,52)           108.9044                                         !
 ! A98   A(49,52,53)           114.5572                                         !
 ! A99   A(49,52,59)           118.1063                                         !
 ! A100  A(53,52,59)           115.6979                                         !
 ! A101  A(55,54,56)           108.0453                                         !
 ! A102  A(55,54,59)           109.5163                                         !
 ! A103  A(56,54,59)           113.0235                                         !
 ! A104  A(58,57,59)           111.6276                                         !
 ! A105  A(52,59,54)           113.2967                                         !
 ! A106  A(52,59,57)           121.404                                          !
 ! A107  A(54,59,57)           124.9965                                         !
 ! A108  A(41,60,61)           107.4328                                         !
 ! D1    D(2,1,5,6)            -65.3127                                         !
 ! D2    D(2,1,5,7)            177.4902                                         !
 ! D3    D(2,1,5,8)             54.8272                                         !
 ! D4    D(3,1,5,6)             58.503                                          !
 ! D5    D(3,1,5,7)            -58.6941                                         !
 ! D6    D(3,1,5,8)            178.6429                                         !
 ! D7    D(4,1,5,6)            176.2526                                         !
 ! D8    D(4,1,5,7)             59.0555                                         !
 ! D9    D(4,1,5,8)            -63.6075                                         !
 ! D10   D(1,5,7,11)            -2.1868                                         !
 ! D11   D(1,5,7,18)           178.1146                                         !
 ! D12   D(6,5,7,11)          -117.9085                                         !
 ! D13   D(6,5,7,18)            62.393                                          !
 ! D14   D(8,5,7,11)           118.2232                                         !
 ! D15   D(8,5,7,18)           -61.4754                                         !
 ! D16   D(1,5,8,9)            151.9021                                         !
 ! D17   D(1,5,8,10)            38.1358                                         !
 ! D18   D(1,5,8,12)           -87.7905                                         !
 ! D19   D(6,5,8,9)            -89.7723                                         !
 ! D20   D(6,5,8,10)           156.4614                                         !
 ! D21   D(6,5,8,12)            30.5351                                         !
 ! D22   D(7,5,8,9)             33.6738                                         !
 ! D23   D(7,5,8,10)           -80.0925                                         !
 ! D24   D(7,5,8,12)           153.9812                                         !
 ! D25   D(5,7,18,19)            7.1496                                         !
 ! D26   D(5,7,18,20)          147.2844                                         !
 ! D27   D(11,7,18,19)        -172.526                                          !
 ! D28   D(11,7,18,20)         -32.3912                                         !
 ! D29   D(5,8,12,13)         -170.2927                                         !
 ! D30   D(5,8,12,14)          -54.768                                          !
 ! D31   D(5,8,12,15)           67.2797                                         !
 ! D32   D(9,8,12,13)          -49.1657                                         !
 ! D33   D(9,8,12,14)           66.359                                          !
 ! D34   D(9,8,12,15)         -171.5933                                         !
 ! D35   D(10,8,12,13)          64.5571                                         !
 ! D36   D(10,8,12,14)        -179.9183                                         !
 ! D37   D(10,8,12,15)         -57.8706                                         !
 ! D38   D(8,12,15,16)         -19.0148                                         !
 ! D39   D(8,12,15,17)         162.1658                                         !
 ! D40   D(13,12,15,16)       -142.3625                                         !
 ! D41   D(13,12,15,17)         38.8181                                         !
 ! D42   D(14,12,15,16)        105.1503                                         !
 ! D43   D(14,12,15,17)        -73.6691                                         !
 ! D44   D(12,15,17,62)        177.4712                                         !
 ! D45   D(16,15,17,62)         -1.4036                                         !
 ! D46   D(7,18,20,21)          12.4905                                         !
 ! D47   D(7,18,20,22)        -103.9282                                         !
 ! D48   D(7,18,20,23)         134.6081                                         !
 ! D49   D(19,18,20,21)        155.0184                                         !
 ! D50   D(19,18,20,22)         38.5996                                         !
 ! D51   D(19,18,20,23)        -82.8641                                         !
 ! D52   D(18,20,22,26)        -25.9166                                         !
 ! D53   D(18,20,22,37)        152.9584                                         !
 ! D54   D(21,20,22,26)       -140.5825                                         !
 ! D55   D(21,20,22,37)         38.2925                                         !
 ! D56   D(23,20,22,26)         96.0925                                         !
 ! D57   D(23,20,22,37)        -85.0325                                         !
 ! D58   D(18,20,23,24)        179.3104                                         !
 ! D59   D(18,20,23,25)         64.4758                                         !
 ! D60   D(18,20,23,27)        -58.5289                                         !
 ! D61   D(21,20,23,24)        -60.5915                                         !
 ! D62   D(21,20,23,25)       -175.4261                                         !
 ! D63   D(21,20,23,27)         61.5691                                         !
 ! D64   D(22,20,23,24)         62.1474                                         !
 ! D65   D(22,20,23,25)        -52.6872                                         !
 ! D66   D(22,20,23,27)       -175.6919                                         !
 ! D67   D(20,22,37,38)          0.3253                                         !
 ! D68   D(20,22,37,39)       -171.5435                                         !
 ! D69   D(26,22,37,38)        179.154                                          !
 ! D70   D(26,22,37,39)          7.2852                                         !
 ! D71   D(20,23,27,28)         61.9862                                         !
 ! D72   D(20,23,27,29)        179.3259                                         !
 ! D73   D(20,23,27,33)        -56.7168                                         !
 ! D74   D(24,23,27,28)       -176.8907                                         !
 ! D75   D(24,23,27,29)        -59.551                                          !
 ! D76   D(24,23,27,33)         64.4064                                         !
 ! D77   D(25,23,27,28)        -60.3346                                         !
 ! D78   D(25,23,27,29)         57.0052                                         !
 ! D79   D(25,23,27,33)       -179.0375                                         !
 ! D80   D(23,27,29,30)         64.0421                                         !
 ! D81   D(23,27,29,31)       -176.4387                                         !
 ! D82   D(23,27,29,32)        -56.1165                                         !
 ! D83   D(28,27,29,30)       -179.0825                                         !
 ! D84   D(28,27,29,31)        -59.5633                                         !
 ! D85   D(28,27,29,32)         60.7589                                         !
 ! D86   D(33,27,29,30)        -60.6339                                         !
 ! D87   D(33,27,29,31)         58.8853                                         !
 ! D88   D(33,27,29,32)        179.2075                                         !
 ! D89   D(23,27,33,34)        -56.5066                                         !
 ! D90   D(23,27,33,35)         64.7726                                         !
 ! D91   D(23,27,33,36)       -175.4561                                         !
 ! D92   D(28,27,33,34)       -174.853                                          !
 ! D93   D(28,27,33,35)        -53.5739                                         !
 ! D94   D(28,27,33,36)         66.1974                                         !
 ! D95   D(29,27,33,34)         66.6174                                         !
 ! D96   D(29,27,33,35)       -172.1034                                         !
 ! D97   D(29,27,33,36)        -52.3321                                         !
 ! D98   D(22,37,39,40)        -27.827                                          !
 ! D99   D(22,37,39,41)       -146.8059                                         !
 ! D100  D(22,37,39,42)         93.8118                                         !
 ! D101  D(38,37,39,40)        159.9744                                         !
 ! D102  D(38,37,39,41)         40.9955                                         !
 ! D103  D(38,37,39,42)        -78.3867                                         !
 ! D104  D(37,39,41,45)        -19.872                                          !
 ! D105  D(37,39,41,60)        163.0237                                         !
 ! D106  D(40,39,41,45)       -137.6952                                         !
 ! D107  D(40,39,41,60)         45.2004                                         !
 ! D108  D(42,39,41,45)        100.7043                                         !
 ! D109  D(42,39,41,60)        -76.4001                                         !
 ! D110  D(37,39,42,43)        172.1904                                         !
 ! D111  D(37,39,42,44)         56.5149                                         !
 ! D112  D(37,39,42,46)        -63.6516                                         !
 ! D113  D(40,39,42,43)        -67.5861                                         !
 ! D114  D(40,39,42,44)        176.7384                                         !
 ! D115  D(40,39,42,46)         56.5719                                         !
 ! D116  D(41,39,42,43)         53.6489                                         !
 ! D117  D(41,39,42,44)        -62.0266                                         !
 ! D118  D(41,39,42,46)        177.8069                                         !
 ! D119  D(39,41,60,61)        176.8048                                         !
 ! D120  D(45,41,60,61)         -0.2866                                         !
 ! D121  D(39,42,46,47)        -77.9913                                         !
 ! D122  D(39,42,46,48)         38.7217                                         !
 ! D123  D(39,42,46,49)        157.7643                                         !
 ! D124  D(43,42,46,47)         44.7813                                         !
 ! D125  D(43,42,46,48)        161.4943                                         !
 ! D126  D(43,42,46,49)        -79.4632                                         !
 ! D127  D(44,42,46,47)        163.0768                                         !
 ! D128  D(44,42,46,48)        -80.2102                                         !
 ! D129  D(44,42,46,49)         38.8323                                         !
 ! D130  D(42,46,49,50)        101.7379                                         !
 ! D131  D(42,46,49,51)        -17.5064                                         !
 ! D132  D(42,46,49,52)       -138.813                                          !
 ! D133  D(47,46,49,50)        -22.2915                                         !
 ! D134  D(47,46,49,51)       -141.5359                                         !
 ! D135  D(47,46,49,52)         97.1575                                         !
 ! D136  D(48,46,49,50)       -138.3675                                         !
 ! D137  D(48,46,49,51)        102.3881                                         !
 ! D138  D(48,46,49,52)        -18.9184                                         !
 ! D139  D(46,49,52,53)       -143.9267                                         !
 ! D140  D(46,49,52,59)         74.3962                                         !
 ! D141  D(50,49,52,53)        -21.8043                                         !
 ! D142  D(50,49,52,59)       -163.4815                                         !
 ! D143  D(51,49,52,53)         94.1403                                         !
 ! D144  D(51,49,52,59)        -47.5369                                         !
 ! D145  D(49,52,59,54)        171.3569                                         !
 ! D146  D(49,52,59,57)        -14.661                                          !
 ! D147  D(53,52,59,54)         30.1059                                         !
 ! D148  D(53,52,59,57)       -155.912                                          !
 ! D149  D(55,54,59,52)       -160.535                                          !
 ! D150  D(55,54,59,57)         25.7361                                         !
 ! D151  D(56,54,59,52)        -40.0231                                         !
 ! D152  D(56,54,59,57)        146.248                                          !
 ! D153  D(58,57,59,52)       -173.5308                                         !
 ! D154  D(58,57,59,54)         -0.2812                                         !
 --------------------------------------------------------------------------------
 Symmetry turned off by external request.
 Stoichiometry    C17H33N6O6(1+)
 Framework group  C1[X(C17H33N6O6)]
 Deg. of freedom   180
 Full point group                 C1      NOp   1
                          Input orientation:                          
 ---------------------------------------------------------------------
 Center     Atomic      Atomic             Coordinates (Angstroms)
 Number     Number       Type             X           Y           Z
 ---------------------------------------------------------------------
      1          7           0       -1.784714    1.184669   -4.452473
      2          1           0       -1.708038    0.899168   -5.452049
      3          1           0       -2.756307    1.301484   -4.153681
      4          1           0       -1.303748    2.120457   -4.319131
      5          6           0       -1.079493    0.154506   -3.621507
      6          1           0       -1.633822   -0.785891   -3.722693
      7          6           0       -1.165427    0.654858   -2.159762
      8          6           0        0.373808   -0.018257   -4.124301
      9          1           0        0.995975   -0.338904   -3.283022
     10          1           0        0.774398    0.961072   -4.413623
     11          8           0       -1.704974    1.734955   -1.923584
     12          6           0        0.579063   -1.043693   -5.249410
     13          1           0        1.650737   -1.207409   -5.402736
     14          1           0        0.176236   -2.024730   -4.959844
     15          6           0       -0.030966   -0.703875   -6.591994
     16          8           0       -0.922899    0.112156   -6.795409
     17          8           0        0.502981   -1.428207   -7.574164
     18          7           0       -0.613665   -0.169481   -1.246201
     19          1           0       -0.100926   -0.973129   -1.601790
     20          6           0        0.032690    0.340803   -0.030101
     21          1           0       -0.233402    1.395127    0.059529
     22          6           0        1.545450    0.206516   -0.313799
     23          6           0       -0.382056   -0.434639    1.228700
     24          1           0        0.154014    0.002708    2.082400
     25          1           0       -0.025033   -1.469051    1.134658
     26          8           0        1.953144   -0.645057   -1.113466
     27          6           0       -1.896002   -0.429442    1.511694
     28          1           0       -2.391678   -0.923587    0.663796
     29          6           0       -2.185518   -1.246602    2.778725
     30          1           0       -1.722548   -0.781104    3.657983
     31          1           0       -3.263085   -1.309786    2.964972
     32          1           0       -1.797064   -2.268550    2.697013
     33          6           0       -2.462104    0.993629    1.630778
     34          1           0       -1.932821    1.561095    2.407880
     35          1           0       -2.388705    1.547354    0.688162
     36          1           0       -3.520650    0.962623    1.911040
     37          7           0        2.347277    1.068882    0.332096
     38          1           0        1.955816    1.754293    0.967039
     39          6           0        3.769539    1.201335    0.049837
     40          1           0        4.133935    0.243729   -0.328979
     41          6           0        4.470949    1.547118    1.356603
     42          6           0        4.028777    2.331626   -0.980084
     43          1           0        5.109852    2.493294   -1.059535
     44          1           0        3.589170    3.247636   -0.566079
     45          8           0        3.911404    2.011508    2.325126
     46          6           0        3.405544    2.053513   -2.356588
     47          1           0        4.021048    1.339483   -2.916088
     48          1           0        2.434932    1.584103   -2.215467
     49          6           0        3.181347    3.342106   -3.177377
     50          1           0        3.956432    3.469145   -3.938022
     51          1           0        3.216020    4.218057   -2.517536
     52          7           0        1.888592    3.329319   -3.886995
     53          1           0        1.905356    3.766721   -4.799771
     54          7           0       -0.441222    3.693787   -3.960039
     55          1           0       -1.171174    4.146314   -3.413283
     56          1           0       -0.275251    4.257766   -4.793611
     57          7           0        0.741915    3.445188   -1.871509
     58          1           0       -0.199063    3.513527   -1.487144
     59          6           0        0.737085    3.529248   -3.147129
     60          8           0        5.795645    1.329954    1.274360
     61          1           0        6.192280    1.617113    2.119521
     62          1           0        0.049291   -1.201454   -8.409921
 ---------------------------------------------------------------------
 Rotational constants (GHZ):           0.1762460           0.1136093           0.0883384
 Standard basis: 6-31G(d) (6D, 7F)
   501 basis functions,   944 primitive gaussians,   501 cartesian basis functions
   112 alpha electrons      112 beta electrons
       nuclear repulsion energy      3171.7803817780 Hartrees.
 NAtoms=   62 NActive=   62 NUniq=   62 SFac= 1.00D+00 NAtFMM=   60 NAOKFM=T Big=T
 Integral buffers will be    131072 words long.
 Raffenetti 2 integral format.
 Two-electron integral symmetry is turned off.
 Nuclear repulsion after empirical dispersion term =     3171.6956072997 Hartrees.
 One-electron integrals computed using PRISM.
 NBasis=   501 RedAO= T EigKep=  2.08D-03  NBF=   501
 NBsUse=   501 1.00D-06 EigRej= -1.00D+00 NBFU=   501
 Initial guess from the checkpoint file:  "conf-123.chk"
 B after Tr=     0.000000    0.000000    0.000000
         Rot=    1.000000    0.000000    0.000000    0.000000 Ang=   0.00 deg.
 Requested convergence on RMS density matrix=1.00D-08 within 128 cycles.
 Requested convergence on MAX density matrix=1.00D-06.
 Requested convergence on             energy=1.00D-06.
 No special actions if energy rises.
 SCF Done:  E(RB3LYP) =  -1447.49412989     A.U. after    1 cycles
            NFock=  1  Conv=0.43D-08     -V/T= 2.0093

 **********************************************************************

            Population analysis using the SCF Density.

 **********************************************************************

 Alpha  occ. eigenvalues --  -19.32890 -19.28512 -19.28510 -19.25131 -19.22947
 Alpha  occ. eigenvalues --  -19.21926 -14.55768 -14.48743 -14.47724 -14.46487
 Alpha  occ. eigenvalues --  -14.46164 -14.40113 -10.46341 -10.42241 -10.40987
 Alpha  occ. eigenvalues --  -10.39954 -10.39179 -10.38976 -10.33613 -10.33574
 Alpha  occ. eigenvalues --  -10.33181 -10.33084 -10.31667 -10.28093 -10.27719
 Alpha  occ. eigenvalues --  -10.27261 -10.26929 -10.24657 -10.24355  -1.24436
 Alpha  occ. eigenvalues --   -1.19479  -1.17221  -1.15430  -1.13851  -1.11020
 Alpha  occ. eigenvalues --   -1.10661  -1.09379  -1.04814  -1.02748  -1.00768
 Alpha  occ. eigenvalues --   -0.96088  -0.94114  -0.90495  -0.88834  -0.87230
 Alpha  occ. eigenvalues --   -0.84794  -0.82821  -0.79301  -0.77268  -0.75648
 Alpha  occ. eigenvalues --   -0.74416  -0.72833  -0.72255  -0.71538  -0.71180
 Alpha  occ. eigenvalues --   -0.69440  -0.69109  -0.68371  -0.67816  -0.65759
 Alpha  occ. eigenvalues --   -0.65603  -0.63995  -0.63821  -0.62950  -0.62569
 Alpha  occ. eigenvalues --   -0.60989  -0.59821  -0.59424  -0.58445  -0.58430
 Alpha  occ. eigenvalues --   -0.57146  -0.56969  -0.56819  -0.55916  -0.55459
 Alpha  occ. eigenvalues --   -0.54842  -0.54420  -0.54064  -0.53861  -0.53303
 Alpha  occ. eigenvalues --   -0.52439  -0.51757  -0.51206  -0.50800  -0.50532
 Alpha  occ. eigenvalues --   -0.50036  -0.49587  -0.49319  -0.48720  -0.48035
 Alpha  occ. eigenvalues --   -0.47160  -0.47011  -0.46546  -0.45566  -0.45470
 Alpha  occ. eigenvalues --   -0.44401  -0.44230  -0.44015  -0.43208  -0.42111
 Alpha  occ. eigenvalues --   -0.41014  -0.40560  -0.40526  -0.40378  -0.39961
 Alpha  occ. eigenvalues --   -0.38884  -0.38260  -0.37329  -0.36752  -0.35716
 Alpha  occ. eigenvalues --   -0.34974  -0.34141
 Alpha virt. eigenvalues --   -0.13005  -0.11786  -0.08175  -0.07761  -0.07565
 Alpha virt. eigenvalues --   -0.07074  -0.04866  -0.03955  -0.03344  -0.01151
 Alpha virt. eigenvalues --   -0.01040  -0.00592  -0.00218   0.00291   0.00482
 Alpha virt. eigenvalues --    0.01221   0.01833   0.02222   0.02680   0.03263
 Alpha virt. eigenvalues --    0.03884   0.04256   0.05030   0.05376   0.05946
 Alpha virt. eigenvalues --    0.06232   0.06834   0.07238   0.07663   0.07795
 Alpha virt. eigenvalues --    0.08282   0.08686   0.08915   0.09353   0.09686
 Alpha virt. eigenvalues --    0.10083   0.10409   0.10488   0.11231   0.11558
 Alpha virt. eigenvalues --    0.11979   0.12360   0.12679   0.13394   0.13700
 Alpha virt. eigenvalues --    0.14034   0.14533   0.15270   0.16158   0.16752
 Alpha virt. eigenvalues --    0.17333   0.18049   0.18981   0.19360   0.19522
 Alpha virt. eigenvalues --    0.20057   0.21120   0.22579   0.24214   0.24505
 Alpha virt. eigenvalues --    0.25103   0.27112   0.28281   0.30474   0.31441
 Alpha virt. eigenvalues --    0.33644   0.36133   0.37246   0.38800   0.40086
 Alpha virt. eigenvalues --    0.40393   0.41177   0.42273   0.42986   0.43137
 Alpha virt. eigenvalues --    0.43862   0.44153   0.45251   0.45495   0.46023
 Alpha virt. eigenvalues --    0.46771   0.47136   0.47415   0.48418   0.49036
 Alpha virt. eigenvalues --    0.49377   0.49888   0.50313   0.50347   0.51906
 Alpha virt. eigenvalues --    0.52118   0.52820   0.53083   0.53499   0.54382
 Alpha virt. eigenvalues --    0.55283   0.55858   0.56205   0.56439   0.57562
 Alpha virt. eigenvalues --    0.58306   0.58812   0.59377   0.59946   0.60800
 Alpha virt. eigenvalues --    0.61566   0.62334   0.62869   0.63638   0.63857
 Alpha virt. eigenvalues --    0.64907   0.65655   0.66334   0.66648   0.67034
 Alpha virt. eigenvalues --    0.67928   0.68263   0.68660   0.68945   0.70248
 Alpha virt. eigenvalues --    0.70702   0.71603   0.71840   0.72336   0.72823
 Alpha virt. eigenvalues --    0.73224   0.73817   0.74100   0.74607   0.74858
 Alpha virt. eigenvalues --    0.75811   0.76568   0.77155   0.77418   0.77695
 Alpha virt. eigenvalues --    0.77897   0.78145   0.79093   0.79331   0.79952
 Alpha virt. eigenvalues --    0.80337   0.80814   0.81006   0.81541   0.81647
 Alpha virt. eigenvalues --    0.82051   0.82594   0.83111   0.83802   0.84243
 Alpha virt. eigenvalues --    0.84299   0.84733   0.84860   0.85579   0.85813
 Alpha virt. eigenvalues --    0.86127   0.86666   0.87447   0.87675   0.88177
 Alpha virt. eigenvalues --    0.88493   0.89804   0.90258   0.90664   0.91199
 Alpha virt. eigenvalues --    0.92237   0.92883   0.93806   0.95097   0.95816
 Alpha virt. eigenvalues --    0.96395   0.97298   0.98188   0.99048   1.00142
 Alpha virt. eigenvalues --    1.01168   1.01739   1.02460   1.04210   1.05052
 Alpha virt. eigenvalues --    1.05958   1.06593   1.08779   1.09527   1.11265
 Alpha virt. eigenvalues --    1.12362   1.13727   1.16429   1.16913   1.17670
 Alpha virt. eigenvalues --    1.18880   1.19771   1.20726   1.22710   1.23616
 Alpha virt. eigenvalues --    1.24473   1.25502   1.26860   1.28016   1.28276
 Alpha virt. eigenvalues --    1.29192   1.30329   1.31603   1.33092   1.34568
 Alpha virt. eigenvalues --    1.35733   1.35952   1.37653   1.38354   1.39338
 Alpha virt. eigenvalues --    1.40384   1.40803   1.42321   1.43953   1.45081
 Alpha virt. eigenvalues --    1.46321   1.48848   1.49718   1.51817   1.52268
 Alpha virt. eigenvalues --    1.54028   1.55063   1.55920   1.56297   1.57272
 Alpha virt. eigenvalues --    1.57707   1.58544   1.59075   1.60603   1.60886
 Alpha virt. eigenvalues --    1.62004   1.62985   1.63872   1.64680   1.65115
 Alpha virt. eigenvalues --    1.66222   1.66682   1.66994   1.68478   1.69147
 Alpha virt. eigenvalues --    1.70026   1.70246   1.70648   1.71036   1.71477
 Alpha virt. eigenvalues --    1.71926   1.71979   1.72356   1.73268   1.74378
 Alpha virt. eigenvalues --    1.75822   1.77111   1.77784   1.78317   1.79553
 Alpha virt. eigenvalues --    1.79955   1.81085   1.81137   1.81852   1.82402
 Alpha virt. eigenvalues --    1.83365   1.83879   1.84942   1.85087   1.86170
 Alpha virt. eigenvalues --    1.86820   1.87675   1.88341   1.88988   1.90287
 Alpha virt. eigenvalues --    1.90389   1.90989   1.91460   1.92365   1.93283
 Alpha virt. eigenvalues --    1.94945   1.95279   1.96111   1.97039   1.98174
 Alpha virt. eigenvalues --    1.98938   1.99408   2.01195   2.01716   2.02567
 Alpha virt. eigenvalues --    2.03266   2.04575   2.05686   2.08222   2.08843
 Alpha virt. eigenvalues --    2.11370   2.13888   2.14780   2.16623   2.16706
 Alpha virt. eigenvalues --    2.17745   2.18261   2.19144   2.19844   2.21111
 Alpha virt. eigenvalues --    2.22326   2.22932   2.24259   2.24517   2.25729
 Alpha virt. eigenvalues --    2.26848   2.28302   2.28880   2.29717   2.30854
 Alpha virt. eigenvalues --    2.31583   2.32905   2.33612   2.34880   2.35657
 Alpha virt. eigenvalues --    2.36316   2.38005   2.38535   2.39682   2.40348
 Alpha virt. eigenvalues --    2.41813   2.43054   2.43668   2.45312   2.45604
 Alpha virt. eigenvalues --    2.46642   2.47963   2.49454   2.50284   2.51878
 Alpha virt. eigenvalues --    2.52035   2.52410   2.54852   2.56508   2.58578
 Alpha virt. eigenvalues --    2.60298   2.61298   2.62765   2.63260   2.64808
 Alpha virt. eigenvalues --    2.65733   2.68331   2.69265   2.71325   2.72853
 Alpha virt. eigenvalues --    2.74902   2.75406   2.79821   2.83037   2.85359
 Alpha virt. eigenvalues --    2.86197   2.86713   2.88507   2.90406   2.93565
 Alpha virt. eigenvalues --    2.94271   2.95571   3.01009   3.03527   3.09744
 Alpha virt. eigenvalues --    3.71620   3.76887   3.78693   3.79652   3.83578
 Alpha virt. eigenvalues --    3.90729   3.93391   3.96671   3.98737   4.02242
 Alpha virt. eigenvalues --    4.04702   4.08010   4.10770   4.11738   4.14939
 Alpha virt. eigenvalues --    4.19007   4.22005   4.23736   4.25737   4.28201
 Alpha virt. eigenvalues --    4.30817   4.33423   4.36905   4.43197   4.46319
 Alpha virt. eigenvalues --    4.47299   4.51594   4.56339   4.61980
          Condensed to atoms (all electrons):
 Mulliken charges:
               1
     1  N   -0.781795
     2  H    0.430565
     3  H    0.396079
     4  H    0.451088
     5  C   -0.129461
     6  H    0.205729
     7  C    0.641570
     8  C   -0.338294
     9  H    0.231387
    10  H    0.191202
    11  O   -0.538477
    12  C   -0.372571
    13  H    0.220701
    14  H    0.208890
    15  C    0.607779
    16  O   -0.503771
    17  O   -0.525155
    18  N   -0.569733
    19  H    0.349843
    20  C   -0.108690
    21  H    0.192390
    22  C    0.647634
    23  C   -0.264279
    24  H    0.155480
    25  H    0.153147
    26  O   -0.558628
    27  C   -0.067033
    28  H    0.129188
    29  C   -0.446101
    30  H    0.151450
    31  H    0.155988
    32  H    0.148091
    33  C   -0.470087
    34  H    0.144620
    35  H    0.155409
    36  H    0.157784
    37  N   -0.577788
    38  H    0.356931
    39  C   -0.064604
    40  H    0.207661
    41  C    0.591063
    42  C   -0.275789
    43  H    0.172489
    44  H    0.166000
    45  O   -0.458455
    46  C   -0.265830
    47  H    0.148204
    48  H    0.178288
    49  C   -0.136991
    50  H    0.158251
    51  H    0.174668
    52  N   -0.587378
    53  H    0.323768
    54  N   -0.810933
    55  H    0.358271
    56  H    0.338708
    57  N   -0.632666
    58  H    0.309670
    59  C    0.567823
    60  O   -0.558887
    61  H    0.427906
    62  H    0.437680
 Sum of Mulliken charges =   1.00000
 Mulliken charges with hydrogens summed into heavy atoms:
               1
     1  N    0.495938
     5  C    0.076268
     7  C    0.641570
     8  C    0.084294
    11  O   -0.538477
    12  C    0.057019
    15  C    0.607779
    16  O   -0.503771
    17  O   -0.087475
    18  N   -0.219890
    20  C    0.083700
    22  C    0.647634
    23  C    0.044348
    26  O   -0.558628
    27  C    0.062155
    29  C    0.009428
    33  C   -0.012273
    37  N   -0.220857
    39  C    0.143057
    41  C    0.591063
    42  C    0.062700
    45  O   -0.458455
    46  C    0.060661
    49  C    0.195928
    52  N   -0.263610
    54  N   -0.113954
    57  N   -0.322996
    59  C    0.567823
    60  O   -0.130980
 Electronic spatial extent (au):  <R**2>=          16951.8309
 Charge=              1.0000 electrons
 Dipole moment (field-independent basis, Debye):
    X=              0.2790    Y=              6.2762    Z=            -19.4379  Tot=             20.4279
 Quadrupole moment (field-independent basis, Debye-Ang):
   XX=           -134.2541   YY=           -139.0145   ZZ=            -51.7525
   XY=             10.0243   XZ=             12.5778   YZ=            -26.2293
 Traceless Quadrupole moment (field-independent basis, Debye-Ang):
   XX=            -25.9137   YY=            -30.6742   ZZ=             56.5879
   XY=             10.0243   XZ=             12.5778   YZ=            -26.2293
 Octapole moment (field-independent basis, Debye-Ang**2):
  XXX=           -258.7185  YYY=           -375.3962  ZZZ=            163.2650  XYY=           -127.2658
  XXY=            -82.7919  XXZ=            288.4396  XZZ=           -154.9469  YZZ=            -73.5382
  YYZ=            138.9657  XYZ=             -9.8410
 Hexadecapole moment (field-independent basis, Debye-Ang**3):
 XXXX=          -4853.6970 YYYY=          -3084.7736 ZZZZ=          -6297.2850 XXXY=           -665.0984
 XXXZ=            654.1260 YYYX=          -1038.2559 YYYZ=            260.4651 ZZZX=            334.4257
 ZZZY=            666.8850 XXYY=          -1417.8310 XXZZ=          -2495.4538 YYZZ=          -1755.4863
 XXYZ=            202.1203 YYXZ=             60.1479 ZZXY=           -244.9102
 N-N= 3.171695607300D+03 E-N=-9.694003673835D+03  KE= 1.434096944224D+03
 Unable to Open any file for archive entry.
 1\1\GINC-AMR-152\SP\RB3LYP\6-31G(d)\C17H33N6O6(1+)\KENGMITH\01-Jun-202
 2\0\\# B3LYP/6-31G* empiricaldispersion=gd3 guess=read geom=check nosy
 mm integral(ultrafinegrid)\\Candidate Structure: Conf:123 Charge calc 
 in gas phase\\1,1\N,0,-1.7847139672,1.1846693198,-4.4524726729\H,0,-1.
 7080377899,0.8991679182,-5.4520494524\H,0,-2.7563074288,1.3014837588,-
 4.1536811763\H,0,-1.3037480163,2.1204566702,-4.3191312657\C,0,-1.07949
 31047,0.1545063163,-3.6215068588\H,0,-1.6338220633,-0.7858912017,-3.72
 26928872\C,0,-1.1654273126,0.6548583019,-2.15976215\C,0,0.3738079468,-
 0.0182571142,-4.1243005037\H,0,0.9959748735,-0.3389038821,-3.283022401
 7\H,0,0.774397781,0.9610717075,-4.4136225219\O,0,-1.7049737996,1.73495
 51596,-1.9235838664\C,0,0.579063475,-1.0436926852,-5.2494103018\H,0,1.
 6507370525,-1.2074090101,-5.4027361244\H,0,0.1762361895,-2.0247302891,
 -4.9598441581\C,0,-0.0309656285,-0.7038753486,-6.5919939622\O,0,-0.922
 8994277,0.11215648,-6.795408817\O,0,0.5029813952,-1.4282068003,-7.5741
 639362\N,0,-0.6136653316,-0.16948123,-1.2462010348\H,0,-0.1009263787,-
 0.9731290617,-1.6017897249\C,0,0.0326901079,0.3408029535,-0.0301006217
 \H,0,-0.2334024741,1.3951268734,0.0595294428\C,0,1.5454498381,0.206515
 501,-0.313799325\C,0,-0.3820556475,-0.4346386961,1.2287003394\H,0,0.15
 40135565,0.0027083941,2.0824001245\H,0,-0.0250328509,-1.4690508633,1.1
 346575049\O,0,1.9531438205,-0.6450565912,-1.113466202\C,0,-1.896002060
 5,-0.4294422432,1.5116938582\H,0,-2.3916783655,-0.923587064,0.66379606
 66\C,0,-2.1855182681,-1.2466019709,2.7787248942\H,0,-1.7225477409,-0.7
 811044847,3.65798277\H,0,-3.2630845039,-1.3097855094,2.964972345\H,0,-
 1.7970641726,-2.2685497038,2.6970131018\C,0,-2.4621039778,0.993629425,
 1.6307782701\H,0,-1.9328206062,1.5610949232,2.4078797598\H,0,-2.388704
 5109,1.5473539241,0.6881618098\H,0,-3.5206504917,0.9626226561,1.911039
 8065\N,0,2.3472774832,1.0688824208,0.3320962558\H,0,1.9558164253,1.754
 2932826,0.9670389836\C,0,3.7695394535,1.201335099,0.0498365019\H,0,4.1
 339354026,0.2437291692,-0.3289791209\C,0,4.470948871,1.5471184569,1.35
 66025424\C,0,4.0287774498,2.3316260641,-0.9800844394\H,0,5.1098518313,
 2.4932941632,-1.0595346793\H,0,3.5891700737,3.2476359159,-0.5660791855
 \O,0,3.9114041857,2.0115079368,2.3251258518\C,0,3.4055435836,2.0535132
 661,-2.3565878364\H,0,4.021048229,1.3394829026,-2.9160875794\H,0,2.434
 9319498,1.5841029695,-2.2154665186\C,0,3.1813467536,3.3421064717,-3.17
 73766997\H,0,3.9564318407,3.4691450737,-3.9380219886\H,0,3.2160200384,
 4.2180574042,-2.51753646\N,0,1.8885916816,3.3293194171,-3.8869949714\H
 ,0,1.905356311,3.7667210821,-4.7997714184\N,0,-0.4412216529,3.69378728
 94,-3.960039476\H,0,-1.1711741037,4.1463139028,-3.4132825923\H,0,-0.27
 52506152,4.2577664398,-4.7936105733\N,0,0.7419147484,3.4451877665,-1.8
 715094649\H,0,-0.1990634556,3.5135269518,-1.4871441178\C,0,0.737084615
 1,3.5292480752,-3.1471288993\O,0,5.7956451497,1.3299544472,1.274360445
 9\H,0,6.1922797571,1.6171127711,2.1195214697\H,0,0.0492912859,-1.20145
 39126,-8.4099208784\\Version=ES64L-G16RevC.01\HF=-1447.4941299\RMSD=4.
 282e-09\Dipole=-1.4244889,0.6149577,-4.2238701\Quadrupole=-19.2662208,
 -22.8054868,42.0717076,7.4527984,9.3512917,-19.5008509\PG=C01 [X(C17H3
 3N6O6)]\\@
 The archive entry for this job was punched.


 Sorry, no quote for you today!
 Job cpu time:       0 days  0 hours  1 minutes  1.2 seconds.
 Elapsed time:       0 days  0 hours  0 minutes 15.8 seconds.
 File lengths (MBytes):  RWF=    248 Int=      0 D2E=      0 Chk=     32 Scr=     16
 Normal termination of Gaussian 16 at Wed Jun  1 02:21:21 2022.
