 Entering Gaussian System, Link 0=/opt/software/Gaussian/g16-AVX2-C.01/g16/g16
 Input=charge-conf-306.com
 Output=charge-conf-306.log
 Initial command:
 /opt/software/Gaussian/g16-AVX2-C.01/g16/l1.exe "/mnt/gs18/scratch/users/kengmith/Gau-9297.inp" -scrdir="/mnt/gs18/scratch/users/kengmith/"
 Entering Link 1 = /opt/software/Gaussian/g16-AVX2-C.01/g16/l1.exe PID=      9342.
  
 Copyright (c) 1988-2019, Gaussian, Inc.  All Rights Reserved.
  
 This is part of the Gaussian(R) 16 program.  It is based on
 the Gaussian(R) 09 system (copyright 2009, Gaussian, Inc.),
 the Gaussian(R) 03 system (copyright 2003, Gaussian, Inc.),
 the Gaussian(R) 98 system (copyright 1998, Gaussian, Inc.),
 the Gaussian(R) 94 system (copyright 1995, Gaussian, Inc.),
 the Gaussian 92(TM) system (copyright 1992, Gaussian, Inc.),
 the Gaussian 90(TM) system (copyright 1990, Gaussian, Inc.),
 the Gaussian 88(TM) system (copyright 1988, Gaussian, Inc.),
 the Gaussian 86(TM) system (copyright 1986, Carnegie Mellon
 University), and the Gaussian 82(TM) system (copyright 1983,
 Carnegie Mellon University). Gaussian is a federally registered
 trademark of Gaussian, Inc.
  
 This software contains proprietary and confidential information,
 including trade secrets, belonging to Gaussian, Inc.
  
 This software is provided under written license and may be
 used, copied, transmitted, or stored only in accord with that
 written license.
  
 The following legend is applicable only to US Government
 contracts under FAR:
  
                    RESTRICTED RIGHTS LEGEND
  
 Use, reproduction and disclosure by the US Government is
 subject to restrictions as set forth in subparagraphs (a)
 and (c) of the Commercial Computer Software - Restricted
 Rights clause in FAR 52.227-19.
  
 Gaussian, Inc.
 340 Quinnipiac St., Bldg. 40, Wallingford CT 06492
  
  
 ---------------------------------------------------------------
 Warning -- This program may not be used in any manner that
 competes with the business of Gaussian, Inc. or will provide
 assistance to any competitor of Gaussian, Inc.  The licensee
 of this program is prohibited from giving any competitor of
 Gaussian, Inc. access to this program.  By using this program,
 the user acknowledges that Gaussian, Inc. is engaged in the
 business of creating and licensing software in the field of
 computational chemistry and represents and warrants to the
 licensee that it is not a competitor of Gaussian, Inc. and that
 it will not use this program in any manner prohibited above.
 ---------------------------------------------------------------
  

 Cite this work as:
 Gaussian 16, Revision C.01,
 M. J. Frisch, G. W. Trucks, H. B. Schlegel, G. E. Scuseria, 
 M. A. Robb, J. R. Cheeseman, G. Scalmani, V. Barone, 
 G. A. Petersson, H. Nakatsuji, X. Li, M. Caricato, A. V. Marenich, 
 J. Bloino, B. G. Janesko, R. Gomperts, B. Mennucci, H. P. Hratchian, 
 J. V. Ortiz, A. F. Izmaylov, J. L. Sonnenberg, D. Williams-Young, 
 F. Ding, F. Lipparini, F. Egidi, J. Goings, B. Peng, A. Petrone, 
 T. Henderson, D. Ranasinghe, V. G. Zakrzewski, J. Gao, N. Rega, 
 G. Zheng, W. Liang, M. Hada, M. Ehara, K. Toyota, R. Fukuda, 
 J. Hasegawa, M. Ishida, T. Nakajima, Y. Honda, O. Kitao, H. Nakai, 
 T. Vreven, K. Throssell, J. A. Montgomery, Jr., J. E. Peralta, 
 F. Ogliaro, M. J. Bearpark, J. J. Heyd, E. N. Brothers, K. N. Kudin, 
 V. N. Staroverov, T. A. Keith, R. Kobayashi, J. Normand, 
 K. Raghavachari, A. P. Rendell, J. C. Burant, S. S. Iyengar, 
 J. Tomasi, M. Cossi, J. M. Millam, M. Klene, C. Adamo, R. Cammi, 
 J. W. Ochterski, R. L. Martin, K. Morokuma, O. Farkas, 
 J. B. Foresman, and D. J. Fox, Gaussian, Inc., Wallingford CT, 2019.
 
 ******************************************
 Gaussian 16:  ES64L-G16RevC.01  3-Jul-2019
                16-May-2022 
 ******************************************
 %mem=8gb
 %nproc=4
 Will use up to    4 processors via shared memory.
 %chk=conf-306.chk
 ----------------------------------------------------------------------
 # B3LYP/6-31G* empiricaldispersion=gd3 guess=read geom=check nosymm in
 tegral(ultrafinegrid)
 ----------------------------------------------------------------------
 1/29=2,38=1,172=1/1;
 2/12=2,15=1,40=1/2;
 3/5=1,6=6,7=1,11=2,14=-4,25=1,30=1,74=-5,75=-5,116=-2,124=31/1,2,3;
 4/5=1/1;
 5/5=2,38=6/2;
 6/7=2,8=2,9=2,10=2,28=1/1;
 99/5=1,9=1/99;
 ------------------------------------------------------
 Candidate Structure: Conf:306 Charge calc in gas phase
 ------------------------------------------------------
 Structure from the checkpoint file:  "conf-306.chk"
 Charge =  1 Multiplicity = 1
 Redundant internal coordinates found in file.  (old form).
 N,0,-5.7797404779,-2.7631813037,-3.4170591107
 H,0,-6.277795264,-3.023707036,-4.2718853995
 H,0,-5.1962245011,-3.5870957341,-3.107589389
 H,0,-6.4679769808,-2.4722161662,-2.7061660992
 C,0,-4.7403818045,-1.6897693968,-3.6435684778
 H,0,-4.9926914395,-1.1595027102,-4.5640903897
 C,0,-3.4199127437,-2.483018174,-3.7414909594
 C,0,-4.7019605556,-0.7192439819,-2.4341101994
 H,0,-4.2221164556,-1.2271143845,-1.5914764701
 H,0,-4.0303201599,0.1005558632,-2.7066911737
 O,0,-3.4219789137,-3.6601344158,-3.3647392826
 C,0,-6.0836706866,-0.219391739,-2.0803755991
 C,0,-6.7171487592,0.7583278883,-2.8616967057
 H,0,-6.1807278554,1.2173303423,-3.6897269254
 C,0,-6.786892313,-0.7924989994,-1.008480675
 H,0,-6.2925004164,-1.5224146204,-0.3692727531
 C,0,-8.0209618288,1.1590187029,-2.5739887987
 H,0,-8.495720026,1.926261783,-3.1785408538
 C,0,-8.0977204822,-0.3945281552,-0.7235055965
 H,0,-8.6252583687,-0.8367039692,0.1164814926
 C,0,-8.715550032,0.5797177864,-1.5069871912
 H,0,-9.7304929688,0.8947668556,-1.2843454226
 N,0,-2.3538887257,-1.809251426,-4.1795740794
 H,0,-2.4060871505,-0.7961287949,-4.2821698217
 C,0,-1.0113898936,-2.2268509794,-3.8039528906
 H,0,-0.8079013919,-3.2296785582,-4.1914223698
 C,0,-0.8922438821,-2.203504891,-2.2648001807
 C,0,-0.0359101253,-1.1872719354,-4.4264681883
 H,0,0.0412232624,-1.3830106159,-5.5010893673
 H,0,0.9561144362,-1.2914070719,-3.9720810657
 O,0,-1.6495278429,-1.5276332677,-1.5741266388
 O,0,-0.5570666279,0.1204083372,-4.2662345197
 H,0,-0.1728993302,0.5126783944,-3.4566738957
 N,0,0.1414065568,-2.9389202398,-1.7764579036
 H,0,0.8090621047,-3.2865838803,-2.4561870573
 C,0,0.7435603885,-2.5953910444,-0.4944282626
 H,0,-0.0659981322,-2.2998352204,0.1762955549
 C,0,1.7195849215,-1.4292771439,-0.7544232785
 C,0,1.4927810974,-3.7841022241,0.1063061676
 H,0,2.014671045,-3.4372470742,1.0135573989
 H,0,2.264600363,-4.117464766,-0.607236338
 O,0,2.3693195887,-1.3965675077,-1.7953275395
 O,0,0.5438115346,-4.794363872,0.3876392037
 H,0,1.0158620163,-5.5673935484,0.7329520133
 N,0,1.7648011268,-0.4752380594,0.2082234333
 H,0,1.3618411944,-0.6488898721,1.1216922853
 C,0,2.6162456872,0.6919207455,0.1076857805
 H,0,3.2282841289,0.5652503855,-0.7885150098
 C,0,3.4783772813,0.7941511154,1.3778725184
 C,0,1.7867705466,1.9874703483,0.0030703983
 H,0,1.1850885967,2.1257418517,0.9097514307
 H,0,2.4472891554,2.8620955481,-0.0552470006
 O,0,3.0635561357,0.3296329104,2.4443025257
 C,0,0.8568640589,2.0237723959,-1.1878627973
 O,0,0.7997426132,1.1851604433,-2.0666609793
 O,0,0.086516106,3.1250222462,-1.1673980538
 N,0,4.637367921,1.462062298,1.2253887153
 H,0,4.8523267706,1.9190814651,0.3436836792
 C,0,5.4267026638,1.941141752,2.3499808158
 H,0,4.7617196145,1.9832135603,3.2090123055
 C,0,5.8980885023,3.3659166515,2.0382346058
 C,0,6.6336268146,1.0271891347,2.6642514557
 H,0,7.36722406,1.5925904817,3.2482978591
 H,0,7.1132704744,0.7753009355,1.7108565895
 O,0,6.4205943683,4.014198049,3.0725485049
 C,0,6.2578620583,-0.2476253503,3.4277559045
 H,0,7.0959140486,-0.9542775704,3.3687781828
 H,0,5.3993618936,-0.7360169668,2.951076538
 C,0,5.9647439519,-0.0260019501,4.9207201471
 H,0,5.8768551708,-1.0050896234,5.4091752198
 H,0,6.7951979957,0.5044657796,5.3936297638
 N,0,4.7495293062,0.7239134482,5.2314804783
 H,0,3.8893947994,0.3717970352,4.8260938213
 N,0,5.7609778806,2.8205163793,5.4759915932
 H,0,5.6457049138,3.6790057614,6.0154411853
 H,0,6.3016875336,3.4919536359,3.9273747301
 N,0,3.5017306502,2.421070568,6.141643197
 H,0,3.0213691022,1.7436276137,6.7209379063
 H,0,3.4337119705,3.3714525329,6.480195584
 C,0,4.7327482062,2.036172226,5.6298506149
 O,0,5.8201404639,3.8399788325,0.9214153786
 H,0,-0.4631755851,3.120686977,-1.9735802087
 Recover connectivity data from disk.
                           ----------------------------
                           !    Current Parameters    !
                           ! (Angstroms and Degrees)  !
 --------------------------                            --------------------------
 ! Name  Definition              Value                                          !
 --------------------------------------------------------------------------------
 ! R1    R(1,2)                  1.0231                                         !
 ! R2    R(1,3)                  1.056                                          !
 ! R3    R(1,4)                  1.0314                                         !
 ! R4    R(1,5)                  1.5112                                         !
 ! R5    R(5,6)                  1.0919                                         !
 ! R6    R(5,7)                  1.5435                                         !
 ! R7    R(5,8)                  1.5512                                         !
 ! R8    R(7,11)                 1.2359                                         !
 ! R9    R(7,23)                 1.335                                          !
 ! R10   R(8,9)                  1.0946                                         !
 ! R11   R(8,10)                 1.0943                                         !
 ! R12   R(8,12)                 1.5113                                         !
 ! R13   R(12,13)                1.4027                                         !
 ! R14   R(12,15)                1.4043                                         !
 ! R15   R(13,14)                1.0881                                         !
 ! R16   R(13,17)                1.394                                          !
 ! R17   R(15,16)                1.0889                                         !
 ! R18   R(15,19)                1.3992                                         !
 ! R19   R(17,18)                1.0861                                         !
 ! R20   R(17,21)                1.3988                                         !
 ! R21   R(19,20)                1.086                                          !
 ! R22   R(19,21)                1.3945                                         !
 ! R23   R(21,22)                1.0858                                         !
 ! R24   R(23,24)                1.0196                                         !
 ! R25   R(23,25)                1.4553                                         !
 ! R26   R(25,26)                1.0942                                         !
 ! R27   R(25,27)                1.5439                                         !
 ! R28   R(25,28)                1.5556                                         !
 ! R29   R(27,31)                1.2277                                         !
 ! R30   R(27,34)                1.3593                                         !
 ! R31   R(28,29)                1.095                                          !
 ! R32   R(28,30)                1.0961                                         !
 ! R33   R(28,32)                1.4168                                         !
 ! R34   R(32,33)                0.9782                                         !
 ! R35   R(34,35)                1.0142                                         !
 ! R36   R(34,36)                1.4575                                         !
 ! R37   R(36,37)                1.0921                                         !
 ! R38   R(36,38)                1.5427                                         !
 ! R39   R(36,39)                1.5282                                         !
 ! R40   R(38,42)                1.2275                                         !
 ! R41   R(38,45)                1.3561                                         !
 ! R42   R(39,40)                1.1026                                         !
 ! R43   R(39,41)                1.1027                                         !
 ! R44   R(39,43)                1.4143                                         !
 ! R45   R(43,44)                0.9694                                         !
 ! R46   R(45,46)                1.0134                                         !
 ! R47   R(45,47)                1.4482                                         !
 ! R48   R(47,48)                1.0926                                         !
 ! R49   R(47,49)                1.5385                                         !
 ! R50   R(47,50)                1.5419                                         !
 ! R51   R(49,53)                1.235                                          !
 ! R52   R(49,57)                1.3463                                         !
 ! R53   R(50,51)                1.0969                                         !
 ! R54   R(50,52)                1.0976                                         !
 ! R55   R(50,54)                1.5114                                         !
 ! R56   R(54,55)                1.2161                                         !
 ! R57   R(54,56)                1.3441                                         !
 ! R58   R(56,82)                0.9758                                         !
 ! R59   R(57,58)                1.0161                                         !
 ! R60   R(57,59)                1.4551                                         !
 ! R61   R(59,60)                1.0872                                         !
 ! R62   R(59,61)                1.5328                                         !
 ! R63   R(59,62)                1.5462                                         !
 ! R64   R(61,65)                1.3278                                         !
 ! R65   R(61,81)                1.2158                                         !
 ! R66   R(62,63)                1.095                                          !
 ! R67   R(62,64)                1.0966                                         !
 ! R68   R(62,66)                1.5327                                         !
 ! R69   R(66,67)                1.0978                                         !
 ! R70   R(66,68)                1.0967                                         !
 ! R71   R(66,69)                1.5375                                         !
 ! R72   R(69,70)                1.0977                                         !
 ! R73   R(69,71)                1.093                                          !
 ! R74   R(69,72)                1.4614                                         !
 ! R75   R(72,73)                1.014                                          !
 ! R76   R(72,80)                1.3715                                         !
 ! R77   R(74,75)                1.0204                                         !
 ! R78   R(74,76)                1.7724                                         !
 ! R79   R(74,80)                1.3024                                         !
 ! R80   R(77,78)                1.0126                                         !
 ! R81   R(77,79)                1.0112                                         !
 ! R82   R(77,80)                1.3876                                         !
 ! A1    A(2,1,3)              108.3725                                         !
 ! A2    A(2,1,4)              108.8389                                         !
 ! A3    A(2,1,5)              112.9832                                         !
 ! A4    A(3,1,4)              112.7593                                         !
 ! A5    A(3,1,5)              102.5962                                         !
 ! A6    A(4,1,5)              111.2155                                         !
 ! A7    A(1,5,6)              108.2031                                         !
 ! A8    A(1,5,7)              103.4647                                         !
 ! A9    A(1,5,8)              110.156                                          !
 ! A10   A(6,5,7)              113.1901                                         !
 ! A11   A(6,5,8)              111.0514                                         !
 ! A12   A(7,5,8)              110.4761                                         !
 ! A13   A(5,7,11)             117.9494                                         !
 ! A14   A(5,7,23)             116.3954                                         !
 ! A15   A(11,7,23)            125.5934                                         !
 ! A16   A(5,8,9)              108.7097                                         !
 ! A17   A(5,8,10)             106.8405                                         !
 ! A18   A(5,8,12)             111.5171                                         !
 ! A19   A(9,8,10)             105.681                                          !
 ! A20   A(9,8,12)             111.9653                                         !
 ! A21   A(10,8,12)            111.8178                                         !
 ! A22   A(8,12,13)            120.8656                                         !
 ! A23   A(8,12,15)            120.0999                                         !
 ! A24   A(13,12,15)           118.9127                                         !
 ! A25   A(12,13,14)           119.6852                                         !
 ! A26   A(12,13,17)           120.5153                                         !
 ! A27   A(14,13,17)           119.7936                                         !
 ! A28   A(12,15,16)           119.6218                                         !
 ! A29   A(12,15,19)           120.5654                                         !
 ! A30   A(16,15,19)           119.7636                                         !
 ! A31   A(13,17,18)           119.8034                                         !
 ! A32   A(13,17,21)           120.188                                          !
 ! A33   A(18,17,21)           120.0081                                         !
 ! A34   A(15,19,20)           119.7882                                         !
 ! A35   A(15,19,21)           119.9552                                         !
 ! A36   A(20,19,21)           120.2513                                         !
 ! A37   A(17,21,19)           119.8615                                         !
 ! A38   A(17,21,22)           120.0279                                         !
 ! A39   A(19,21,22)           120.1084                                         !
 ! A40   A(7,23,24)            119.5774                                         !
 ! A41   A(7,23,25)            120.4716                                         !
 ! A42   A(24,23,25)           110.9971                                         !
 ! A43   A(23,25,26)           110.0698                                         !
 ! A44   A(23,25,27)           108.915                                          !
 ! A45   A(23,25,28)           106.4651                                         !
 ! A46   A(26,25,27)           110.6423                                         !
 ! A47   A(26,25,28)           110.7424                                         !
 ! A48   A(27,25,28)           109.9041                                         !
 ! A49   A(25,27,31)           121.436                                          !
 ! A50   A(25,27,34)           114.1197                                         !
 ! A51   A(31,27,34)           124.3863                                         !
 ! A52   A(25,28,29)           108.5082                                         !
 ! A53   A(25,28,30)           109.7647                                         !
 ! A54   A(25,28,32)           109.9315                                         !
 ! A55   A(29,28,30)           109.0318                                         !
 ! A56   A(29,28,32)           107.5709                                         !
 ! A57   A(30,28,32)           111.9453                                         !
 ! A58   A(28,32,33)           108.6187                                         !
 ! A59   A(27,34,35)           116.4398                                         !
 ! A60   A(27,34,36)           120.1762                                         !
 ! A61   A(35,34,36)           113.4747                                         !
 ! A62   A(34,36,37)           107.3236                                         !
 ! A63   A(34,36,38)           106.936                                          !
 ! A64   A(34,36,39)           111.4079                                         !
 ! A65   A(37,36,38)           111.5881                                         !
 ! A66   A(37,36,39)           109.4225                                         !
 ! A67   A(38,36,39)           110.1236                                         !
 ! A68   A(36,38,42)           119.8635                                         !
 ! A69   A(36,38,45)           115.6734                                         !
 ! A70   A(42,38,45)           124.4427                                         !
 ! A71   A(36,39,40)           108.1084                                         !
 ! A72   A(36,39,41)           108.9017                                         !
 ! A73   A(36,39,43)           107.7506                                         !
 ! A74   A(40,39,41)           107.2316                                         !
 ! A75   A(40,39,43)           112.2476                                         !
 ! A76   A(41,39,43)           112.4825                                         !
 ! A77   A(39,43,44)           108.2855                                         !
 ! A78   A(38,45,46)           120.4025                                         !
 ! A79   A(38,45,47)           122.5014                                         !
 ! A80   A(46,45,47)           115.7509                                         !
 ! A81   A(45,47,48)           107.0281                                         !
 ! A82   A(45,47,49)           109.0072                                         !
 ! A83   A(45,47,50)           111.4445                                         !
 ! A84   A(48,47,49)           111.7763                                         !
 ! A85   A(48,47,50)           110.066                                          !
 ! A86   A(49,47,50)           107.5558                                         !
 ! A87   A(47,49,53)           119.9802                                         !
 ! A88   A(47,49,57)           114.951                                          !
 ! A89   A(53,49,57)           124.999                                          !
 ! A90   A(47,50,51)           110.1768                                         !
 ! A91   A(47,50,52)           110.452                                          !
 ! A92   A(47,50,54)           113.8678                                         !
 ! A93   A(51,50,52)           105.8769                                         !
 ! A94   A(51,50,54)           108.1074                                         !
 ! A95   A(52,50,54)           108.0144                                         !
 ! A96   A(50,54,55)           125.5745                                         !
 ! A97   A(50,54,56)           111.119                                          !
 ! A98   A(55,54,56)           123.3048                                         !
 ! A99   A(54,56,82)           107.8576                                         !
 ! A100  A(49,57,58)           120.2333                                         !
 ! A101  A(49,57,59)           122.8734                                         !
 ! A102  A(58,57,59)           114.0664                                         !
 ! A103  A(57,59,60)           106.9552                                         !
 ! A104  A(57,59,61)           108.4022                                         !
 ! A105  A(57,59,62)           112.7001                                         !
 ! A106  A(60,59,61)           108.2311                                         !
 ! A107  A(60,59,62)           109.8602                                         !
 ! A108  A(61,59,62)           110.5321                                         !
 ! A109  A(59,61,65)           114.6089                                         !
 ! A110  A(59,61,81)           121.9765                                         !
 ! A111  A(65,61,81)           123.3955                                         !
 ! A112  A(59,62,63)           109.0356                                         !
 ! A113  A(59,62,64)           107.4869                                         !
 ! A114  A(59,62,66)           113.6726                                         !
 ! A115  A(63,62,64)           106.8168                                         !
 ! A116  A(63,62,66)           109.1488                                         !
 ! A117  A(64,62,66)           110.4429                                         !
 ! A118  A(62,66,67)           108.7515                                         !
 ! A119  A(62,66,68)           110.2298                                         !
 ! A120  A(62,66,69)           114.2391                                         !
 ! A121  A(67,66,68)           106.7128                                         !
 ! A122  A(67,66,69)           106.8871                                         !
 ! A123  A(68,66,69)           109.6945                                         !
 ! A124  A(66,69,70)           108.5894                                         !
 ! A125  A(66,69,71)           110.196                                          !
 ! A126  A(66,69,72)           116.0386                                         !
 ! A127  A(70,69,71)           107.5291                                         !
 ! A128  A(70,69,72)           107.2476                                         !
 ! A129  A(71,69,72)           106.9023                                         !
 ! A130  A(69,72,73)           116.242                                          !
 ! A131  A(69,72,80)           124.2583                                         !
 ! A132  A(73,72,80)           115.977                                          !
 ! A133  A(75,74,76)           100.2331                                         !
 ! A134  A(75,74,80)           110.7953                                         !
 ! A135  A(76,74,80)           124.906                                          !
 ! A136  A(78,77,79)           113.9138                                         !
 ! A137  A(78,77,80)           116.5065                                         !
 ! A138  A(79,77,80)           116.351                                          !
 ! A139  A(72,80,74)           122.1585                                         !
 ! A140  A(72,80,77)           112.5436                                         !
 ! A141  A(74,80,77)           125.2353                                         !
 ! D1    D(2,1,5,6)             21.2249                                         !
 ! D2    D(2,1,5,7)            -99.105                                          !
 ! D3    D(2,1,5,8)            142.7923                                         !
 ! D4    D(3,1,5,6)            137.686                                          !
 ! D5    D(3,1,5,7)             17.3561                                         !
 ! D6    D(3,1,5,8)           -100.7466                                         !
 ! D7    D(4,1,5,6)           -101.5194                                         !
 ! D8    D(4,1,5,7)            138.1507                                         !
 ! D9    D(4,1,5,8)             20.048                                          !
 ! D10   D(1,5,7,11)           -14.3007                                         !
 ! D11   D(1,5,7,23)           168.3976                                         !
 ! D12   D(6,5,7,11)          -131.1741                                         !
 ! D13   D(6,5,7,23)            51.5242                                         !
 ! D14   D(8,5,7,11)           103.579                                          !
 ! D15   D(8,5,7,23)           -73.7227                                         !
 ! D16   D(1,5,8,9)             73.403                                          !
 ! D17   D(1,5,8,10)          -172.9776                                         !
 ! D18   D(1,5,8,12)           -50.5159                                         !
 ! D19   D(6,5,8,9)           -166.7397                                         !
 ! D20   D(6,5,8,10)           -53.1203                                         !
 ! D21   D(6,5,8,12)            69.3414                                         !
 ! D22   D(7,5,8,9)            -40.2894                                         !
 ! D23   D(7,5,8,10)            73.33                                           !
 ! D24   D(7,5,8,12)          -164.2084                                         !
 ! D25   D(5,7,23,24)            9.8742                                         !
 ! D26   D(5,7,23,25)          154.1635                                         !
 ! D27   D(11,7,23,24)        -167.1944                                         !
 ! D28   D(11,7,23,25)         -22.905                                          !
 ! D29   D(5,8,12,13)          -75.6772                                         !
 ! D30   D(5,8,12,15)          100.2677                                         !
 ! D31   D(9,8,12,13)          162.263                                          !
 ! D32   D(9,8,12,15)          -21.7921                                         !
 ! D33   D(10,8,12,13)          43.8786                                         !
 ! D34   D(10,8,12,15)        -140.1765                                         !
 ! D35   D(8,12,13,14)          -4.5671                                         !
 ! D36   D(8,12,13,17)         176.3218                                         !
 ! D37   D(15,12,13,14)        179.4407                                         !
 ! D38   D(15,12,13,17)          0.3296                                         !
 ! D39   D(8,12,15,16)           6.4915                                         !
 ! D40   D(8,12,15,19)        -176.0647                                         !
 ! D41   D(13,12,15,16)       -177.4848                                         !
 ! D42   D(13,12,15,19)         -0.041                                          !
 ! D43   D(12,13,17,18)        179.2047                                         !
 ! D44   D(12,13,17,21)         -0.5405                                         !
 ! D45   D(14,13,17,18)          0.0946                                         !
 ! D46   D(14,13,17,21)       -179.6506                                         !
 ! D47   D(12,15,19,20)       -179.2007                                         !
 ! D48   D(12,15,19,21)         -0.0373                                         !
 ! D49   D(16,15,19,20)         -1.7605                                         !
 ! D50   D(16,15,19,21)        177.4029                                         !
 ! D51   D(13,17,21,19)          0.4578                                         !
 ! D52   D(13,17,21,22)        179.9144                                         !
 ! D53   D(18,17,21,19)       -179.2869                                         !
 ! D54   D(18,17,21,22)          0.1697                                         !
 ! D55   D(15,19,21,17)         -0.1698                                         !
 ! D56   D(15,19,21,22)       -179.6259                                         !
 ! D57   D(20,19,21,17)        178.9897                                         !
 ! D58   D(20,19,21,22)         -0.4664                                         !
 ! D59   D(7,23,25,26)          62.6543                                         !
 ! D60   D(7,23,25,27)         -58.8084                                         !
 ! D61   D(7,23,25,28)        -177.2684                                         !
 ! D62   D(24,23,25,26)       -150.2841                                         !
 ! D63   D(24,23,25,27)         88.2532                                         !
 ! D64   D(24,23,25,28)        -30.2068                                         !
 ! D65   D(23,25,27,31)        -21.5248                                         !
 ! D66   D(23,25,27,34)        161.1303                                         !
 ! D67   D(26,25,27,31)       -142.638                                          !
 ! D68   D(26,25,27,34)         40.0172                                         !
 ! D69   D(28,25,27,31)         94.7526                                         !
 ! D70   D(28,25,27,34)        -82.5923                                         !
 ! D71   D(23,25,28,29)        -75.5451                                         !
 ! D72   D(23,25,28,30)        165.3971                                         !
 ! D73   D(23,25,28,32)         41.8435                                         !
 ! D74   D(26,25,28,29)         44.0963                                         !
 ! D75   D(26,25,28,30)        -74.9615                                         !
 ! D76   D(26,25,28,32)        161.485                                          !
 ! D77   D(27,25,28,29)        166.6466                                         !
 ! D78   D(27,25,28,30)         47.5888                                         !
 ! D79   D(27,25,28,32)        -75.9648                                         !
 ! D80   D(25,27,34,35)         10.1456                                         !
 ! D81   D(25,27,34,36)        153.6359                                         !
 ! D82   D(31,27,34,35)       -167.1092                                         !
 ! D83   D(31,27,34,36)        -23.6189                                         !
 ! D84   D(25,28,32,33)         94.7801                                         !
 ! D85   D(29,28,32,33)       -147.2493                                         !
 ! D86   D(30,28,32,33)        -27.4898                                         !
 ! D87   D(27,34,36,37)         39.2422                                         !
 ! D88   D(27,34,36,38)        -80.617                                          !
 ! D89   D(27,34,36,39)        159.0065                                         !
 ! D90   D(35,34,36,37)       -176.2645                                         !
 ! D91   D(35,34,36,38)         63.8764                                         !
 ! D92   D(35,34,36,39)        -56.5002                                         !
 ! D93   D(34,36,38,42)        -36.6018                                         !
 ! D94   D(34,36,38,45)        141.8291                                         !
 ! D95   D(37,36,38,42)       -153.6821                                         !
 ! D96   D(37,36,38,45)         24.7487                                         !
 ! D97   D(39,36,38,42)         84.5921                                         !
 ! D98   D(39,36,38,45)        -96.977                                          !
 ! D99   D(34,36,39,40)        173.982                                          !
 ! D100  D(34,36,39,41)         57.7883                                         !
 ! D101  D(34,36,39,43)        -64.4887                                         !
 ! D102  D(37,36,39,40)        -67.5041                                         !
 ! D103  D(37,36,39,41)        176.3021                                         !
 ! D104  D(37,36,39,43)         54.0251                                         !
 ! D105  D(38,36,39,40)         55.4997                                         !
 ! D106  D(38,36,39,41)        -60.6941                                         !
 ! D107  D(38,36,39,43)        177.0289                                         !
 ! D108  D(36,38,45,46)         14.5968                                         !
 ! D109  D(36,38,45,47)       -179.2121                                         !
 ! D110  D(42,38,45,46)       -167.0532                                         !
 ! D111  D(42,38,45,47)         -0.8621                                         !
 ! D112  D(36,39,43,44)        177.5391                                         !
 ! D113  D(40,39,43,44)        -63.5435                                         !
 ! D114  D(41,39,43,44)         57.4995                                         !
 ! D115  D(38,45,47,48)         -5.6405                                         !
 ! D116  D(38,45,47,49)       -126.6958                                         !
 ! D117  D(38,45,47,50)        114.7453                                         !
 ! D118  D(46,45,47,48)        161.1472                                         !
 ! D119  D(46,45,47,49)         40.0919                                         !
 ! D120  D(46,45,47,50)        -78.467                                          !
 ! D121  D(45,47,49,53)        -27.9684                                         !
 ! D122  D(45,47,49,57)        154.9194                                         !
 ! D123  D(48,47,49,53)       -146.0767                                         !
 ! D124  D(48,47,49,57)         36.8111                                         !
 ! D125  D(50,47,49,53)         92.9991                                         !
 ! D126  D(50,47,49,57)        -84.1131                                         !
 ! D127  D(45,47,50,51)         62.4278                                         !
 ! D128  D(45,47,50,52)        179.05                                           !
 ! D129  D(45,47,50,54)        -59.2187                                         !
 ! D130  D(48,47,50,51)       -178.9893                                         !
 ! D131  D(48,47,50,52)        -62.3671                                         !
 ! D132  D(48,47,50,54)         59.3642                                         !
 ! D133  D(49,47,50,51)        -56.9965                                         !
 ! D134  D(49,47,50,52)         59.6257                                         !
 ! D135  D(49,47,50,54)       -178.643                                          !
 ! D136  D(47,49,57,58)          5.0076                                         !
 ! D137  D(47,49,57,59)        164.8296                                         !
 ! D138  D(53,49,57,58)       -171.9386                                         !
 ! D139  D(53,49,57,59)        -12.1167                                         !
 ! D140  D(47,50,54,55)         -5.3763                                         !
 ! D141  D(47,50,54,56)        175.0846                                         !
 ! D142  D(51,50,54,55)       -128.1628                                         !
 ! D143  D(51,50,54,56)         52.2981                                         !
 ! D144  D(52,50,54,55)        117.6951                                         !
 ! D145  D(52,50,54,56)        -61.844                                          !
 ! D146  D(50,54,56,82)        177.4718                                         !
 ! D147  D(55,54,56,82)         -2.0796                                         !
 ! D148  D(49,57,59,60)        -19.9531                                         !
 ! D149  D(49,57,59,61)       -136.4485                                         !
 ! D150  D(49,57,59,62)        100.8787                                         !
 ! D151  D(58,57,59,60)        140.9969                                         !
 ! D152  D(58,57,59,61)         24.5016                                         !
 ! D153  D(58,57,59,62)        -98.1713                                         !
 ! D154  D(57,59,61,65)        168.3113                                         !
 ! D155  D(57,59,61,81)        -13.2248                                         !
 ! D156  D(60,59,61,65)         52.6425                                         !
 ! D157  D(60,59,61,81)       -128.8936                                         !
 ! D158  D(62,59,61,65)        -67.7092                                         !
 ! D159  D(62,59,61,81)        110.7547                                         !
 ! D160  D(57,59,62,63)        160.063                                          !
 ! D161  D(57,59,62,64)         44.6224                                         !
 ! D162  D(57,59,62,66)        -77.9224                                         !
 ! D163  D(60,59,62,63)        -80.7804                                         !
 ! D164  D(60,59,62,64)        163.779                                          !
 ! D165  D(60,59,62,66)         41.2343                                         !
 ! D166  D(61,59,62,63)         38.5917                                         !
 ! D167  D(61,59,62,64)        -76.8489                                         !
 ! D168  D(61,59,62,66)        160.6063                                         !
 ! D169  D(59,62,66,67)        164.6684                                         !
 ! D170  D(59,62,66,68)         48.0039                                         !
 ! D171  D(59,62,66,69)        -76.0385                                         !
 ! D172  D(63,62,66,67)        -73.3797                                         !
 ! D173  D(63,62,66,68)        169.9558                                         !
 ! D174  D(63,62,66,69)         45.9134                                         !
 ! D175  D(64,62,66,67)         43.7672                                         !
 ! D176  D(64,62,66,68)        -72.8974                                         !
 ! D177  D(64,62,66,69)        163.0603                                         !
 ! D178  D(62,66,69,70)       -170.4427                                         !
 ! D179  D(62,66,69,71)        -52.9067                                         !
 ! D180  D(62,66,69,72)         68.7281                                         !
 ! D181  D(67,66,69,70)        -50.1037                                         !
 ! D182  D(67,66,69,71)         67.4322                                         !
 ! D183  D(67,66,69,72)       -170.933                                          !
 ! D184  D(68,66,69,70)         65.2287                                         !
 ! D185  D(68,66,69,71)       -177.2353                                         !
 ! D186  D(68,66,69,72)        -55.6005                                         !
 ! D187  D(66,69,72,73)         54.2671                                         !
 ! D188  D(66,69,72,80)       -103.6448                                         !
 ! D189  D(70,69,72,73)        -67.2789                                         !
 ! D190  D(70,69,72,80)        134.8092                                         !
 ! D191  D(71,69,72,73)        177.6369                                         !
 ! D192  D(71,69,72,80)         19.7251                                         !
 ! D193  D(69,72,80,74)         16.1131                                         !
 ! D194  D(69,72,80,77)       -166.6244                                         !
 ! D195  D(73,72,80,74)       -141.8514                                         !
 ! D196  D(73,72,80,77)         35.4111                                         !
 ! D197  D(75,74,80,72)       -166.9283                                         !
 ! D198  D(75,74,80,77)         16.1674                                         !
 ! D199  D(76,74,80,72)         73.289                                          !
 ! D200  D(76,74,80,77)       -103.6152                                         !
 ! D201  D(78,77,80,72)         39.3341                                         !
 ! D202  D(78,77,80,74)       -143.5033                                         !
 ! D203  D(79,77,80,72)        178.1449                                         !
 ! D204  D(79,77,80,74)         -4.6925                                         !
 --------------------------------------------------------------------------------
 Symmetry turned off by external request.
 Stoichiometry    C25H39N8O10(1+)
 Framework group  C1[X(C25H39N8O10)]
 Deg. of freedom   240
 Full point group                 C1      NOp   1
                          Input orientation:                          
 ---------------------------------------------------------------------
 Center     Atomic      Atomic             Coordinates (Angstroms)
 Number     Number       Type             X           Y           Z
 ---------------------------------------------------------------------
      1          7           0       -5.779740   -2.763181   -3.417059
      2          1           0       -6.277795   -3.023707   -4.271885
      3          1           0       -5.196225   -3.587096   -3.107589
      4          1           0       -6.467977   -2.472216   -2.706166
      5          6           0       -4.740382   -1.689769   -3.643568
      6          1           0       -4.992691   -1.159503   -4.564090
      7          6           0       -3.419913   -2.483018   -3.741491
      8          6           0       -4.701961   -0.719244   -2.434110
      9          1           0       -4.222116   -1.227114   -1.591476
     10          1           0       -4.030320    0.100556   -2.706691
     11          8           0       -3.421979   -3.660134   -3.364739
     12          6           0       -6.083671   -0.219392   -2.080376
     13          6           0       -6.717149    0.758328   -2.861697
     14          1           0       -6.180728    1.217330   -3.689727
     15          6           0       -6.786892   -0.792499   -1.008481
     16          1           0       -6.292500   -1.522415   -0.369273
     17          6           0       -8.020962    1.159019   -2.573989
     18          1           0       -8.495720    1.926262   -3.178541
     19          6           0       -8.097720   -0.394528   -0.723506
     20          1           0       -8.625258   -0.836704    0.116481
     21          6           0       -8.715550    0.579718   -1.506987
     22          1           0       -9.730493    0.894767   -1.284345
     23          7           0       -2.353889   -1.809251   -4.179574
     24          1           0       -2.406087   -0.796129   -4.282170
     25          6           0       -1.011390   -2.226851   -3.803953
     26          1           0       -0.807901   -3.229679   -4.191422
     27          6           0       -0.892244   -2.203505   -2.264800
     28          6           0       -0.035910   -1.187272   -4.426468
     29          1           0        0.041223   -1.383011   -5.501089
     30          1           0        0.956114   -1.291407   -3.972081
     31          8           0       -1.649528   -1.527633   -1.574127
     32          8           0       -0.557067    0.120408   -4.266235
     33          1           0       -0.172899    0.512678   -3.456674
     34          7           0        0.141407   -2.938920   -1.776458
     35          1           0        0.809062   -3.286584   -2.456187
     36          6           0        0.743560   -2.595391   -0.494428
     37          1           0       -0.065998   -2.299835    0.176296
     38          6           0        1.719585   -1.429277   -0.754423
     39          6           0        1.492781   -3.784102    0.106306
     40          1           0        2.014671   -3.437247    1.013557
     41          1           0        2.264600   -4.117465   -0.607236
     42          8           0        2.369320   -1.396568   -1.795328
     43          8           0        0.543812   -4.794364    0.387639
     44          1           0        1.015862   -5.567394    0.732952
     45          7           0        1.764801   -0.475238    0.208223
     46          1           0        1.361841   -0.648890    1.121692
     47          6           0        2.616246    0.691921    0.107686
     48          1           0        3.228284    0.565250   -0.788515
     49          6           0        3.478377    0.794151    1.377873
     50          6           0        1.786771    1.987470    0.003070
     51          1           0        1.185089    2.125742    0.909751
     52          1           0        2.447289    2.862096   -0.055247
     53          8           0        3.063556    0.329633    2.444303
     54          6           0        0.856864    2.023772   -1.187863
     55          8           0        0.799743    1.185160   -2.066661
     56          8           0        0.086516    3.125022   -1.167398
     57          7           0        4.637368    1.462062    1.225389
     58          1           0        4.852327    1.919081    0.343684
     59          6           0        5.426703    1.941142    2.349981
     60          1           0        4.761720    1.983214    3.209012
     61          6           0        5.898089    3.365917    2.038235
     62          6           0        6.633627    1.027189    2.664251
     63          1           0        7.367224    1.592590    3.248298
     64          1           0        7.113270    0.775301    1.710857
     65          8           0        6.420594    4.014198    3.072549
     66          6           0        6.257862   -0.247625    3.427756
     67          1           0        7.095914   -0.954278    3.368778
     68          1           0        5.399362   -0.736017    2.951077
     69          6           0        5.964744   -0.026002    4.920720
     70          1           0        5.876855   -1.005090    5.409175
     71          1           0        6.795198    0.504466    5.393630
     72          7           0        4.749529    0.723913    5.231480
     73          1           0        3.889395    0.371797    4.826094
     74          7           0        5.760978    2.820516    5.475992
     75          1           0        5.645705    3.679006    6.015441
     76          1           0        6.301688    3.491954    3.927375
     77          7           0        3.501731    2.421071    6.141643
     78          1           0        3.021369    1.743628    6.720938
     79          1           0        3.433712    3.371453    6.480196
     80          6           0        4.732748    2.036172    5.629851
     81          8           0        5.820140    3.839979    0.921415
     82          1           0       -0.463176    3.120687   -1.973580
 ---------------------------------------------------------------------
 Rotational constants (GHZ):           0.1214243           0.0285774           0.0271953
 Standard basis: 6-31G(d) (6D, 7F)
   723 basis functions,  1360 primitive gaussians,   723 cartesian basis functions
   162 alpha electrons      162 beta electrons
       nuclear repulsion energy      5331.5339899141 Hartrees.
 NAtoms=   82 NActive=   82 NUniq=   82 SFac= 1.00D+00 NAtFMM=   60 NAOKFM=T Big=T
 Integral buffers will be    131072 words long.
 Raffenetti 2 integral format.
 Two-electron integral symmetry is turned off.
 Nuclear repulsion after empirical dispersion term =     5331.4270404587 Hartrees.
 One-electron integrals computed using PRISM.
 NBasis=   723 RedAO= T EigKep=  4.75D-04  NBF=   723
 NBsUse=   723 1.00D-06 EigRej= -1.00D+00 NBFU=   723
 Initial guess from the checkpoint file:  "conf-306.chk"
 B after Tr=     0.000000    0.000000    0.000000
         Rot=    1.000000    0.000000    0.000000    0.000000 Ang=   0.00 deg.
 Requested convergence on RMS density matrix=1.00D-08 within 128 cycles.
 Requested convergence on MAX density matrix=1.00D-06.
 Requested convergence on             energy=1.00D-06.
 No special actions if energy rises.
 SCF Done:  E(RB3LYP) =  -2166.37551409     A.U. after    1 cycles
            NFock=  1  Conv=0.76D-08     -V/T= 2.0092

 **********************************************************************

            Population analysis using the SCF Density.

 **********************************************************************

 Alpha  occ. eigenvalues --  -19.29224 -19.25665 -19.24318 -19.22975 -19.22493
 Alpha  occ. eigenvalues --  -19.22342 -19.21139 -19.20074 -19.19893 -19.18207
 Alpha  occ. eigenvalues --  -14.58702 -14.47762 -14.44822 -14.44608 -14.43734
 Alpha  occ. eigenvalues --  -14.42064 -14.41350 -14.36396 -10.42324 -10.42238
 Alpha  occ. eigenvalues --  -10.39682 -10.37954 -10.37098 -10.37086 -10.36510
 Alpha  occ. eigenvalues --  -10.36006 -10.33216 -10.32680 -10.32646 -10.32294
 Alpha  occ. eigenvalues --  -10.32223 -10.31683 -10.31678 -10.30520 -10.30266
 Alpha  occ. eigenvalues --  -10.30013 -10.29931 -10.29737 -10.29653 -10.29425
 Alpha  occ. eigenvalues --  -10.27749 -10.24996 -10.24490  -1.20439  -1.18138
 Alpha  occ. eigenvalues --   -1.13906  -1.13380  -1.12692  -1.12126  -1.11601
 Alpha  occ. eigenvalues --   -1.11348  -1.10413  -1.09981  -1.05990  -1.04773
 Alpha  occ. eigenvalues --   -1.04650  -1.01539  -1.01165  -1.00330  -0.97186
 Alpha  occ. eigenvalues --   -0.95538  -0.92398  -0.91347  -0.88834  -0.87518
 Alpha  occ. eigenvalues --   -0.85783  -0.85591  -0.85388  -0.83386  -0.80938
 Alpha  occ. eigenvalues --   -0.78681  -0.78085  -0.74269  -0.73577  -0.73043
 Alpha  occ. eigenvalues --   -0.72557  -0.72379  -0.71302  -0.71082  -0.69687
 Alpha  occ. eigenvalues --   -0.69216  -0.68223  -0.67204  -0.66924  -0.66716
 Alpha  occ. eigenvalues --   -0.65433  -0.64803  -0.64500  -0.63496  -0.62317
 Alpha  occ. eigenvalues --   -0.61948  -0.61634  -0.61024  -0.60629  -0.60253
 Alpha  occ. eigenvalues --   -0.59313  -0.58806  -0.58244  -0.57621  -0.57178
 Alpha  occ. eigenvalues --   -0.56890  -0.56622  -0.55904  -0.55683  -0.55400
 Alpha  occ. eigenvalues --   -0.55259  -0.54408  -0.53719  -0.53564  -0.53235
 Alpha  occ. eigenvalues --   -0.53055  -0.53000  -0.52441  -0.52054  -0.51974
 Alpha  occ. eigenvalues --   -0.51346  -0.51244  -0.50757  -0.50289  -0.49896
 Alpha  occ. eigenvalues --   -0.49725  -0.49700  -0.49267  -0.48640  -0.48379
 Alpha  occ. eigenvalues --   -0.47644  -0.47408  -0.47218  -0.46861  -0.46237
 Alpha  occ. eigenvalues --   -0.45798  -0.45698  -0.45339  -0.45054  -0.45017
 Alpha  occ. eigenvalues --   -0.44776  -0.44038  -0.42826  -0.42160  -0.41674
 Alpha  occ. eigenvalues --   -0.41613  -0.41471  -0.40341  -0.40315  -0.40094
 Alpha  occ. eigenvalues --   -0.38629  -0.37784  -0.36851  -0.36368  -0.35829
 Alpha  occ. eigenvalues --   -0.35605  -0.35496  -0.35379  -0.34939  -0.34484
 Alpha  occ. eigenvalues --   -0.34289  -0.33592  -0.33099  -0.33063  -0.32421
 Alpha  occ. eigenvalues --   -0.31804  -0.29700
 Alpha virt. eigenvalues --   -0.12619  -0.11991  -0.10174  -0.09170  -0.08898
 Alpha virt. eigenvalues --   -0.07489  -0.06342  -0.05692  -0.04162  -0.03458
 Alpha virt. eigenvalues --   -0.03039  -0.01973  -0.01358  -0.01326  -0.00436
 Alpha virt. eigenvalues --   -0.00182   0.00274   0.00401   0.00621   0.00816
 Alpha virt. eigenvalues --    0.01333   0.02508   0.02998   0.03453   0.04238
 Alpha virt. eigenvalues --    0.04778   0.04830   0.04999   0.05333   0.05576
 Alpha virt. eigenvalues --    0.06154   0.06298   0.06427   0.07282   0.07619
 Alpha virt. eigenvalues --    0.07686   0.08382   0.08435   0.08552   0.08829
 Alpha virt. eigenvalues --    0.08984   0.09302   0.09515   0.09783   0.10157
 Alpha virt. eigenvalues --    0.10511   0.10705   0.10855   0.11637   0.11930
 Alpha virt. eigenvalues --    0.12008   0.12127   0.12605   0.12927   0.13181
 Alpha virt. eigenvalues --    0.13584   0.14057   0.14602   0.15112   0.15368
 Alpha virt. eigenvalues --    0.16490   0.16951   0.17178   0.17620   0.18215
 Alpha virt. eigenvalues --    0.18435   0.18641   0.19749   0.19937   0.20452
 Alpha virt. eigenvalues --    0.21208   0.21699   0.21931   0.21998   0.23126
 Alpha virt. eigenvalues --    0.23550   0.23922   0.24950   0.26741   0.28323
 Alpha virt. eigenvalues --    0.28726   0.28946   0.30010   0.31131   0.31405
 Alpha virt. eigenvalues --    0.32533   0.32726   0.33387   0.35238   0.35700
 Alpha virt. eigenvalues --    0.37199   0.37561   0.38415   0.40144   0.41977
 Alpha virt. eigenvalues --    0.42339   0.42620   0.43167   0.43518   0.44023
 Alpha virt. eigenvalues --    0.44301   0.44402   0.44649   0.45294   0.45509
 Alpha virt. eigenvalues --    0.45649   0.46153   0.46864   0.47138   0.47613
 Alpha virt. eigenvalues --    0.48078   0.48319   0.48453   0.48595   0.48869
 Alpha virt. eigenvalues --    0.49534   0.49817   0.50119   0.50266   0.51005
 Alpha virt. eigenvalues --    0.51121   0.51254   0.51788   0.52371   0.52578
 Alpha virt. eigenvalues --    0.52765   0.53205   0.53329   0.53884   0.54624
 Alpha virt. eigenvalues --    0.54787   0.55012   0.55230   0.55994   0.56117
 Alpha virt. eigenvalues --    0.56293   0.57180   0.57648   0.57766   0.58548
 Alpha virt. eigenvalues --    0.58757   0.59572   0.59709   0.60220   0.60759
 Alpha virt. eigenvalues --    0.60967   0.61219   0.62180   0.62610   0.63010
 Alpha virt. eigenvalues --    0.63505   0.63799   0.64369   0.64431   0.64847
 Alpha virt. eigenvalues --    0.65749   0.66055   0.66715   0.67013   0.68127
 Alpha virt. eigenvalues --    0.68516   0.69018   0.69609   0.69967   0.70557
 Alpha virt. eigenvalues --    0.70699   0.71208   0.71515   0.72056   0.72195
 Alpha virt. eigenvalues --    0.72682   0.73145   0.73401   0.73532   0.73711
 Alpha virt. eigenvalues --    0.73949   0.74304   0.74524   0.75211   0.75706
 Alpha virt. eigenvalues --    0.76148   0.76364   0.76671   0.76889   0.77285
 Alpha virt. eigenvalues --    0.77400   0.77879   0.78312   0.78871   0.79444
 Alpha virt. eigenvalues --    0.79636   0.79844   0.80227   0.80857   0.81106
 Alpha virt. eigenvalues --    0.81543   0.81653   0.82060   0.82168   0.82759
 Alpha virt. eigenvalues --    0.83052   0.83165   0.83381   0.83600   0.84181
 Alpha virt. eigenvalues --    0.84532   0.84619   0.85074   0.85366   0.85938
 Alpha virt. eigenvalues --    0.86288   0.86827   0.86929   0.87380   0.87946
 Alpha virt. eigenvalues --    0.88554   0.88719   0.88926   0.89537   0.89717
 Alpha virt. eigenvalues --    0.90102   0.90702   0.91700   0.91866   0.92026
 Alpha virt. eigenvalues --    0.92803   0.93106   0.93585   0.94031   0.94755
 Alpha virt. eigenvalues --    0.95014   0.96302   0.97031   0.98144   0.98584
 Alpha virt. eigenvalues --    0.98892   0.99302   1.00107   1.00480   1.00930
 Alpha virt. eigenvalues --    1.01508   1.02671   1.02933   1.03674   1.04590
 Alpha virt. eigenvalues --    1.04973   1.06050   1.06534   1.06596   1.07574
 Alpha virt. eigenvalues --    1.07983   1.08335   1.08841   1.09562   1.10570
 Alpha virt. eigenvalues --    1.11293   1.11723   1.12062   1.12842   1.13613
 Alpha virt. eigenvalues --    1.14332   1.14944   1.15831   1.16491   1.16779
 Alpha virt. eigenvalues --    1.17437   1.18549   1.19682   1.20298   1.21577
 Alpha virt. eigenvalues --    1.22686   1.24006   1.24998   1.25269   1.25732
 Alpha virt. eigenvalues --    1.26611   1.27542   1.27888   1.28394   1.29060
 Alpha virt. eigenvalues --    1.29689   1.30587   1.31625   1.32822   1.32906
 Alpha virt. eigenvalues --    1.34231   1.34830   1.35301   1.35851   1.36374
 Alpha virt. eigenvalues --    1.36961   1.37827   1.37981   1.39185   1.39755
 Alpha virt. eigenvalues --    1.40229   1.40452   1.41064   1.41470   1.42912
 Alpha virt. eigenvalues --    1.43408   1.43521   1.45609   1.46115   1.46940
 Alpha virt. eigenvalues --    1.47817   1.49086   1.49464   1.50835   1.51511
 Alpha virt. eigenvalues --    1.51880   1.53513   1.53532   1.55026   1.55446
 Alpha virt. eigenvalues --    1.56528   1.56957   1.57729   1.58430   1.59114
 Alpha virt. eigenvalues --    1.59875   1.60116   1.60828   1.61510   1.62580
 Alpha virt. eigenvalues --    1.63050   1.64135   1.64432   1.64614   1.65670
 Alpha virt. eigenvalues --    1.66597   1.66891   1.67936   1.68332   1.68429
 Alpha virt. eigenvalues --    1.69518   1.70042   1.70204   1.70516   1.70788
 Alpha virt. eigenvalues --    1.71233   1.71794   1.72363   1.72873   1.72978
 Alpha virt. eigenvalues --    1.73620   1.73725   1.74160   1.74281   1.74810
 Alpha virt. eigenvalues --    1.75351   1.75685   1.76540   1.76772   1.77354
 Alpha virt. eigenvalues --    1.78318   1.78797   1.79667   1.80345   1.80443
 Alpha virt. eigenvalues --    1.81082   1.81885   1.82116   1.82758   1.82946
 Alpha virt. eigenvalues --    1.83160   1.83934   1.84224   1.85432   1.85645
 Alpha virt. eigenvalues --    1.85901   1.86163   1.86349   1.86788   1.87064
 Alpha virt. eigenvalues --    1.88060   1.88540   1.89539   1.90345   1.91175
 Alpha virt. eigenvalues --    1.91723   1.91943   1.92259   1.92889   1.93018
 Alpha virt. eigenvalues --    1.94034   1.94441   1.94747   1.94806   1.95836
 Alpha virt. eigenvalues --    1.96134   1.97105   1.97774   1.98053   1.98622
 Alpha virt. eigenvalues --    1.99716   1.99866   2.00596   2.01592   2.01850
 Alpha virt. eigenvalues --    2.02604   2.03178   2.03310   2.03895   2.04319
 Alpha virt. eigenvalues --    2.04639   2.05552   2.05927   2.07261   2.07785
 Alpha virt. eigenvalues --    2.08314   2.08935   2.11093   2.11892   2.12396
 Alpha virt. eigenvalues --    2.12570   2.14544   2.15011   2.16389   2.16468
 Alpha virt. eigenvalues --    2.18631   2.18798   2.19117   2.20087   2.21448
 Alpha virt. eigenvalues --    2.22534   2.22830   2.23485   2.23872   2.24094
 Alpha virt. eigenvalues --    2.26004   2.27001   2.27196   2.27391   2.28040
 Alpha virt. eigenvalues --    2.29347   2.30547   2.30963   2.31934   2.32002
 Alpha virt. eigenvalues --    2.32477   2.34334   2.35077   2.36039   2.36684
 Alpha virt. eigenvalues --    2.37263   2.38096   2.38602   2.39171   2.39682
 Alpha virt. eigenvalues --    2.40488   2.41172   2.42235   2.43179   2.44441
 Alpha virt. eigenvalues --    2.45586   2.46694   2.47138   2.47240   2.47503
 Alpha virt. eigenvalues --    2.47879   2.49097   2.49584   2.51290   2.53198
 Alpha virt. eigenvalues --    2.53387   2.53963   2.54281   2.54769   2.55412
 Alpha virt. eigenvalues --    2.57534   2.58371   2.59116   2.59729   2.60303
 Alpha virt. eigenvalues --    2.61052   2.61332   2.61560   2.62387   2.62611
 Alpha virt. eigenvalues --    2.63124   2.63561   2.63951   2.65748   2.66079
 Alpha virt. eigenvalues --    2.66516   2.68028   2.68609   2.70969   2.72622
 Alpha virt. eigenvalues --    2.73259   2.74125   2.75799   2.77522   2.79161
 Alpha virt. eigenvalues --    2.81287   2.82054   2.82461   2.82896   2.85103
 Alpha virt. eigenvalues --    2.86889   2.88211   2.90093   2.92070   2.92383
 Alpha virt. eigenvalues --    2.93643   2.94086   2.95010   2.95773   2.97820
 Alpha virt. eigenvalues --    3.01335   3.02085   3.03810   3.04955   3.06088
 Alpha virt. eigenvalues --    3.09549   3.14024   3.29486   3.68078   3.70354
 Alpha virt. eigenvalues --    3.73935   3.77063   3.82179   3.87684   3.90247
 Alpha virt. eigenvalues --    3.91837   3.93506   3.95397   3.98388   3.99146
 Alpha virt. eigenvalues --    4.01271   4.01592   4.02895   4.06390   4.07591
 Alpha virt. eigenvalues --    4.08191   4.11192   4.12180   4.15548   4.18853
 Alpha virt. eigenvalues --    4.21013   4.22937   4.23603   4.24445   4.27164
 Alpha virt. eigenvalues --    4.28918   4.32004   4.33761   4.34539   4.35690
 Alpha virt. eigenvalues --    4.36989   4.38160   4.40971   4.43464   4.49050
 Alpha virt. eigenvalues --    4.49342   4.55052   4.58494   4.59522   4.60870
 Alpha virt. eigenvalues --    4.64696
          Condensed to atoms (all electrons):
 Mulliken charges:
               1
     1  N   -0.751266
     2  H    0.413229
     3  H    0.426682
     4  H    0.404379
     5  C   -0.122733
     6  H    0.210480
     7  C    0.668423
     8  C   -0.384649
     9  H    0.223392
    10  H    0.199652
    11  O   -0.532788
    12  C    0.133895
    13  C   -0.182437
    14  H    0.143070
    15  C   -0.230805
    16  H    0.154872
    17  C   -0.123115
    18  H    0.165399
    19  C   -0.120550
    20  H    0.165399
    21  C   -0.125386
    22  H    0.167106
    23  N   -0.585569
    24  H    0.367513
    25  C   -0.099481
    26  H    0.190658
    27  C    0.635996
    28  C   -0.082794
    29  H    0.172293
    30  H    0.198295
    31  O   -0.542295
    32  O   -0.665924
    33  H    0.445447
    34  N   -0.558447
    35  H    0.341226
    36  C   -0.093434
    37  H    0.190543
    38  C    0.637801
    39  C   -0.032994
    40  H    0.142424
    41  H    0.142898
    42  O   -0.532847
    43  O   -0.607345
    44  H    0.406689
    45  N   -0.596192
    46  H    0.346997
    47  C   -0.072404
    48  H    0.207540
    49  C    0.627716
    50  C   -0.372976
    51  H    0.202988
    52  H    0.217407
    53  O   -0.557262
    54  C    0.607976
    55  O   -0.468394
    56  O   -0.544556
    57  N   -0.590286
    58  H    0.352170
    59  C   -0.098452
    60  H    0.195525
    61  C    0.606081
    62  C   -0.264132
    63  H    0.170007
    64  H    0.153742
    65  O   -0.602516
    66  C   -0.279550
    67  H    0.148103
    68  H    0.153356
    69  C   -0.129417
    70  H    0.151056
    71  H    0.186635
    72  N   -0.597500
    73  H    0.349014
    74  N   -0.720972
    75  H    0.293672
    76  H    0.467432
    77  N   -0.750571
    78  H    0.338443
    79  H    0.335914
    80  C    0.623571
    81  O   -0.482032
    82  H    0.418964
 Sum of Mulliken charges =   1.00000
 Mulliken charges with hydrogens summed into heavy atoms:
               1
     1  N    0.493025
     5  C    0.087747
     7  C    0.668423
     8  C    0.038395
    11  O   -0.532788
    12  C    0.133895
    13  C   -0.039367
    15  C   -0.075932
    17  C    0.042284
    19  C    0.044848
    21  C    0.041720
    23  N   -0.218056
    25  C    0.091177
    27  C    0.635996
    28  C    0.287794
    31  O   -0.542295
    32  O   -0.220477
    34  N   -0.217222
    36  C    0.097109
    38  C    0.637801
    39  C    0.252328
    42  O   -0.532847
    43  O   -0.200655
    45  N   -0.249195
    47  C    0.135136
    49  C    0.627716
    50  C    0.047420
    53  O   -0.557262
    54  C    0.607976
    55  O   -0.468394
    56  O   -0.125592
    57  N   -0.238116
    59  C    0.097073
    61  C    0.606081
    62  C    0.059618
    65  O   -0.135084
    66  C    0.021908
    69  C    0.208274
    72  N   -0.248486
    74  N   -0.427300
    77  N   -0.076215
    80  C    0.623571
    81  O   -0.482032
 Electronic spatial extent (au):  <R**2>=          39562.1275
 Charge=              1.0000 electrons
 Dipole moment (field-independent basis, Debye):
    X=            -18.0329    Y=             -7.4840    Z=             -5.1955  Tot=             20.2037
 Quadrupole moment (field-independent basis, Debye-Ang):
   XX=           -103.3050   YY=           -222.3512   ZZ=           -152.7513
   XY=              4.0947   XZ=             89.6131   YZ=             28.4624
 Traceless Quadrupole moment (field-independent basis, Debye-Ang):
   XX=             56.1642   YY=            -62.8820   ZZ=              6.7178
   XY=              4.0947   XZ=             89.6131   YZ=             28.4624
 Octapole moment (field-independent basis, Debye-Ang**2):
  XXX=          -1400.9146  YYY=           -109.7266  ZZZ=            252.4730  XYY=           -244.8508
  XXY=           -342.8456  XXZ=           -306.5293  XZZ=           -210.8952  YZZ=             34.2417
  YYZ=             21.1744  XYZ=            -90.7836
 Hexadecapole moment (field-independent basis, Debye-Ang**3):
 XXXX=         -23070.7340 YYYY=          -6788.1086 ZZZZ=         -10513.8439 XXXY=          -2941.4326
 XXXZ=          -4303.4421 YYYX=          -3511.8467 YYYZ=          -2308.0343 ZZZX=          -5167.6477
 ZZZY=          -1056.8103 XXYY=          -6157.8171 XXZZ=          -5357.1676 YYZZ=          -2590.4994
 XXYZ=           -289.3488 YYXZ=          -1858.1874 ZZXY=           -194.6070
 N-N= 5.331427040459D+03 E-N=-1.569073603615D+04  KE= 2.146623502858D+03
 Unable to Open any file for archive entry.
 1\1\GINC-LAC-303\SP\RB3LYP\6-31G(d)\C25H39N8O10(1+)\KENGMITH\16-May-20
 22\0\\# B3LYP/6-31G* empiricaldispersion=gd3 guess=read geom=check nos
 ymm integral(ultrafinegrid)\\Candidate Structure: Conf:306 Charge calc
  in gas phase\\1,1\N,0,-5.7797404779,-2.7631813037,-3.4170591107\H,0,-
 6.277795264,-3.023707036,-4.2718853995\H,0,-5.1962245011,-3.5870957341
 ,-3.107589389\H,0,-6.4679769808,-2.4722161662,-2.7061660992\C,0,-4.740
 3818045,-1.6897693968,-3.6435684778\H,0,-4.9926914395,-1.1595027102,-4
 .5640903897\C,0,-3.4199127437,-2.483018174,-3.7414909594\C,0,-4.701960
 5556,-0.7192439819,-2.4341101994\H,0,-4.2221164556,-1.2271143845,-1.59
 14764701\H,0,-4.0303201599,0.1005558632,-2.7066911737\O,0,-3.421978913
 7,-3.6601344158,-3.3647392826\C,0,-6.0836706866,-0.219391739,-2.080375
 5991\C,0,-6.7171487592,0.7583278883,-2.8616967057\H,0,-6.1807278554,1.
 2173303423,-3.6897269254\C,0,-6.786892313,-0.7924989994,-1.008480675\H
 ,0,-6.2925004164,-1.5224146204,-0.3692727531\C,0,-8.0209618288,1.15901
 87029,-2.5739887987\H,0,-8.495720026,1.926261783,-3.1785408538\C,0,-8.
 0977204822,-0.3945281552,-0.7235055965\H,0,-8.6252583687,-0.8367039692
 ,0.1164814926\C,0,-8.715550032,0.5797177864,-1.5069871912\H,0,-9.73049
 29688,0.8947668556,-1.2843454226\N,0,-2.3538887257,-1.809251426,-4.179
 5740794\H,0,-2.4060871505,-0.7961287949,-4.2821698217\C,0,-1.011389893
 6,-2.2268509794,-3.8039528906\H,0,-0.8079013919,-3.2296785582,-4.19142
 23698\C,0,-0.8922438821,-2.203504891,-2.2648001807\C,0,-0.0359101253,-
 1.1872719354,-4.4264681883\H,0,0.0412232624,-1.3830106159,-5.501089367
 3\H,0,0.9561144362,-1.2914070719,-3.9720810657\O,0,-1.6495278429,-1.52
 76332677,-1.5741266388\O,0,-0.5570666279,0.1204083372,-4.2662345197\H,
 0,-0.1728993302,0.5126783944,-3.4566738957\N,0,0.1414065568,-2.9389202
 398,-1.7764579036\H,0,0.8090621047,-3.2865838803,-2.4561870573\C,0,0.7
 435603885,-2.5953910444,-0.4944282626\H,0,-0.0659981322,-2.2998352204,
 0.1762955549\C,0,1.7195849215,-1.4292771439,-0.7544232785\C,0,1.492781
 0974,-3.7841022241,0.1063061676\H,0,2.014671045,-3.4372470742,1.013557
 3989\H,0,2.264600363,-4.117464766,-0.607236338\O,0,2.3693195887,-1.396
 5675077,-1.7953275395\O,0,0.5438115346,-4.794363872,0.3876392037\H,0,1
 .0158620163,-5.5673935484,0.7329520133\N,0,1.7648011268,-0.4752380594,
 0.2082234333\H,0,1.3618411944,-0.6488898721,1.1216922853\C,0,2.6162456
 872,0.6919207455,0.1076857805\H,0,3.2282841289,0.5652503855,-0.7885150
 098\C,0,3.4783772813,0.7941511154,1.3778725184\C,0,1.7867705466,1.9874
 703483,0.0030703983\H,0,1.1850885967,2.1257418517,0.9097514307\H,0,2.4
 472891554,2.8620955481,-0.0552470006\O,0,3.0635561357,0.3296329104,2.4
 443025257\C,0,0.8568640589,2.0237723959,-1.1878627973\O,0,0.7997426132
 ,1.1851604433,-2.0666609793\O,0,0.086516106,3.1250222462,-1.1673980538
 \N,0,4.637367921,1.462062298,1.2253887153\H,0,4.8523267706,1.919081465
 1,0.3436836792\C,0,5.4267026638,1.941141752,2.3499808158\H,0,4.7617196
 145,1.9832135603,3.2090123055\C,0,5.8980885023,3.3659166515,2.03823460
 58\C,0,6.6336268146,1.0271891347,2.6642514557\H,0,7.36722406,1.5925904
 817,3.2482978591\H,0,7.1132704744,0.7753009355,1.7108565895\O,0,6.4205
 943683,4.014198049,3.0725485049\C,0,6.2578620583,-0.2476253503,3.42775
 59045\H,0,7.0959140486,-0.9542775704,3.3687781828\H,0,5.3993618936,-0.
 7360169668,2.951076538\C,0,5.9647439519,-0.0260019501,4.9207201471\H,0
 ,5.8768551708,-1.0050896234,5.4091752198\H,0,6.7951979957,0.5044657796
 ,5.3936297638\N,0,4.7495293062,0.7239134482,5.2314804783\H,0,3.8893947
 994,0.3717970352,4.8260938213\N,0,5.7609778806,2.8205163793,5.47599159
 32\H,0,5.6457049138,3.6790057614,6.0154411853\H,0,6.3016875336,3.49195
 36359,3.9273747301\N,0,3.5017306502,2.421070568,6.141643197\H,0,3.0213
 691022,1.7436276137,6.7209379063\H,0,3.4337119705,3.3714525329,6.48019
 5584\C,0,4.7327482062,2.036172226,5.6298506149\O,0,5.8201404639,3.8399
 788325,0.9214153786\H,0,-0.4631755851,3.120686977,-1.9735802087\\Versi
 on=ES64L-G16RevC.01\HF=-2166.3755141\RMSD=7.571e-09\Dipole=-7.8942611,
 -2.7952714,-1.6994757\Quadrupole=41.7567032,-46.7512356,4.9945324,3.04
 43404,66.6251329,21.1611219\PG=C01 [X(C25H39N8O10)]\\@
 The archive entry for this job was punched.


 WOMEN HOLD UP HALF THE SKY. -- MAO TSE TUNG
 Job cpu time:       0 days  0 hours  2 minutes  1.4 seconds.
 Elapsed time:       0 days  0 hours  0 minutes 30.9 seconds.
 File lengths (MBytes):  RWF=    384 Int=      0 D2E=      0 Chk=     56 Scr=     16
 Normal termination of Gaussian 16 at Mon May 16 14:27:46 2022.
