 Entering Gaussian System, Link 0=/opt/software/Gaussian/g16-AVX2-C.01/g16/g16
 Input=charge-conf-472.com
 Output=charge-conf-472.log
 Initial command:
 /opt/software/Gaussian/g16-AVX2-C.01/g16/l1.exe "/mnt/gs18/scratch/users/kengmith/Gau-20333.inp" -scrdir="/mnt/gs18/scratch/users/kengmith/"
 Entering Link 1 = /opt/software/Gaussian/g16-AVX2-C.01/g16/l1.exe PID=     20343.
  
 Copyright (c) 1988-2019, Gaussian, Inc.  All Rights Reserved.
  
 This is part of the Gaussian(R) 16 program.  It is based on
 the Gaussian(R) 09 system (copyright 2009, Gaussian, Inc.),
 the Gaussian(R) 03 system (copyright 2003, Gaussian, Inc.),
 the Gaussian(R) 98 system (copyright 1998, Gaussian, Inc.),
 the Gaussian(R) 94 system (copyright 1995, Gaussian, Inc.),
 the Gaussian 92(TM) system (copyright 1992, Gaussian, Inc.),
 the Gaussian 90(TM) system (copyright 1990, Gaussian, Inc.),
 the Gaussian 88(TM) system (copyright 1988, Gaussian, Inc.),
 the Gaussian 86(TM) system (copyright 1986, Carnegie Mellon
 University), and the Gaussian 82(TM) system (copyright 1983,
 Carnegie Mellon University). Gaussian is a federally registered
 trademark of Gaussian, Inc.
  
 This software contains proprietary and confidential information,
 including trade secrets, belonging to Gaussian, Inc.
  
 This software is provided under written license and may be
 used, copied, transmitted, or stored only in accord with that
 written license.
  
 The following legend is applicable only to US Government
 contracts under FAR:
  
                    RESTRICTED RIGHTS LEGEND
  
 Use, reproduction and disclosure by the US Government is
 subject to restrictions as set forth in subparagraphs (a)
 and (c) of the Commercial Computer Software - Restricted
 Rights clause in FAR 52.227-19.
  
 Gaussian, Inc.
 340 Quinnipiac St., Bldg. 40, Wallingford CT 06492
  
  
 ---------------------------------------------------------------
 Warning -- This program may not be used in any manner that
 competes with the business of Gaussian, Inc. or will provide
 assistance to any competitor of Gaussian, Inc.  The licensee
 of this program is prohibited from giving any competitor of
 Gaussian, Inc. access to this program.  By using this program,
 the user acknowledges that Gaussian, Inc. is engaged in the
 business of creating and licensing software in the field of
 computational chemistry and represents and warrants to the
 licensee that it is not a competitor of Gaussian, Inc. and that
 it will not use this program in any manner prohibited above.
 ---------------------------------------------------------------
  

 Cite this work as:
 Gaussian 16, Revision C.01,
 M. J. Frisch, G. W. Trucks, H. B. Schlegel, G. E. Scuseria, 
 M. A. Robb, J. R. Cheeseman, G. Scalmani, V. Barone, 
 G. A. Petersson, H. Nakatsuji, X. Li, M. Caricato, A. V. Marenich, 
 J. Bloino, B. G. Janesko, R. Gomperts, B. Mennucci, H. P. Hratchian, 
 J. V. Ortiz, A. F. Izmaylov, J. L. Sonnenberg, D. Williams-Young, 
 F. Ding, F. Lipparini, F. Egidi, J. Goings, B. Peng, A. Petrone, 
 T. Henderson, D. Ranasinghe, V. G. Zakrzewski, J. Gao, N. Rega, 
 G. Zheng, W. Liang, M. Hada, M. Ehara, K. Toyota, R. Fukuda, 
 J. Hasegawa, M. Ishida, T. Nakajima, Y. Honda, O. Kitao, H. Nakai, 
 T. Vreven, K. Throssell, J. A. Montgomery, Jr., J. E. Peralta, 
 F. Ogliaro, M. J. Bearpark, J. J. Heyd, E. N. Brothers, K. N. Kudin, 
 V. N. Staroverov, T. A. Keith, R. Kobayashi, J. Normand, 
 K. Raghavachari, A. P. Rendell, J. C. Burant, S. S. Iyengar, 
 J. Tomasi, M. Cossi, J. M. Millam, M. Klene, C. Adamo, R. Cammi, 
 J. W. Ochterski, R. L. Martin, K. Morokuma, O. Farkas, 
 J. B. Foresman, and D. J. Fox, Gaussian, Inc., Wallingford CT, 2019.
 
 ******************************************
 Gaussian 16:  ES64L-G16RevC.01  3-Jul-2019
                16-May-2022 
 ******************************************
 %mem=8gb
 %nproc=4
 Will use up to    4 processors via shared memory.
 %chk=conf-472.chk
 ----------------------------------------------------------------------
 # B3LYP/6-31G* empiricaldispersion=gd3 guess=read geom=check nosymm in
 tegral(ultrafinegrid)
 ----------------------------------------------------------------------
 1/29=2,38=1,172=1/1;
 2/12=2,15=1,40=1/2;
 3/5=1,6=6,7=1,11=2,14=-4,25=1,30=1,74=-5,75=-5,116=-2,124=31/1,2,3;
 4/5=1/1;
 5/5=2,38=6/2;
 6/7=2,8=2,9=2,10=2,28=1/1;
 99/5=1,9=1/99;
 ------------------------------------------------------
 Candidate Structure: Conf:472 Charge calc in gas phase
 ------------------------------------------------------
 Structure from the checkpoint file:  "conf-472.chk"
 Charge =  1 Multiplicity = 1
 Redundant internal coordinates found in file.  (old form).
 N,0,-6.0307740946,-1.2392097877,-5.2643794953
 H,0,-6.0577546467,-2.2927264495,-5.3630074482
 H,0,-6.7380747848,-0.9683803606,-4.5603054569
 H,0,-6.2239405892,-0.76242899,-6.147318314
 C,0,-4.6445277675,-0.9925778121,-4.7138014831
 H,0,-4.00544173,-0.7189243188,-5.5589839812
 C,0,-4.2281960271,-2.4103609791,-4.2233195595
 C,0,-4.6597151232,0.1346582316,-3.6555293878
 H,0,-3.6457380415,0.2372754224,-3.2553703459
 H,0,-4.8767026248,1.0791996711,-4.168511728
 O,0,-4.9255558237,-3.3694027127,-4.5802805921
 C,0,-5.6646103676,-0.1195424014,-2.552069769
 C,0,-6.9815179471,0.3550519537,-2.6834374311
 H,0,-7.2407452599,1.0154653128,-3.5114904375
 C,0,-5.3234119442,-0.880219921,-1.4240570666
 H,0,-4.3013998022,-1.2218476795,-1.2849238486
 C,0,-7.9477020707,0.0520127931,-1.7190936633
 H,0,-8.9581864947,0.4348636752,-1.8270325997
 C,0,-6.2882152802,-1.1736897825,-0.4603986694
 H,0,-6.0100847599,-1.7544256461,0.4141320809
 C,0,-7.6018533987,-0.7200371103,-0.6101096626
 H,0,-8.3474525628,-0.9527954708,0.1440839352
 N,0,-3.1262969267,-2.4871851256,-3.4847712204
 H,0,-2.6897607435,-1.6537825054,-3.0938878266
 C,0,-2.681753119,-3.6990163087,-2.8080481138
 H,0,-3.5184546497,-4.3979666697,-2.7289619222
 C,0,-2.1883573036,-3.2450265897,-1.4305330688
 C,0,-1.5187405322,-4.3848021281,-3.5905580939
 H,0,-0.7368110106,-3.6342609247,-3.7725090596
 H,0,-1.9183928544,-4.7093934843,-4.5572234955
 O,0,-1.9674697951,-2.0491143609,-1.2078884152
 O,0,-1.0235827493,-5.5090385175,-2.9067132912
 H,0,-0.3025666814,-5.1885122422,-2.3181016012
 N,0,-1.9674358431,-4.2342216701,-0.540365624
 H,0,-2.0153503647,-5.178787152,-0.9093142324
 C,0,-1.0382269212,-4.0108502985,0.5550068122
 H,0,-1.3707072923,-3.1307249565,1.1121901957
 C,0,0.3763162753,-3.7667672029,-0.025720681
 C,0,-1.0160433567,-5.2212322318,1.490623244
 H,0,-0.2973279331,-5.0175437238,2.2983138614
 H,0,-0.6472980057,-6.0993495839,0.9329174817
 O,0,0.6958940423,-4.1873803372,-1.1470489844
 O,0,-2.3330868597,-5.4115290621,1.9725926306
 H,0,-2.3276617428,-6.1654827628,2.5821307673
 N,0,1.2201395674,-3.1144315197,0.7807435587
 H,0,0.9304299044,-2.7199151441,1.6743341318
 C,0,2.5922832709,-2.7935974215,0.4290736809
 H,0,3.090441612,-3.6853342761,0.03742083
 C,0,3.2585471746,-2.3214920176,1.7453890236
 C,0,2.6435344599,-1.6970050169,-0.675061654
 H,0,2.1804903904,-2.1177017886,-1.5710043191
 H,0,2.0930616466,-0.8126835341,-0.3469750928
 O,0,2.5547397266,-1.9561778186,2.6879895648
 C,0,4.101517201,-1.3719390969,-0.9360444587
 O,0,4.8948426054,-2.2174888862,-1.3151645051
 O,0,4.4271131606,-0.1345918729,-0.5630799363
 N,0,4.6103916406,-2.3460259696,1.7552579344
 H,0,5.0953480468,-2.5521055553,0.8867445948
 C,0,5.4164457529,-1.6278155163,2.7459248232
 H,0,4.7608041868,-1.3470877536,3.5707304777
 C,0,6.0353956265,-0.3618902106,2.0975911391
 C,0,6.5609401968,-2.5636998634,3.2104745896
 H,0,7.2601086165,-2.6593618092,2.3694045689
 H,0,6.1281251507,-3.5599393476,3.3588391901
 O,0,6.1000877124,0.677755524,2.7770192941
 C,0,7.3357491581,-2.2233542329,4.5003445119
 H,0,8.119864758,-2.9837658874,4.6038087291
 H,0,6.6763146426,-2.3496386095,5.3683500306
 C,0,7.9657479284,-0.8196991838,4.6469694018
 H,0,7.1968450818,-0.0972575366,4.9219975734
 H,0,8.708854739,-0.8293680677,5.4537694387
 N,0,8.5492450343,-0.2458573999,3.4215330325
 H,0,7.9161772182,0.4415398415,2.9935155071
 N,0,10.3118400124,-1.7147885937,3.0638932842
 H,0,10.8916816157,-2.259677697,2.4442239058
 H,0,10.5778487424,-1.6734608441,4.0365292943
 N,0,9.2766530336,-0.6102262352,1.2732277888
 H,0,8.3133046494,-0.4068349495,0.9243088032
 H,0,9.9711346393,-0.9565240412,0.6267626193
 C,0,9.3822395329,-0.8613305816,2.5818327084
 O,0,6.5654113793,-0.560179528,0.9434955822
 H,0,5.395700913,-0.1290990881,-0.3228371658
 Recover connectivity data from disk.
                           ----------------------------
                           !    Current Parameters    !
                           ! (Angstroms and Degrees)  !
 --------------------------                            --------------------------
 ! Name  Definition              Value                                          !
 --------------------------------------------------------------------------------
 ! R1    R(1,2)                  1.0585                                         !
 ! R2    R(1,3)                  1.0341                                         !
 ! R3    R(1,4)                  1.0219                                         !
 ! R4    R(1,5)                  1.5118                                         !
 ! R5    R(5,6)                  1.0944                                         !
 ! R6    R(5,7)                  1.5569                                         !
 ! R7    R(5,8)                  1.5462                                         !
 ! R8    R(7,11)                 1.2383                                         !
 ! R9    R(7,23)                 1.3287                                         !
 ! R10   R(8,9)                  1.0949                                         !
 ! R11   R(8,10)                 1.0965                                         !
 ! R12   R(8,12)                 1.514                                          !
 ! R13   R(12,13)                1.406                                          !
 ! R14   R(12,15)                1.4027                                         !
 ! R15   R(13,14)                1.0904                                         !
 ! R16   R(13,17)                1.3983                                         !
 ! R17   R(15,16)                1.0865                                         !
 ! R18   R(15,19)                1.3949                                         !
 ! R19   R(17,18)                1.086                                          !
 ! R20   R(17,21)                1.3948                                         !
 ! R21   R(19,20)                1.086                                          !
 ! R22   R(19,21)                1.3978                                         !
 ! R23   R(21,22)                1.0858                                         !
 ! R24   R(23,24)                1.0188                                         !
 ! R25   R(23,25)                1.4574                                         !
 ! R26   R(25,26)                1.0931                                         !
 ! R27   R(25,27)                1.532                                          !
 ! R28   R(25,28)                1.5605                                         !
 ! R29   R(27,31)                1.2364                                         !
 ! R30   R(27,34)                1.349                                          !
 ! R31   R(28,29)                1.099                                          !
 ! R32   R(28,30)                1.0952                                         !
 ! R33   R(28,32)                1.406                                          !
 ! R34   R(32,33)                0.9844                                         !
 ! R35   R(34,35)                1.0152                                         !
 ! R36   R(34,36)                1.4537                                         !
 ! R37   R(36,37)                1.0934                                         !
 ! R38   R(36,38)                1.5485                                         !
 ! R39   R(36,39)                1.53                                           !
 ! R40   R(38,42)                1.2395                                         !
 ! R41   R(38,45)                1.3371                                         !
 ! R42   R(39,40)                1.1002                                         !
 ! R43   R(39,41)                1.1037                                         !
 ! R44   R(39,43)                1.4153                                         !
 ! R45   R(43,44)                0.9695                                         !
 ! R46   R(45,46)                1.0189                                         !
 ! R47   R(45,47)                1.4524                                         !
 ! R48   R(47,48)                1.094                                          !
 ! R49   R(47,49)                1.549                                          !
 ! R50   R(47,50)                1.557                                          !
 ! R51   R(49,53)                1.2318                                         !
 ! R52   R(49,57)                1.3521                                         !
 ! R53   R(50,51)                1.0928                                         !
 ! R54   R(50,52)                1.0921                                         !
 ! R55   R(50,54)                1.5164                                         !
 ! R56   R(54,55)                1.2199                                         !
 ! R57   R(54,56)                1.3327                                         !
 ! R58   R(56,82)                0.998                                          !
 ! R59   R(57,58)                1.0159                                         !
 ! R60   R(57,59)                1.4653                                         !
 ! R61   R(59,60)                1.0904                                         !
 ! R62   R(59,61)                1.5511                                         !
 ! R63   R(59,62)                1.5497                                         !
 ! R64   R(61,65)                1.2437                                         !
 ! R65   R(61,81)                1.2854                                         !
 ! R66   R(62,63)                1.0979                                         !
 ! R67   R(62,64)                1.0963                                         !
 ! R68   R(62,66)                1.5427                                         !
 ! R69   R(66,67)                1.0972                                         !
 ! R70   R(66,68)                1.0974                                         !
 ! R71   R(66,69)                1.5455                                         !
 ! R72   R(69,70)                1.0903                                         !
 ! R73   R(69,71)                1.0969                                         !
 ! R74   R(69,72)                1.4736                                         !
 ! R75   R(72,73)                1.0279                                         !
 ! R76   R(72,80)                1.3333                                         !
 ! R77   R(74,75)                1.0085                                         !
 ! R78   R(74,76)                1.0092                                         !
 ! R79   R(74,80)                1.3509                                         !
 ! R80   R(77,78)                1.0446                                         !
 ! R81   R(77,79)                1.01                                           !
 ! R82   R(77,80)                1.3367                                         !
 ! A1    A(2,1,3)              107.8595                                         !
 ! A2    A(2,1,4)              112.2758                                         !
 ! A3    A(2,1,5)              102.6901                                         !
 ! A4    A(3,1,4)              109.6822                                         !
 ! A5    A(3,1,5)              109.6628                                         !
 ! A6    A(4,1,5)              114.3231                                         !
 ! A7    A(1,5,6)              107.1577                                         !
 ! A8    A(1,5,7)              102.2024                                         !
 ! A9    A(1,5,8)              111.0494                                         !
 ! A10   A(6,5,7)              108.3517                                         !
 ! A11   A(6,5,8)              110.6108                                         !
 ! A12   A(7,5,8)              116.8002                                         !
 ! A13   A(5,7,11)             117.6355                                         !
 ! A14   A(5,7,23)             116.7123                                         !
 ! A15   A(11,7,23)            125.6228                                         !
 ! A16   A(5,8,9)              108.0212                                         !
 ! A17   A(5,8,10)             108.0428                                         !
 ! A18   A(5,8,12)             112.5171                                         !
 ! A19   A(9,8,10)             105.8729                                         !
 ! A20   A(9,8,12)             111.3494                                         !
 ! A21   A(10,8,12)            110.7481                                         !
 ! A22   A(8,12,13)            119.7972                                         !
 ! A23   A(8,12,15)            121.0471                                         !
 ! A24   A(13,12,15)           119.0809                                         !
 ! A25   A(12,13,14)           119.8723                                         !
 ! A26   A(12,13,17)           120.6372                                         !
 ! A27   A(14,13,17)           119.3865                                         !
 ! A28   A(12,15,16)           120.1518                                         !
 ! A29   A(12,15,19)           120.0952                                         !
 ! A30   A(16,15,19)           119.7351                                         !
 ! A31   A(13,17,18)           119.867                                          !
 ! A32   A(13,17,21)           119.7983                                         !
 ! A33   A(18,17,21)           120.3238                                         !
 ! A34   A(15,19,20)           119.4524                                         !
 ! A35   A(15,19,21)           120.5149                                         !
 ! A36   A(20,19,21)           120.0317                                         !
 ! A37   A(17,21,19)           119.8558                                         !
 ! A38   A(17,21,22)           120.0436                                         !
 ! A39   A(19,21,22)           120.0914                                         !
 ! A40   A(7,23,24)            121.4196                                         !
 ! A41   A(7,23,25)            123.994                                          !
 ! A42   A(24,23,25)           111.7982                                         !
 ! A43   A(23,25,26)           109.3775                                         !
 ! A44   A(23,25,27)           105.6246                                         !
 ! A45   A(23,25,28)           111.0936                                         !
 ! A46   A(26,25,27)           111.7738                                         !
 ! A47   A(26,25,28)           109.0106                                         !
 ! A48   A(27,25,28)           109.9426                                         !
 ! A49   A(25,27,31)           120.4044                                         !
 ! A50   A(25,27,34)           115.3901                                         !
 ! A51   A(31,27,34)           124.1402                                         !
 ! A52   A(25,28,29)           108.2491                                         !
 ! A53   A(25,28,30)           107.5099                                         !
 ! A54   A(25,28,32)           111.7143                                         !
 ! A55   A(29,28,30)           108.4148                                         !
 ! A56   A(29,28,32)           112.0881                                         !
 ! A57   A(30,28,32)           108.7128                                         !
 ! A58   A(28,32,33)           106.7635                                         !
 ! A59   A(27,34,35)           115.7681                                         !
 ! A60   A(27,34,36)           119.291                                          !
 ! A61   A(35,34,36)           116.5506                                         !
 ! A62   A(34,36,37)           108.2575                                         !
 ! A63   A(34,36,38)           108.9992                                         !
 ! A64   A(34,36,39)           110.3954                                         !
 ! A65   A(37,36,38)           109.9986                                         !
 ! A66   A(37,36,39)           109.2425                                         !
 ! A67   A(38,36,39)           109.9252                                         !
 ! A68   A(36,38,42)           121.42                                           !
 ! A69   A(36,38,45)           115.2894                                         !
 ! A70   A(42,38,45)           123.2611                                         !
 ! A71   A(36,39,40)           108.1765                                         !
 ! A72   A(36,39,41)           108.9813                                         !
 ! A73   A(36,39,43)           107.5249                                         !
 ! A74   A(40,39,41)           107.4586                                         !
 ! A75   A(40,39,43)           112.5072                                         !
 ! A76   A(41,39,43)           112.0869                                         !
 ! A77   A(39,43,44)           108.2669                                         !
 ! A78   A(38,45,46)           122.5769                                         !
 ! A79   A(38,45,47)           123.9131                                         !
 ! A80   A(46,45,47)           113.2951                                         !
 ! A81   A(45,47,48)           109.6842                                         !
 ! A82   A(45,47,49)           105.5409                                         !
 ! A83   A(45,47,50)           111.0012                                         !
 ! A84   A(48,47,49)           110.904                                          !
 ! A85   A(48,47,50)           107.7722                                         !
 ! A86   A(49,47,50)           111.95                                           !
 ! A87   A(47,49,53)           119.6633                                         !
 ! A88   A(47,49,57)           115.5125                                         !
 ! A89   A(53,49,57)           124.8241                                         !
 ! A90   A(47,50,51)           107.2372                                         !
 ! A91   A(47,50,52)           109.9177                                         !
 ! A92   A(47,50,54)           107.7385                                         !
 ! A93   A(51,50,52)           110.1492                                         !
 ! A94   A(51,50,54)           110.416                                          !
 ! A95   A(52,50,54)           111.2693                                         !
 ! A96   A(50,54,55)           122.018                                          !
 ! A97   A(50,54,56)           112.6908                                         !
 ! A98   A(55,54,56)           124.8648                                         !
 ! A99   A(54,56,82)           108.0352                                         !
 ! A100  A(49,57,58)           118.3421                                         !
 ! A101  A(49,57,59)           123.0963                                         !
 ! A102  A(58,57,59)           114.5105                                         !
 ! A103  A(57,59,60)           107.869                                          !
 ! A104  A(57,59,61)           109.6913                                         !
 ! A105  A(57,59,62)           108.2361                                         !
 ! A106  A(60,59,61)           110.2417                                         !
 ! A107  A(60,59,62)           111.888                                          !
 ! A108  A(61,59,62)           108.8731                                         !
 ! A109  A(59,61,65)           118.3375                                         !
 ! A110  A(59,61,81)           114.4516                                         !
 ! A111  A(65,61,81)           126.7292                                         !
 ! A112  A(59,62,63)           107.0549                                         !
 ! A113  A(59,62,64)           107.3255                                         !
 ! A114  A(59,62,66)           119.2306                                         !
 ! A115  A(63,62,64)           106.0165                                         !
 ! A116  A(63,62,66)           109.871                                          !
 ! A117  A(64,62,66)           106.5957                                         !
 ! A118  A(62,66,67)           106.5519                                         !
 ! A119  A(62,66,68)           109.5211                                         !
 ! A120  A(62,66,69)           118.9742                                         !
 ! A121  A(67,66,68)           105.9688                                         !
 ! A122  A(67,66,69)           109.2192                                         !
 ! A123  A(68,66,69)           105.9278                                         !
 ! A124  A(66,69,70)           109.77                                           !
 ! A125  A(66,69,71)           109.7503                                         !
 ! A126  A(66,69,72)           115.8608                                         !
 ! A127  A(70,69,71)           107.3409                                         !
 ! A128  A(70,69,72)           103.355                                          !
 ! A129  A(71,69,72)           110.294                                          !
 ! A130  A(69,72,73)           111.2748                                         !
 ! A131  A(69,72,80)           126.2525                                         !
 ! A132  A(73,72,80)           115.5465                                         !
 ! A133  A(75,74,76)           117.5648                                         !
 ! A134  A(75,74,80)           121.1793                                         !
 ! A135  A(76,74,80)           119.9619                                         !
 ! A136  A(78,77,79)           119.1491                                         !
 ! A137  A(78,77,80)           115.8773                                         !
 ! A138  A(79,77,80)           120.5236                                         !
 ! A139  A(72,80,74)           119.7888                                         !
 ! A140  A(72,80,77)           118.7174                                         !
 ! A141  A(74,80,77)           121.4932                                         !
 ! D1    D(2,1,5,6)             97.8307                                         !
 ! D2    D(2,1,5,7)            -15.9912                                         !
 ! D3    D(2,1,5,8)           -141.267                                          !
 ! D4    D(3,1,5,6)           -147.6947                                         !
 ! D5    D(3,1,5,7)             98.4834                                         !
 ! D6    D(3,1,5,8)            -26.7924                                         !
 ! D7    D(4,1,5,6)            -24.0523                                         !
 ! D8    D(4,1,5,7)           -137.8743                                         !
 ! D9    D(4,1,5,8)             96.8499                                         !
 ! D10   D(1,5,7,11)            12.3946                                         !
 ! D11   D(1,5,7,23)          -169.464                                          !
 ! D12   D(6,5,7,11)          -100.543                                          !
 ! D13   D(6,5,7,23)            77.5984                                         !
 ! D14   D(8,5,7,11)           133.7898                                         !
 ! D15   D(8,5,7,23)           -48.0689                                         !
 ! D16   D(1,5,8,9)            177.2055                                         !
 ! D17   D(1,5,8,10)           -68.6862                                         !
 ! D18   D(1,5,8,12)            53.8866                                         !
 ! D19   D(6,5,8,9)            -63.9489                                         !
 ! D20   D(6,5,8,10)            50.1594                                         !
 ! D21   D(6,5,8,12)           172.7322                                         !
 ! D22   D(7,5,8,9)             60.5811                                         !
 ! D23   D(7,5,8,10)           174.6894                                         !
 ! D24   D(7,5,8,12)           -62.7378                                         !
 ! D25   D(5,7,23,24)           12.644                                          !
 ! D26   D(5,7,23,25)          172.1623                                         !
 ! D27   D(11,7,23,24)        -169.3818                                         !
 ! D28   D(11,7,23,25)          -9.8634                                         !
 ! D29   D(5,8,12,13)          -90.0738                                         !
 ! D30   D(5,8,12,15)           86.7516                                         !
 ! D31   D(9,8,12,13)          148.4854                                         !
 ! D32   D(9,8,12,15)          -34.6892                                         !
 ! D33   D(10,8,12,13)          30.963                                          !
 ! D34   D(10,8,12,15)        -152.2116                                         !
 ! D35   D(8,12,13,14)          -8.1517                                         !
 ! D36   D(8,12,13,17)         175.5779                                         !
 ! D37   D(15,12,13,14)        174.9604                                         !
 ! D38   D(15,12,13,17)         -1.31                                           !
 ! D39   D(8,12,15,16)           5.6185                                         !
 ! D40   D(8,12,15,19)        -175.9222                                         !
 ! D41   D(13,12,15,16)       -177.5337                                         !
 ! D42   D(13,12,15,19)          0.9255                                         !
 ! D43   D(12,13,17,18)        179.2813                                         !
 ! D44   D(12,13,17,21)          0.4798                                         !
 ! D45   D(14,13,17,18)          2.9929                                         !
 ! D46   D(14,13,17,21)       -175.8086                                         !
 ! D47   D(12,15,19,20)       -179.3475                                         !
 ! D48   D(12,15,19,21)          0.2829                                         !
 ! D49   D(16,15,19,20)         -0.8818                                         !
 ! D50   D(16,15,19,21)        178.7486                                         !
 ! D51   D(13,17,21,19)          0.7413                                         !
 ! D52   D(13,17,21,22)        179.6377                                         !
 ! D53   D(18,17,21,19)       -178.0546                                         !
 ! D54   D(18,17,21,22)          0.8418                                         !
 ! D55   D(15,19,21,17)         -1.1263                                         !
 ! D56   D(15,19,21,22)        179.9779                                         !
 ! D57   D(20,19,21,17)        178.5019                                         !
 ! D58   D(20,19,21,22)         -0.3939                                         !
 ! D59   D(7,23,25,26)         -18.1789                                         !
 ! D60   D(7,23,25,27)        -138.6212                                         !
 ! D61   D(7,23,25,28)         102.2037                                         !
 ! D62   D(24,23,25,26)        143.0616                                         !
 ! D63   D(24,23,25,27)         22.6193                                         !
 ! D64   D(24,23,25,28)        -96.5558                                         !
 ! D65   D(23,25,27,31)        -14.9512                                         !
 ! D66   D(23,25,27,34)        167.8689                                         !
 ! D67   D(26,25,27,31)       -133.8132                                         !
 ! D68   D(26,25,27,34)         49.007                                          !
 ! D69   D(28,25,27,31)        104.9836                                         !
 ! D70   D(28,25,27,34)        -72.1962                                         !
 ! D71   D(23,25,28,29)         52.419                                          !
 ! D72   D(23,25,28,30)        -64.5053                                         !
 ! D73   D(23,25,28,32)        176.3021                                         !
 ! D74   D(26,25,28,29)        173.0186                                         !
 ! D75   D(26,25,28,30)         56.0943                                         !
 ! D76   D(26,25,28,32)        -63.0984                                         !
 ! D77   D(27,25,28,29)        -64.1357                                         !
 ! D78   D(27,25,28,30)        178.94                                           !
 ! D79   D(27,25,28,32)         59.7474                                         !
 ! D80   D(25,27,34,35)          8.7556                                         !
 ! D81   D(25,27,34,36)        155.8855                                         !
 ! D82   D(31,27,34,35)       -168.3056                                         !
 ! D83   D(31,27,34,36)        -21.1757                                         !
 ! D84   D(25,28,32,33)        -89.7575                                         !
 ! D85   D(29,28,32,33)         31.936                                          !
 ! D86   D(30,28,32,33)        151.7645                                         !
 ! D87   D(27,34,36,37)         56.5068                                         !
 ! D88   D(27,34,36,38)        -63.1276                                         !
 ! D89   D(27,34,36,39)        176.0384                                         !
 ! D90   D(35,34,36,37)       -156.6128                                         !
 ! D91   D(35,34,36,38)         83.7528                                         !
 ! D92   D(35,34,36,39)        -37.0812                                         !
 ! D93   D(34,36,38,42)        -23.7195                                         !
 ! D94   D(34,36,38,45)        158.1949                                         !
 ! D95   D(37,36,38,42)       -142.2685                                         !
 ! D96   D(37,36,38,45)         39.6459                                         !
 ! D97   D(39,36,38,42)         97.4021                                         !
 ! D98   D(39,36,38,45)        -80.6836                                         !
 ! D99   D(34,36,39,40)        179.5123                                         !
 ! D100  D(34,36,39,41)         62.9697                                         !
 ! D101  D(34,36,39,43)        -58.7391                                         !
 ! D102  D(37,36,39,40)        -61.5534                                         !
 ! D103  D(37,36,39,41)       -178.096                                          !
 ! D104  D(37,36,39,43)         60.1952                                         !
 ! D105  D(38,36,39,40)         59.2326                                         !
 ! D106  D(38,36,39,41)        -57.31                                           !
 ! D107  D(38,36,39,43)       -179.0188                                         !
 ! D108  D(36,38,45,46)         -6.0584                                         !
 ! D109  D(36,38,45,47)        179.629                                          !
 ! D110  D(42,38,45,46)        175.8953                                         !
 ! D111  D(42,38,45,47)          1.5827                                         !
 ! D112  D(36,39,43,44)       -178.8145                                         !
 ! D113  D(40,39,43,44)        -59.8056                                         !
 ! D114  D(41,39,43,44)         61.4338                                         !
 ! D115  D(38,45,47,48)        -48.8514                                         !
 ! D116  D(38,45,47,49)       -168.377                                          !
 ! D117  D(38,45,47,50)         70.1333                                         !
 ! D118  D(46,45,47,48)        136.3651                                         !
 ! D119  D(46,45,47,49)         16.8395                                         !
 ! D120  D(46,45,47,50)       -104.6501                                         !
 ! D121  D(45,47,49,53)        -18.8708                                         !
 ! D122  D(45,47,49,57)        161.2612                                         !
 ! D123  D(48,47,49,53)       -137.5867                                         !
 ! D124  D(48,47,49,57)         42.5453                                         !
 ! D125  D(50,47,49,53)        102.0021                                         !
 ! D126  D(50,47,49,57)        -77.8659                                         !
 ! D127  D(45,47,50,51)        -63.8438                                         !
 ! D128  D(45,47,50,52)         55.8941                                         !
 ! D129  D(45,47,50,54)        177.2932                                         !
 ! D130  D(48,47,50,51)         56.2841                                         !
 ! D131  D(48,47,50,52)        176.022                                          !
 ! D132  D(48,47,50,54)        -62.5789                                         !
 ! D133  D(49,47,50,51)        178.5022                                         !
 ! D134  D(49,47,50,52)        -61.7599                                         !
 ! D135  D(49,47,50,54)         59.6393                                         !
 ! D136  D(47,49,57,58)          7.516                                          !
 ! D137  D(47,49,57,59)        163.6122                                         !
 ! D138  D(53,49,57,58)       -172.3442                                         !
 ! D139  D(53,49,57,59)        -16.248                                          !
 ! D140  D(47,50,54,55)         59.6608                                         !
 ! D141  D(47,50,54,56)       -113.1845                                         !
 ! D142  D(51,50,54,55)        -57.1494                                         !
 ! D143  D(51,50,54,56)        130.0053                                         !
 ! D144  D(52,50,54,55)       -179.7861                                         !
 ! D145  D(52,50,54,56)          7.3686                                         !
 ! D146  D(50,54,56,82)        151.8493                                         !
 ! D147  D(55,54,56,82)        -20.756                                          !
 ! D148  D(49,57,59,60)         15.6266                                         !
 ! D149  D(49,57,59,61)       -104.471                                          !
 ! D150  D(49,57,59,62)        136.8666                                         !
 ! D151  D(58,57,59,60)        172.5507                                         !
 ! D152  D(58,57,59,61)         52.4531                                         !
 ! D153  D(58,57,59,62)        -66.2093                                         !
 ! D154  D(57,59,61,65)        141.4174                                         !
 ! D155  D(57,59,61,81)        -46.0063                                         !
 ! D156  D(60,59,61,65)         22.7762                                         !
 ! D157  D(60,59,61,81)       -164.6475                                         !
 ! D158  D(62,59,61,65)       -100.3146                                         !
 ! D159  D(62,59,61,81)         72.2617                                         !
 ! D160  D(57,59,62,63)         70.5663                                         !
 ! D161  D(57,59,62,64)        -42.8885                                         !
 ! D162  D(57,59,62,66)       -164.0473                                         !
 ! D163  D(60,59,62,63)       -170.7133                                         !
 ! D164  D(60,59,62,64)         75.832                                          !
 ! D165  D(60,59,62,66)        -45.3269                                         !
 ! D166  D(61,59,62,63)        -48.6142                                         !
 ! D167  D(61,59,62,64)       -162.0689                                         !
 ! D168  D(61,59,62,66)         76.7722                                         !
 ! D169  D(59,62,66,67)       -177.2218                                         !
 ! D170  D(59,62,66,68)         68.5811                                         !
 ! D171  D(59,62,66,69)        -53.3656                                         !
 ! D172  D(63,62,66,67)        -53.193                                          !
 ! D173  D(63,62,66,68)       -167.3902                                         !
 ! D174  D(63,62,66,69)         70.6631                                         !
 ! D175  D(64,62,66,67)         61.2539                                         !
 ! D176  D(64,62,66,68)        -52.9432                                         !
 ! D177  D(64,62,66,69)       -174.8899                                         !
 ! D178  D(62,66,69,70)         78.726                                          !
 ! D179  D(62,66,69,71)       -163.5268                                         !
 ! D180  D(62,66,69,72)        -37.8251                                         !
 ! D181  D(67,66,69,70)       -158.7336                                         !
 ! D182  D(67,66,69,71)        -40.9863                                         !
 ! D183  D(67,66,69,72)         84.7154                                         !
 ! D184  D(68,66,69,70)        -45.0008                                         !
 ! D185  D(68,66,69,71)         72.7465                                         !
 ! D186  D(68,66,69,72)       -161.5518                                         !
 ! D187  D(66,69,72,73)        100.8987                                         !
 ! D188  D(66,69,72,80)        -48.3507                                         !
 ! D189  D(70,69,72,73)        -19.1948                                         !
 ! D190  D(70,69,72,80)       -168.4442                                         !
 ! D191  D(71,69,72,73)       -133.6767                                         !
 ! D192  D(71,69,72,80)         77.0738                                         !
 ! D193  D(69,72,80,74)        -36.2946                                         !
 ! D194  D(69,72,80,77)        143.9629                                         !
 ! D195  D(73,72,80,74)        175.5815                                         !
 ! D196  D(73,72,80,77)         -4.161                                          !
 ! D197  D(75,74,80,72)        173.933                                          !
 ! D198  D(75,74,80,77)         -6.3318                                         !
 ! D199  D(76,74,80,72)        -19.3741                                         !
 ! D200  D(76,74,80,77)        160.3611                                         !
 ! D201  D(78,77,80,72)        -32.514                                          !
 ! D202  D(78,77,80,74)        147.748                                          !
 ! D203  D(79,77,80,72)        171.3563                                         !
 ! D204  D(79,77,80,74)         -8.3817                                         !
 --------------------------------------------------------------------------------
 Symmetry turned off by external request.
 Stoichiometry    C25H39N8O10(1+)
 Framework group  C1[X(C25H39N8O10)]
 Deg. of freedom   240
 Full point group                 C1      NOp   1
                          Input orientation:                          
 ---------------------------------------------------------------------
 Center     Atomic      Atomic             Coordinates (Angstroms)
 Number     Number       Type             X           Y           Z
 ---------------------------------------------------------------------
      1          7           0       -6.030774   -1.239210   -5.264379
      2          1           0       -6.057755   -2.292726   -5.363007
      3          1           0       -6.738075   -0.968380   -4.560305
      4          1           0       -6.223941   -0.762429   -6.147318
      5          6           0       -4.644528   -0.992578   -4.713801
      6          1           0       -4.005442   -0.718924   -5.558984
      7          6           0       -4.228196   -2.410361   -4.223320
      8          6           0       -4.659715    0.134658   -3.655529
      9          1           0       -3.645738    0.237275   -3.255370
     10          1           0       -4.876703    1.079200   -4.168512
     11          8           0       -4.925556   -3.369403   -4.580281
     12          6           0       -5.664610   -0.119542   -2.552070
     13          6           0       -6.981518    0.355052   -2.683437
     14          1           0       -7.240745    1.015465   -3.511490
     15          6           0       -5.323412   -0.880220   -1.424057
     16          1           0       -4.301400   -1.221848   -1.284924
     17          6           0       -7.947702    0.052013   -1.719094
     18          1           0       -8.958186    0.434864   -1.827033
     19          6           0       -6.288215   -1.173690   -0.460399
     20          1           0       -6.010085   -1.754426    0.414132
     21          6           0       -7.601853   -0.720037   -0.610110
     22          1           0       -8.347453   -0.952795    0.144084
     23          7           0       -3.126297   -2.487185   -3.484771
     24          1           0       -2.689761   -1.653783   -3.093888
     25          6           0       -2.681753   -3.699016   -2.808048
     26          1           0       -3.518455   -4.397967   -2.728962
     27          6           0       -2.188357   -3.245027   -1.430533
     28          6           0       -1.518741   -4.384802   -3.590558
     29          1           0       -0.736811   -3.634261   -3.772509
     30          1           0       -1.918393   -4.709393   -4.557223
     31          8           0       -1.967470   -2.049114   -1.207888
     32          8           0       -1.023583   -5.509039   -2.906713
     33          1           0       -0.302567   -5.188512   -2.318102
     34          7           0       -1.967436   -4.234222   -0.540366
     35          1           0       -2.015350   -5.178787   -0.909314
     36          6           0       -1.038227   -4.010850    0.555007
     37          1           0       -1.370707   -3.130725    1.112190
     38          6           0        0.376316   -3.766767   -0.025721
     39          6           0       -1.016043   -5.221232    1.490623
     40          1           0       -0.297328   -5.017544    2.298314
     41          1           0       -0.647298   -6.099350    0.932917
     42          8           0        0.695894   -4.187380   -1.147049
     43          8           0       -2.333087   -5.411529    1.972593
     44          1           0       -2.327662   -6.165483    2.582131
     45          7           0        1.220140   -3.114432    0.780744
     46          1           0        0.930430   -2.719915    1.674334
     47          6           0        2.592283   -2.793597    0.429074
     48          1           0        3.090442   -3.685334    0.037421
     49          6           0        3.258547   -2.321492    1.745389
     50          6           0        2.643534   -1.697005   -0.675062
     51          1           0        2.180490   -2.117702   -1.571004
     52          1           0        2.093062   -0.812684   -0.346975
     53          8           0        2.554740   -1.956178    2.687990
     54          6           0        4.101517   -1.371939   -0.936044
     55          8           0        4.894843   -2.217489   -1.315165
     56          8           0        4.427113   -0.134592   -0.563080
     57          7           0        4.610392   -2.346026    1.755258
     58          1           0        5.095348   -2.552106    0.886745
     59          6           0        5.416446   -1.627816    2.745925
     60          1           0        4.760804   -1.347088    3.570730
     61          6           0        6.035396   -0.361890    2.097591
     62          6           0        6.560940   -2.563700    3.210475
     63          1           0        7.260109   -2.659362    2.369405
     64          1           0        6.128125   -3.559939    3.358839
     65          8           0        6.100088    0.677756    2.777019
     66          6           0        7.335749   -2.223354    4.500345
     67          1           0        8.119865   -2.983766    4.603809
     68          1           0        6.676315   -2.349639    5.368350
     69          6           0        7.965748   -0.819699    4.646969
     70          1           0        7.196845   -0.097258    4.921998
     71          1           0        8.708855   -0.829368    5.453769
     72          7           0        8.549245   -0.245857    3.421533
     73          1           0        7.916177    0.441540    2.993516
     74          7           0       10.311840   -1.714789    3.063893
     75          1           0       10.891682   -2.259678    2.444224
     76          1           0       10.577849   -1.673461    4.036529
     77          7           0        9.276653   -0.610226    1.273228
     78          1           0        8.313305   -0.406835    0.924309
     79          1           0        9.971135   -0.956524    0.626763
     80          6           0        9.382240   -0.861331    2.581833
     81          8           0        6.565411   -0.560180    0.943496
     82          1           0        5.395701   -0.129099   -0.322837
 ---------------------------------------------------------------------
 Rotational constants (GHZ):           0.1583349           0.0240792           0.0238324
 Standard basis: 6-31G(d) (6D, 7F)
   723 basis functions,  1360 primitive gaussians,   723 cartesian basis functions
   162 alpha electrons      162 beta electrons
       nuclear repulsion energy      5284.2435754385 Hartrees.
 NAtoms=   82 NActive=   82 NUniq=   82 SFac= 1.00D+00 NAtFMM=   60 NAOKFM=T Big=T
 Integral buffers will be    131072 words long.
 Raffenetti 2 integral format.
 Two-electron integral symmetry is turned off.
 Nuclear repulsion after empirical dispersion term =     5284.1327980020 Hartrees.
 One-electron integrals computed using PRISM.
 NBasis=   723 RedAO= T EigKep=  4.55D-04  NBF=   723
 NBsUse=   723 1.00D-06 EigRej= -1.00D+00 NBFU=   723
 Initial guess from the checkpoint file:  "conf-472.chk"
 B after Tr=     0.000000    0.000000    0.000000
         Rot=    1.000000    0.000000    0.000000    0.000000 Ang=   0.00 deg.
 Requested convergence on RMS density matrix=1.00D-08 within 128 cycles.
 Requested convergence on MAX density matrix=1.00D-06.
 Requested convergence on             energy=1.00D-06.
 No special actions if energy rises.
 SCF Done:  E(RB3LYP) =  -2166.38550537     A.U. after    1 cycles
            NFock=  1  Conv=0.44D-08     -V/T= 2.0092

 **********************************************************************

            Population analysis using the SCF Density.

 **********************************************************************

 Alpha  occ. eigenvalues --  -19.26030 -19.22595 -19.22106 -19.21802 -19.21406
 Alpha  occ. eigenvalues --  -19.20421 -19.17751 -19.17747 -19.15174 -19.14504
 Alpha  occ. eigenvalues --  -14.58695 -14.48785 -14.47222 -14.44873 -14.44502
 Alpha  occ. eigenvalues --  -14.44205 -14.43793 -14.41301 -10.42927 -10.41902
 Alpha  occ. eigenvalues --  -10.40250 -10.38352 -10.37169 -10.36248 -10.34895
 Alpha  occ. eigenvalues --  -10.33649 -10.33168 -10.32695 -10.32327 -10.32040
 Alpha  occ. eigenvalues --  -10.31887 -10.31452 -10.30519 -10.30374 -10.29925
 Alpha  occ. eigenvalues --  -10.29628 -10.29287 -10.29191 -10.29112 -10.27275
 Alpha  occ. eigenvalues --  -10.26005 -10.25460 -10.25070  -1.18519  -1.13890
 Alpha  occ. eigenvalues --   -1.13811  -1.12848  -1.11857  -1.10611  -1.10103
 Alpha  occ. eigenvalues --   -1.09575  -1.09158  -1.08039  -1.05478  -1.05023
 Alpha  occ. eigenvalues --   -1.01727  -1.00348  -0.99931  -0.99522  -0.98353
 Alpha  occ. eigenvalues --   -0.97583  -0.96857  -0.92522  -0.87782  -0.86491
 Alpha  occ. eigenvalues --   -0.85795  -0.85027  -0.84625  -0.82916  -0.80268
 Alpha  occ. eigenvalues --   -0.79125  -0.76084  -0.74711  -0.74397  -0.73772
 Alpha  occ. eigenvalues --   -0.72686  -0.72125  -0.71768  -0.70498  -0.70031
 Alpha  occ. eigenvalues --   -0.68945  -0.67987  -0.67531  -0.66767  -0.66605
 Alpha  occ. eigenvalues --   -0.65306  -0.64874  -0.63299  -0.63073  -0.62850
 Alpha  occ. eigenvalues --   -0.62518  -0.60718  -0.60596  -0.60045  -0.59884
 Alpha  occ. eigenvalues --   -0.59074  -0.58516  -0.58181  -0.57385  -0.56898
 Alpha  occ. eigenvalues --   -0.56719  -0.56449  -0.55911  -0.55501  -0.54911
 Alpha  occ. eigenvalues --   -0.53837  -0.53604  -0.53422  -0.52998  -0.52450
 Alpha  occ. eigenvalues --   -0.52245  -0.52142  -0.51888  -0.51692  -0.51652
 Alpha  occ. eigenvalues --   -0.51055  -0.50776  -0.50552  -0.50334  -0.50146
 Alpha  occ. eigenvalues --   -0.49301  -0.49016  -0.48512  -0.48135  -0.47847
 Alpha  occ. eigenvalues --   -0.47224  -0.46886  -0.46682  -0.46065  -0.45865
 Alpha  occ. eigenvalues --   -0.44927  -0.44763  -0.44717  -0.44274  -0.43525
 Alpha  occ. eigenvalues --   -0.42721  -0.42224  -0.41987  -0.41634  -0.41029
 Alpha  occ. eigenvalues --   -0.40960  -0.40677  -0.40598  -0.39534  -0.39377
 Alpha  occ. eigenvalues --   -0.37486  -0.36349  -0.35862  -0.35757  -0.35499
 Alpha  occ. eigenvalues --   -0.35418  -0.35169  -0.34596  -0.34408  -0.33845
 Alpha  occ. eigenvalues --   -0.33255  -0.32686  -0.31826  -0.31409  -0.30761
 Alpha  occ. eigenvalues --   -0.29393  -0.27537
 Alpha virt. eigenvalues --   -0.12190  -0.11582  -0.11509  -0.08084  -0.07894
 Alpha virt. eigenvalues --   -0.07220  -0.06463  -0.04118  -0.03730  -0.03682
 Alpha virt. eigenvalues --   -0.03286  -0.02623  -0.01747  -0.01115  -0.00249
 Alpha virt. eigenvalues --    0.00007   0.00269   0.01059   0.01724   0.01936
 Alpha virt. eigenvalues --    0.02331   0.02825   0.03353   0.04136   0.04398
 Alpha virt. eigenvalues --    0.04667   0.05313   0.05780   0.05980   0.06403
 Alpha virt. eigenvalues --    0.06728   0.06844   0.07230   0.07685   0.08017
 Alpha virt. eigenvalues --    0.08706   0.09022   0.09283   0.09352   0.09800
 Alpha virt. eigenvalues --    0.09873   0.09963   0.10084   0.10461   0.10772
 Alpha virt. eigenvalues --    0.10948   0.11167   0.11631   0.11734   0.12023
 Alpha virt. eigenvalues --    0.12076   0.12711   0.13179   0.13425   0.14084
 Alpha virt. eigenvalues --    0.14523   0.15160   0.15545   0.15690   0.16495
 Alpha virt. eigenvalues --    0.17281   0.17845   0.18161   0.18259   0.18927
 Alpha virt. eigenvalues --    0.19228   0.19792   0.20186   0.20565   0.20748
 Alpha virt. eigenvalues --    0.21494   0.21914   0.22483   0.22720   0.23769
 Alpha virt. eigenvalues --    0.24237   0.24798   0.26763   0.28131   0.28967
 Alpha virt. eigenvalues --    0.29762   0.29789   0.30660   0.31447   0.31816
 Alpha virt. eigenvalues --    0.33153   0.33420   0.33987   0.36398   0.36557
 Alpha virt. eigenvalues --    0.36695   0.39017   0.39488   0.39557   0.41429
 Alpha virt. eigenvalues --    0.41551   0.42868   0.43332   0.43515   0.43831
 Alpha virt. eigenvalues --    0.44491   0.44561   0.45006   0.45031   0.45319
 Alpha virt. eigenvalues --    0.45584   0.46922   0.47119   0.47250   0.47475
 Alpha virt. eigenvalues --    0.48087   0.48118   0.48400   0.48868   0.48964
 Alpha virt. eigenvalues --    0.49173   0.49955   0.50486   0.51108   0.51634
 Alpha virt. eigenvalues --    0.51685   0.51813   0.52070   0.52409   0.52716
 Alpha virt. eigenvalues --    0.53452   0.54187   0.54223   0.54350   0.54505
 Alpha virt. eigenvalues --    0.54721   0.55015   0.55926   0.56506   0.56654
 Alpha virt. eigenvalues --    0.57087   0.57367   0.58079   0.58367   0.58612
 Alpha virt. eigenvalues --    0.59328   0.59834   0.60245   0.61039   0.61526
 Alpha virt. eigenvalues --    0.61561   0.61920   0.62387   0.62896   0.63112
 Alpha virt. eigenvalues --    0.63315   0.63735   0.64121   0.64305   0.65029
 Alpha virt. eigenvalues --    0.65245   0.65941   0.66791   0.67486   0.68284
 Alpha virt. eigenvalues --    0.68675   0.68710   0.69178   0.69796   0.69910
 Alpha virt. eigenvalues --    0.70687   0.71270   0.71700   0.72409   0.72901
 Alpha virt. eigenvalues --    0.73058   0.73864   0.74098   0.74574   0.74728
 Alpha virt. eigenvalues --    0.74872   0.74977   0.75477   0.75620   0.75812
 Alpha virt. eigenvalues --    0.76250   0.76457   0.76629   0.76702   0.77109
 Alpha virt. eigenvalues --    0.77830   0.78178   0.78780   0.79075   0.79406
 Alpha virt. eigenvalues --    0.79711   0.79997   0.80763   0.81109   0.81686
 Alpha virt. eigenvalues --    0.81819   0.82110   0.82618   0.83127   0.83427
 Alpha virt. eigenvalues --    0.83553   0.83867   0.84377   0.84813   0.85084
 Alpha virt. eigenvalues --    0.85267   0.85535   0.86039   0.86193   0.86490
 Alpha virt. eigenvalues --    0.86596   0.87567   0.87880   0.88269   0.88431
 Alpha virt. eigenvalues --    0.89112   0.89784   0.90298   0.90590   0.90702
 Alpha virt. eigenvalues --    0.91215   0.91540   0.91858   0.92349   0.92965
 Alpha virt. eigenvalues --    0.93698   0.94213   0.95285   0.96026   0.96341
 Alpha virt. eigenvalues --    0.96582   0.97258   0.97823   0.98929   0.99453
 Alpha virt. eigenvalues --    1.00663   1.01054   1.01866   1.02659   1.03343
 Alpha virt. eigenvalues --    1.03887   1.04496   1.04691   1.05166   1.05685
 Alpha virt. eigenvalues --    1.05883   1.06276   1.06646   1.08474   1.09621
 Alpha virt. eigenvalues --    1.10070   1.10191   1.10909   1.11889   1.12499
 Alpha virt. eigenvalues --    1.13089   1.13186   1.14356   1.14909   1.15896
 Alpha virt. eigenvalues --    1.16645   1.16966   1.17127   1.17508   1.17845
 Alpha virt. eigenvalues --    1.18150   1.20164   1.20730   1.22666   1.23392
 Alpha virt. eigenvalues --    1.23733   1.24711   1.25065   1.26873   1.27665
 Alpha virt. eigenvalues --    1.28853   1.29468   1.29715   1.30329   1.30512
 Alpha virt. eigenvalues --    1.31033   1.31911   1.32653   1.32941   1.33943
 Alpha virt. eigenvalues --    1.34298   1.35443   1.35941   1.36169   1.36754
 Alpha virt. eigenvalues --    1.38814   1.39209   1.39920   1.40295   1.40497
 Alpha virt. eigenvalues --    1.40964   1.41442   1.41743   1.42286   1.43226
 Alpha virt. eigenvalues --    1.43937   1.45121   1.46403   1.47075   1.47577
 Alpha virt. eigenvalues --    1.47814   1.48169   1.49947   1.50263   1.51298
 Alpha virt. eigenvalues --    1.52039   1.52493   1.53697   1.54164   1.55962
 Alpha virt. eigenvalues --    1.56475   1.56924   1.57396   1.59634   1.60384
 Alpha virt. eigenvalues --    1.61102   1.61424   1.62700   1.62925   1.63898
 Alpha virt. eigenvalues --    1.64281   1.64707   1.65413   1.65706   1.66248
 Alpha virt. eigenvalues --    1.66583   1.68014   1.68452   1.69171   1.69311
 Alpha virt. eigenvalues --    1.69816   1.70106   1.71424   1.71651   1.72128
 Alpha virt. eigenvalues --    1.72588   1.73316   1.73859   1.74096   1.74259
 Alpha virt. eigenvalues --    1.74863   1.75419   1.76271   1.76407   1.77137
 Alpha virt. eigenvalues --    1.77281   1.77532   1.77946   1.78650   1.79215
 Alpha virt. eigenvalues --    1.79815   1.80051   1.80703   1.80839   1.81656
 Alpha virt. eigenvalues --    1.81780   1.82047   1.82396   1.82681   1.82890
 Alpha virt. eigenvalues --    1.83693   1.84224   1.85108   1.85452   1.86099
 Alpha virt. eigenvalues --    1.86240   1.86952   1.87215   1.87825   1.89470
 Alpha virt. eigenvalues --    1.90442   1.90680   1.91356   1.91631   1.92171
 Alpha virt. eigenvalues --    1.92812   1.92860   1.93397   1.94228   1.94401
 Alpha virt. eigenvalues --    1.94562   1.95213   1.95607   1.96119   1.96162
 Alpha virt. eigenvalues --    1.96935   1.97545   1.97934   1.98396   2.00016
 Alpha virt. eigenvalues --    2.00384   2.00576   2.01522   2.02544   2.03292
 Alpha virt. eigenvalues --    2.03433   2.04314   2.04658   2.05096   2.05398
 Alpha virt. eigenvalues --    2.06869   2.07437   2.07989   2.08518   2.08888
 Alpha virt. eigenvalues --    2.09740   2.10804   2.12859   2.13121   2.13676
 Alpha virt. eigenvalues --    2.14983   2.15354   2.15967   2.16630   2.18093
 Alpha virt. eigenvalues --    2.18595   2.19100   2.19261   2.20384   2.20775
 Alpha virt. eigenvalues --    2.21035   2.22504   2.22685   2.23020   2.24240
 Alpha virt. eigenvalues --    2.24724   2.25521   2.26545   2.27246   2.27961
 Alpha virt. eigenvalues --    2.29263   2.29887   2.30425   2.30723   2.31291
 Alpha virt. eigenvalues --    2.32295   2.33540   2.33949   2.34080   2.35914
 Alpha virt. eigenvalues --    2.36260   2.36900   2.37477   2.38781   2.40483
 Alpha virt. eigenvalues --    2.41715   2.41951   2.42890   2.44008   2.44837
 Alpha virt. eigenvalues --    2.45216   2.45766   2.46221   2.46920   2.47124
 Alpha virt. eigenvalues --    2.47879   2.48339   2.50158   2.50288   2.51250
 Alpha virt. eigenvalues --    2.51338   2.53453   2.54841   2.54966   2.55565
 Alpha virt. eigenvalues --    2.56126   2.57022   2.58992   2.60034   2.61351
 Alpha virt. eigenvalues --    2.61657   2.63214   2.63248   2.64019   2.64652
 Alpha virt. eigenvalues --    2.65162   2.65696   2.66564   2.66788   2.67452
 Alpha virt. eigenvalues --    2.68091   2.69060   2.69973   2.71329   2.72616
 Alpha virt. eigenvalues --    2.75525   2.77873   2.78804   2.80111   2.80782
 Alpha virt. eigenvalues --    2.81364   2.82347   2.84617   2.85523   2.86943
 Alpha virt. eigenvalues --    2.88960   2.89439   2.91350   2.92780   2.93750
 Alpha virt. eigenvalues --    2.94279   2.94648   2.96295   2.97780   2.99199
 Alpha virt. eigenvalues --    3.01411   3.03400   3.05273   3.07681   3.09934
 Alpha virt. eigenvalues --    3.11819   3.14857   3.29744   3.68180   3.70227
 Alpha virt. eigenvalues --    3.71355   3.78895   3.81254   3.87485   3.91419
 Alpha virt. eigenvalues --    3.94290   3.94638   3.98073   3.99263   3.99528
 Alpha virt. eigenvalues --    4.02734   4.03260   4.04148   4.07593   4.09083
 Alpha virt. eigenvalues --    4.10557   4.12266   4.14201   4.15088   4.17770
 Alpha virt. eigenvalues --    4.18930   4.19409   4.23362   4.24171   4.25503
 Alpha virt. eigenvalues --    4.28453   4.30776   4.32412   4.33294   4.33549
 Alpha virt. eigenvalues --    4.36706   4.37902   4.46156   4.47187   4.48061
 Alpha virt. eigenvalues --    4.53288   4.57597   4.59921   4.62181   4.62347
 Alpha virt. eigenvalues --    4.64335
          Condensed to atoms (all electrons):
 Mulliken charges:
               1
     1  N   -0.755605
     2  H    0.432854
     3  H    0.403692
     4  H    0.409263
     5  C   -0.115709
     6  H    0.228022
     7  C    0.655185
     8  C   -0.394927
     9  H    0.208648
    10  H    0.188283
    11  O   -0.533735
    12  C    0.140775
    13  C   -0.241598
    14  H    0.140772
    15  C   -0.186610
    16  H    0.177762
    17  C   -0.118600
    18  H    0.163312
    19  C   -0.130165
    20  H    0.169222
    21  C   -0.121831
    22  H    0.166395
    23  N   -0.601424
    24  H    0.370428
    25  C   -0.100208
    26  H    0.205988
    27  C    0.626949
    28  C   -0.026073
    29  H    0.151418
    30  H    0.167526
    31  O   -0.551707
    32  O   -0.643770
    33  H    0.443939
    34  N   -0.568988
    35  H    0.354438
    36  C   -0.078081
    37  H    0.197528
    38  C    0.650219
    39  C   -0.050564
    40  H    0.156583
    41  H    0.144110
    42  O   -0.570185
    43  O   -0.609532
    44  H    0.409657
    45  N   -0.614504
    46  H    0.365356
    47  C   -0.053483
    48  H    0.198729
    49  C    0.606195
    50  C   -0.323181
    51  H    0.194381
    52  H    0.177222
    53  O   -0.537436
    54  C    0.554985
    55  O   -0.484015
    56  O   -0.572742
    57  N   -0.612007
    58  H    0.364195
    59  C   -0.035229
    60  H    0.183057
    61  C    0.593267
    62  C   -0.290666
    63  H    0.144054
    64  H    0.159637
    65  O   -0.554929
    66  C   -0.280681
    67  H    0.141428
    68  H    0.164684
    69  C   -0.167255
    70  H    0.212071
    71  H    0.154222
    72  N   -0.593859
    73  H    0.398411
    74  N   -0.753476
    75  H    0.366067
    76  H    0.374555
    77  N   -0.763133
    78  H    0.423836
    79  H    0.347712
    80  C    0.754346
    81  O   -0.654549
    82  H    0.449077
 Sum of Mulliken charges =   1.00000
 Mulliken charges with hydrogens summed into heavy atoms:
               1
     1  N    0.490204
     5  C    0.112313
     7  C    0.655185
     8  C    0.002003
    11  O   -0.533735
    12  C    0.140775
    13  C   -0.100826
    15  C   -0.008849
    17  C    0.044712
    19  C    0.039057
    21  C    0.044564
    23  N   -0.230996
    25  C    0.105780
    27  C    0.626949
    28  C    0.292872
    31  O   -0.551707
    32  O   -0.199831
    34  N   -0.214549
    36  C    0.119447
    38  C    0.650219
    39  C    0.250129
    42  O   -0.570185
    43  O   -0.199875
    45  N   -0.249148
    47  C    0.145246
    49  C    0.606195
    50  C    0.048421
    53  O   -0.537436
    54  C    0.554985
    55  O   -0.484015
    56  O   -0.123664
    57  N   -0.247812
    59  C    0.147828
    61  C    0.593267
    62  C    0.013026
    65  O   -0.554929
    66  C    0.025431
    69  C    0.199038
    72  N   -0.195448
    74  N   -0.012855
    77  N    0.008415
    80  C    0.754346
    81  O   -0.654549
 Electronic spatial extent (au):  <R**2>=          49897.8790
 Charge=              1.0000 electrons
 Dipole moment (field-independent basis, Debye):
    X=             -4.8658    Y=             -9.5198    Z=             -8.6665  Tot=             13.7627
 Quadrupole moment (field-independent basis, Debye-Ang):
   XX=             90.8991   YY=           -227.4283   ZZ=           -135.1735
   XY=            -32.7441   XZ=            155.4405   YZ=            -31.5013
 Traceless Quadrupole moment (field-independent basis, Debye-Ang):
   XX=            181.4667   YY=           -136.8607   ZZ=            -44.6059
   XY=            -32.7441   XZ=            155.4405   YZ=            -31.5013
 Octapole moment (field-independent basis, Debye-Ang**2):
  XXX=            868.9690  YYY=           1406.4434  ZZZ=           -221.8246  XYY=           -157.9160
  XXY=            -10.0837  XXZ=            161.1849  XZZ=           -479.2804  YZZ=            405.6943
  YYZ=            226.2911  XYZ=           -178.8879
 Hexadecapole moment (field-independent basis, Debye-Ang**3):
 XXXX=         -10075.7929 YYYY=          -9784.1485 ZZZZ=          -7336.7708 XXXY=          -4196.2849
 XXXZ=           2415.6411 YYYX=            472.8496 YYYZ=          -1627.6512 ZZZX=          -3824.9196
 ZZZY=           -599.6568 XXYY=          -8301.7366 XXZZ=          -3271.0533 YYZZ=          -3506.0197
 XXYZ=          -1516.3259 YYXZ=          -2608.0515 ZZXY=            -25.7610
 N-N= 5.284132798002D+03 E-N=-1.559795026805D+04  KE= 2.146595582785D+03
 Unable to Open any file for archive entry.
 1\1\GINC-LAC-317\SP\RB3LYP\6-31G(d)\C25H39N8O10(1+)\KENGMITH\16-May-20
 22\0\\# B3LYP/6-31G* empiricaldispersion=gd3 guess=read geom=check nos
 ymm integral(ultrafinegrid)\\Candidate Structure: Conf:472 Charge calc
  in gas phase\\1,1\N,0,-6.0307740946,-1.2392097877,-5.2643794953\H,0,-
 6.0577546467,-2.2927264495,-5.3630074482\H,0,-6.7380747848,-0.96838036
 06,-4.5603054569\H,0,-6.2239405892,-0.76242899,-6.147318314\C,0,-4.644
 5277675,-0.9925778121,-4.7138014831\H,0,-4.00544173,-0.7189243188,-5.5
 589839812\C,0,-4.2281960271,-2.4103609791,-4.2233195595\C,0,-4.6597151
 232,0.1346582316,-3.6555293878\H,0,-3.6457380415,0.2372754224,-3.25537
 03459\H,0,-4.8767026248,1.0791996711,-4.168511728\O,0,-4.9255558237,-3
 .3694027127,-4.5802805921\C,0,-5.6646103676,-0.1195424014,-2.552069769
 \C,0,-6.9815179471,0.3550519537,-2.6834374311\H,0,-7.2407452599,1.0154
 653128,-3.5114904375\C,0,-5.3234119442,-0.880219921,-1.4240570666\H,0,
 -4.3013998022,-1.2218476795,-1.2849238486\C,0,-7.9477020707,0.05201279
 31,-1.7190936633\H,0,-8.9581864947,0.4348636752,-1.8270325997\C,0,-6.2
 882152802,-1.1736897825,-0.4603986694\H,0,-6.0100847599,-1.7544256461,
 0.4141320809\C,0,-7.6018533987,-0.7200371103,-0.6101096626\H,0,-8.3474
 525628,-0.9527954708,0.1440839352\N,0,-3.1262969267,-2.4871851256,-3.4
 847712204\H,0,-2.6897607435,-1.6537825054,-3.0938878266\C,0,-2.6817531
 19,-3.6990163087,-2.8080481138\H,0,-3.5184546497,-4.3979666697,-2.7289
 619222\C,0,-2.1883573036,-3.2450265897,-1.4305330688\C,0,-1.5187405322
 ,-4.3848021281,-3.5905580939\H,0,-0.7368110106,-3.6342609247,-3.772509
 0596\H,0,-1.9183928544,-4.7093934843,-4.5572234955\O,0,-1.9674697951,-
 2.0491143609,-1.2078884152\O,0,-1.0235827493,-5.5090385175,-2.90671329
 12\H,0,-0.3025666814,-5.1885122422,-2.3181016012\N,0,-1.9674358431,-4.
 2342216701,-0.540365624\H,0,-2.0153503647,-5.178787152,-0.9093142324\C
 ,0,-1.0382269212,-4.0108502985,0.5550068122\H,0,-1.3707072923,-3.13072
 49565,1.1121901957\C,0,0.3763162753,-3.7667672029,-0.025720681\C,0,-1.
 0160433567,-5.2212322318,1.490623244\H,0,-0.2973279331,-5.0175437238,2
 .2983138614\H,0,-0.6472980057,-6.0993495839,0.9329174817\O,0,0.6958940
 423,-4.1873803372,-1.1470489844\O,0,-2.3330868597,-5.4115290621,1.9725
 926306\H,0,-2.3276617428,-6.1654827628,2.5821307673\N,0,1.2201395674,-
 3.1144315197,0.7807435587\H,0,0.9304299044,-2.7199151441,1.6743341318\
 C,0,2.5922832709,-2.7935974215,0.4290736809\H,0,3.090441612,-3.6853342
 761,0.03742083\C,0,3.2585471746,-2.3214920176,1.7453890236\C,0,2.64353
 44599,-1.6970050169,-0.675061654\H,0,2.1804903904,-2.1177017886,-1.571
 0043191\H,0,2.0930616466,-0.8126835341,-0.3469750928\O,0,2.5547397266,
 -1.9561778186,2.6879895648\C,0,4.101517201,-1.3719390969,-0.9360444587
 \O,0,4.8948426054,-2.2174888862,-1.3151645051\O,0,4.4271131606,-0.1345
 918729,-0.5630799363\N,0,4.6103916406,-2.3460259696,1.7552579344\H,0,5
 .0953480468,-2.5521055553,0.8867445948\C,0,5.4164457529,-1.6278155163,
 2.7459248232\H,0,4.7608041868,-1.3470877536,3.5707304777\C,0,6.0353956
 265,-0.3618902106,2.0975911391\C,0,6.5609401968,-2.5636998634,3.210474
 5896\H,0,7.2601086165,-2.6593618092,2.3694045689\H,0,6.1281251507,-3.5
 599393476,3.3588391901\O,0,6.1000877124,0.677755524,2.7770192941\C,0,7
 .3357491581,-2.2233542329,4.5003445119\H,0,8.119864758,-2.9837658874,4
 .6038087291\H,0,6.6763146426,-2.3496386095,5.3683500306\C,0,7.96574792
 84,-0.8196991838,4.6469694018\H,0,7.1968450818,-0.0972575366,4.9219975
 734\H,0,8.708854739,-0.8293680677,5.4537694387\N,0,8.5492450343,-0.245
 8573999,3.4215330325\H,0,7.9161772182,0.4415398415,2.9935155071\N,0,10
 .3118400124,-1.7147885937,3.0638932842\H,0,10.8916816157,-2.259677697,
 2.4442239058\H,0,10.5778487424,-1.6734608441,4.0365292943\N,0,9.276653
 0336,-0.6102262352,1.2732277888\H,0,8.3133046494,-0.4068349495,0.92430
 88032\H,0,9.9711346393,-0.9565240412,0.6267626193\C,0,9.3822395329,-0.
 8613305816,2.5818327084\O,0,6.5654113793,-0.560179528,0.9434955822\H,0
 ,5.395700913,-0.1290990881,-0.3228371658\\Version=ES64L-G16RevC.01\HF=
 -2166.3855054\RMSD=4.441e-09\Dipole=-3.5203656,0.1608694,-3.0070349\Qu
 adrupole=134.9160081,-101.752602,-33.1634062,-24.3444652,115.566177,-2
 3.4204677\PG=C01 [X(C25H39N8O10)]\\@
 The archive entry for this job was punched.


 THERE IS NO SCIENCE WITHOUT FANCY, NOR ART WITHOUT FACTS.
     -- VLADIMIR NABAKOV
 Job cpu time:       0 days  0 hours  1 minutes 59.5 seconds.
 Elapsed time:       0 days  0 hours  0 minutes 30.5 seconds.
 File lengths (MBytes):  RWF=    384 Int=      0 D2E=      0 Chk=     56 Scr=     16
 Normal termination of Gaussian 16 at Mon May 16 14:27:45 2022.
