 Entering Gaussian System, Link 0=/opt/software/Gaussian/g16-AVX2-C.01/g16/g16
 Input=charge-conf-746.com
 Output=charge-conf-746.log
 Initial command:
 /opt/software/Gaussian/g16-AVX2-C.01/g16/l1.exe "/mnt/gs21/scratch/kengmith/Gau-13250.inp" -scrdir="/mnt/gs21/scratch/kengmith/"
 Entering Link 1 = /opt/software/Gaussian/g16-AVX2-C.01/g16/l1.exe PID=     13260.
  
 Copyright (c) 1988-2019, Gaussian, Inc.  All Rights Reserved.
  
 This is part of the Gaussian(R) 16 program.  It is based on
 the Gaussian(R) 09 system (copyright 2009, Gaussian, Inc.),
 the Gaussian(R) 03 system (copyright 2003, Gaussian, Inc.),
 the Gaussian(R) 98 system (copyright 1998, Gaussian, Inc.),
 the Gaussian(R) 94 system (copyright 1995, Gaussian, Inc.),
 the Gaussian 92(TM) system (copyright 1992, Gaussian, Inc.),
 the Gaussian 90(TM) system (copyright 1990, Gaussian, Inc.),
 the Gaussian 88(TM) system (copyright 1988, Gaussian, Inc.),
 the Gaussian 86(TM) system (copyright 1986, Carnegie Mellon
 University), and the Gaussian 82(TM) system (copyright 1983,
 Carnegie Mellon University). Gaussian is a federally registered
 trademark of Gaussian, Inc.
  
 This software contains proprietary and confidential information,
 including trade secrets, belonging to Gaussian, Inc.
  
 This software is provided under written license and may be
 used, copied, transmitted, or stored only in accord with that
 written license.
  
 The following legend is applicable only to US Government
 contracts under FAR:
  
                    RESTRICTED RIGHTS LEGEND
  
 Use, reproduction and disclosure by the US Government is
 subject to restrictions as set forth in subparagraphs (a)
 and (c) of the Commercial Computer Software - Restricted
 Rights clause in FAR 52.227-19.
  
 Gaussian, Inc.
 340 Quinnipiac St., Bldg. 40, Wallingford CT 06492
  
  
 ---------------------------------------------------------------
 Warning -- This program may not be used in any manner that
 competes with the business of Gaussian, Inc. or will provide
 assistance to any competitor of Gaussian, Inc.  The licensee
 of this program is prohibited from giving any competitor of
 Gaussian, Inc. access to this program.  By using this program,
 the user acknowledges that Gaussian, Inc. is engaged in the
 business of creating and licensing software in the field of
 computational chemistry and represents and warrants to the
 licensee that it is not a competitor of Gaussian, Inc. and that
 it will not use this program in any manner prohibited above.
 ---------------------------------------------------------------
  

 Cite this work as:
 Gaussian 16, Revision C.01,
 M. J. Frisch, G. W. Trucks, H. B. Schlegel, G. E. Scuseria, 
 M. A. Robb, J. R. Cheeseman, G. Scalmani, V. Barone, 
 G. A. Petersson, H. Nakatsuji, X. Li, M. Caricato, A. V. Marenich, 
 J. Bloino, B. G. Janesko, R. Gomperts, B. Mennucci, H. P. Hratchian, 
 J. V. Ortiz, A. F. Izmaylov, J. L. Sonnenberg, D. Williams-Young, 
 F. Ding, F. Lipparini, F. Egidi, J. Goings, B. Peng, A. Petrone, 
 T. Henderson, D. Ranasinghe, V. G. Zakrzewski, J. Gao, N. Rega, 
 G. Zheng, W. Liang, M. Hada, M. Ehara, K. Toyota, R. Fukuda, 
 J. Hasegawa, M. Ishida, T. Nakajima, Y. Honda, O. Kitao, H. Nakai, 
 T. Vreven, K. Throssell, J. A. Montgomery, Jr., J. E. Peralta, 
 F. Ogliaro, M. J. Bearpark, J. J. Heyd, E. N. Brothers, K. N. Kudin, 
 V. N. Staroverov, T. A. Keith, R. Kobayashi, J. Normand, 
 K. Raghavachari, A. P. Rendell, J. C. Burant, S. S. Iyengar, 
 J. Tomasi, M. Cossi, J. M. Millam, M. Klene, C. Adamo, R. Cammi, 
 J. W. Ochterski, R. L. Martin, K. Morokuma, O. Farkas, 
 J. B. Foresman, and D. J. Fox, Gaussian, Inc., Wallingford CT, 2019.
 
 ******************************************
 Gaussian 16:  ES64L-G16RevC.01  3-Jul-2019
                18-Oct-2022 
 ******************************************
 %mem=8gb
 %nproc=4
 Will use up to    4 processors via shared memory.
 %chk=conf-746.chk
 ----------------------------------------------------------------------
 # B3LYP/6-31G* empiricaldispersion=gd3bj guess=read geom=check nosymm 
 integral(ultrafinegrid)
 ----------------------------------------------------------------------
 1/29=2,38=1,172=1/1;
 2/12=2,15=1,40=1/2;
 3/5=1,6=6,7=1,11=2,14=-4,25=1,30=1,74=-5,75=-5,116=-2,124=41/1,2,3;
 4/5=1/1;
 5/5=2,38=6/2;
 6/7=2,8=2,9=2,10=2,28=1/1;
 99/5=1,9=1/99;
 ------------------------------------------------------
 Candidate Structure: Conf:746 Charge calc in gas phase
 ------------------------------------------------------
 Structure from the checkpoint file:  "conf-746.chk"
 Charge =  1 Multiplicity = 1
 Redundant internal coordinates found in file.  (old form).
 N,0,-4.5510837156,0.014206464,3.8382624782
 H,0,-5.4521304487,-0.0065864074,3.3637676316
 H,0,-4.3078521332,-0.9626155455,4.0002211232
 C,0,-3.5532342806,0.5927073871,2.9602251749
 H,0,-3.8520654316,1.6266497003,2.7363676906
 C,0,-3.4126327414,-0.1510285153,1.6184517268
 C,0,-2.1825579326,0.6572421915,3.6908959616
 H,0,-2.3052947439,1.3434121277,4.5335897403
 H,0,-1.4343746827,1.093274432,3.0169449095
 O,0,-3.8556560097,-1.274387029,1.4277393295
 C,0,-1.7169264831,-0.6908972694,4.1890696289
 C,0,-1.9286164048,-1.064722464,5.5211505256
 H,0,-2.4028702429,-0.3622351514,6.2007277253
 C,0,-1.122426588,-1.614892565,3.3201298183
 H,0,-0.9646930197,-1.3459109107,2.2813342426
 C,0,-1.5474166142,-2.3279727858,5.9759607761
 H,0,-1.7162882836,-2.6002574157,7.0138227349
 C,0,-0.7510944994,-2.8820919147,3.7658124633
 H,0,-0.3248146848,-3.5898332007,3.0627434166
 C,0,-0.9591619225,-3.2397141901,5.099288068
 H,0,-0.6719268961,-4.2264821135,5.4508230136
 N,0,-2.7332848325,0.5428508172,0.6433142094
 H,0,-2.4034038938,1.4776261846,0.8441652024
 C,0,-2.4312504921,-0.0263714757,-0.6613780104
 H,0,-2.707103835,-1.0811340005,-0.5879789936
 C,0,-0.9174383033,0.0905258324,-0.8841626542
 C,0,-3.2216856207,0.6505584417,-1.7837210886
 H,0,-2.9311600936,1.711760674,-1.7825403773
 H,0,-2.8967297901,0.2116805099,-2.7405348116
 O,0,-0.4136555399,1.0322449965,-1.5258729463
 C,0,-4.7499396453,0.5373716437,-1.6663537049
 H,0,-5.0375078817,0.9482783308,-0.6898379304
 C,0,-5.4159184489,1.3928803931,-2.7523325436
 H,0,-5.150467974,1.0329420808,-3.7563713926
 H,0,-6.5067010823,1.3518366157,-2.6735327481
 H,0,-5.1236904713,2.4492404892,-2.6695356933
 C,0,-5.2304643932,-0.9174776203,-1.7351829015
 H,0,-4.8873357048,-1.4011185665,-2.6592625258
 H,0,-4.8735241069,-1.4986703635,-0.8807886143
 H,0,-6.3247348782,-0.9587212858,-1.7269685961
 N,0,-0.1843461556,-0.8359337388,-0.2475975392
 H,0,-0.6182269664,-1.6961795623,0.0969097434
 C,0,1.265288831,-0.8532033071,-0.2750754395
 H,0,1.6269659239,0.143272079,0.0017614766
 C,0,1.7742118771,-1.198482252,-1.6877998608
 C,0,1.8020364363,-1.8784036323,0.7476196998
 H,0,2.8951040189,-1.8814923192,0.7021839231
 H,0,1.5052876431,-1.5662908058,1.7546472111
 O,0,1.1474836008,-1.9292868385,-2.4397576074
 C,0,1.2099241049,-3.2660069186,0.5151303809
 N,0,2.0839604926,-4.2691721133,0.2852052285
 H,0,1.717024637,-5.1942978046,0.1035577597
 H,0,3.0781353338,-4.1201147957,0.2055385539
 O,0,-0.0086419695,-3.4436935034,0.5608584381
 N,0,2.9767903675,-0.6365947539,-2.0104143768
 H,0,3.4025990728,0.0189312703,-1.3690086035
 C,0,3.4681470871,-0.6668725072,-3.3768334161
 H,0,3.0132962783,-1.553530455,-3.8328527717
 C,0,4.977908559,-0.8412476284,-3.4670346168
 C,0,3.030176797,0.583160237,-4.1779242108
 H,0,3.3734741212,0.4647475496,-5.2096635088
 H,0,3.545499824,1.46423202,-3.7702081181
 O,0,5.6043418646,-0.6639431805,-4.4847829565
 C,0,1.5182271174,0.7720668906,-4.0796918327
 H,0,0.9919932071,-0.0632973769,-4.5532538898
 H,0,1.2359155465,0.757117141,-3.0265832264
 C,0,0.9966167631,2.0917737375,-4.6398242095
 H,0,1.6190178393,2.9312065359,-4.3025986531
 H,0,0.988495447,2.0881351188,-5.7351199086
 N,0,-0.381815558,2.2743389513,-4.1533479048
 H,0,-0.5913776529,1.8649052616,-3.2316837955
 N,0,-1.0537777009,3.7159548086,-5.8518569437
 H,0,-1.7786952403,3.9929986664,-6.497361442
 H,0,-0.1012775782,3.9388190622,-6.0962188206
 N,0,-2.6179718711,2.8233408696,-4.40645633
 H,0,-3.2970816779,3.5285617845,-4.6527123045
 H,0,-2.8774643572,2.1657141053,-3.6831387704
 C,0,-1.3349543589,2.9357503974,-4.7922350767
 O,0,5.5418106281,-1.21293868,-2.2961345787
 H,0,6.4983577036,-1.3049971147,-2.4732613314
 Recover connectivity data from disk.
                           ----------------------------
                           !    Current Parameters    !
                           ! (Angstroms and Degrees)  !
 --------------------------                            --------------------------
 ! Name  Definition              Value                                          !
 --------------------------------------------------------------------------------
 ! R1    R(1,2)                  1.0186                                         !
 ! R2    R(1,3)                  1.0196                                         !
 ! R3    R(1,4)                  1.4496                                         !
 ! R4    R(4,5)                  1.0993                                         !
 ! R5    R(4,6)                  1.5405                                         !
 ! R6    R(4,7)                  1.5546                                         !
 ! R7    R(6,10)                 1.2225                                         !
 ! R8    R(6,22)                 1.3762                                         !
 ! R9    R(7,8)                  1.0936                                         !
 ! R10   R(7,9)                  1.0973                                         !
 ! R11   R(7,11)                 1.5108                                         !
 ! R12   R(11,12)                1.3996                                         !
 ! R13   R(11,14)                1.4008                                         !
 ! R14   R(12,13)                1.0864                                         !
 ! R15   R(12,16)                1.3957                                         !
 ! R16   R(14,15)                1.0846                                         !
 ! R17   R(14,18)                1.3937                                         !
 ! R18   R(16,17)                1.0862                                         !
 ! R19   R(16,20)                1.3949                                         !
 ! R20   R(18,19)                1.0849                                         !
 ! R21   R(18,20)                1.3962                                         !
 ! R22   R(20,21)                1.0862                                         !
 ! R23   R(22,23)                1.0114                                         !
 ! R24   R(22,24)                1.4551                                         !
 ! R25   R(24,25)                1.0927                                         !
 ! R26   R(24,26)                1.5346                                         !
 ! R27   R(24,27)                1.5306                                         !
 ! R28   R(26,30)                1.246                                          !
 ! R29   R(26,41)                1.342                                          !
 ! R30   R(27,28)                1.1003                                         !
 ! R31   R(27,29)                1.1017                                         !
 ! R32   R(27,31)                1.5369                                         !
 ! R33   R(31,32)                1.0978                                         !
 ! R34   R(31,33)                1.5345                                         !
 ! R35   R(31,37)                1.5337                                         !
 ! R36   R(33,34)                1.0991                                         !
 ! R37   R(33,35)                1.0944                                         !
 ! R38   R(33,36)                1.0992                                         !
 ! R39   R(37,38)                1.098                                          !
 ! R40   R(37,39)                1.0932                                         !
 ! R41   R(37,40)                1.0951                                         !
 ! R42   R(41,42)                1.0232                                         !
 ! R43   R(41,43)                1.45                                           !
 ! R44   R(43,44)                1.0956                                         !
 ! R45   R(43,45)                1.5408                                         !
 ! R46   R(43,46)                1.5444                                         !
 ! R47   R(45,49)                1.2216                                         !
 ! R48   R(45,55)                1.366                                          !
 ! R49   R(46,47)                1.094                                          !
 ! R50   R(46,48)                1.0953                                         !
 ! R51   R(46,50)                1.5265                                         !
 ! R52   R(50,51)                1.3502                                         !
 ! R53   R(50,54)                1.2323                                         !
 ! R54   R(51,52)                1.0117                                         !
 ! R55   R(51,53)                1.0084                                         !
 ! R56   R(55,56)                1.0112                                         !
 ! R57   R(55,57)                1.4524                                         !
 ! R58   R(57,58)                1.0959                                         !
 ! R59   R(57,59)                1.5225                                         !
 ! R60   R(57,60)                1.5479                                         !
 ! R61   R(59,63)                1.2082                                         !
 ! R62   R(59,79)                1.3517                                         !
 ! R63   R(60,61)                1.0938                                         !
 ! R64   R(60,62)                1.0991                                         !
 ! R65   R(60,64)                1.5269                                         !
 ! R66   R(64,65)                1.095                                          !
 ! R67   R(64,66)                1.0904                                         !
 ! R68   R(64,67)                1.5256                                         !
 ! R69   R(67,68)                1.0981                                         !
 ! R70   R(67,69)                1.0953                                         !
 ! R71   R(67,70)                1.4731                                         !
 ! R72   R(70,71)                1.0301                                         !
 ! R73   R(70,78)                1.3244                                         !
 ! R74   R(72,73)                1.0094                                         !
 ! R75   R(72,74)                1.0083                                         !
 ! R76   R(72,78)                1.3456                                         !
 ! R77   R(75,76)                1.0095                                         !
 ! R78   R(75,77)                1.0114                                         !
 ! R79   R(75,78)                1.3445                                         !
 ! R80   R(79,80)                0.9772                                         !
 ! A1    A(2,1,3)              105.3952                                         !
 ! A2    A(2,1,4)              109.5679                                         !
 ! A3    A(3,1,4)              108.3208                                         !
 ! A4    A(1,4,5)              108.1542                                         !
 ! A5    A(1,4,6)              113.4358                                         !
 ! A6    A(1,4,7)              109.8039                                         !
 ! A7    A(5,4,6)              107.549                                          !
 ! A8    A(5,4,7)              107.2381                                         !
 ! A9    A(6,4,7)              110.4221                                         !
 ! A10   A(4,6,10)             123.1211                                         !
 ! A11   A(4,6,22)             114.7584                                         !
 ! A12   A(10,6,22)            122.1175                                         !
 ! A13   A(4,7,8)              106.8134                                         !
 ! A14   A(4,7,9)              109.2073                                         !
 ! A15   A(4,7,11)             112.9345                                         !
 ! A16   A(8,7,9)              107.4853                                         !
 ! A17   A(8,7,11)             109.9002                                         !
 ! A18   A(9,7,11)             110.3016                                         !
 ! A19   A(7,11,12)            120.3676                                         !
 ! A20   A(7,11,14)            120.9882                                         !
 ! A21   A(12,11,14)           118.58                                           !
 ! A22   A(11,12,13)           119.2529                                         !
 ! A23   A(11,12,16)           120.7017                                         !
 ! A24   A(13,12,16)           120.0433                                         !
 ! A25   A(11,14,15)           119.4892                                         !
 ! A26   A(11,14,18)           120.9618                                         !
 ! A27   A(15,14,18)           119.5405                                         !
 ! A28   A(12,16,17)           119.7221                                         !
 ! A29   A(12,16,20)           120.1299                                         !
 ! A30   A(17,16,20)           120.1469                                         !
 ! A31   A(14,18,19)           119.3818                                         !
 ! A32   A(14,18,20)           119.9086                                         !
 ! A33   A(19,18,20)           120.6918                                         !
 ! A34   A(16,20,18)           119.7136                                         !
 ! A35   A(16,20,21)           120.1259                                         !
 ! A36   A(18,20,21)           120.1586                                         !
 ! A37   A(6,22,23)            119.0972                                         !
 ! A38   A(6,22,24)            122.7208                                         !
 ! A39   A(23,22,24)           118.1569                                         !
 ! A40   A(22,24,25)           105.3651                                         !
 ! A41   A(22,24,26)           107.7655                                         !
 ! A42   A(22,24,27)           112.1643                                         !
 ! A43   A(25,24,26)           109.4094                                         !
 ! A44   A(25,24,27)           110.2304                                         !
 ! A45   A(26,24,27)           111.6722                                         !
 ! A46   A(24,26,30)           122.087                                          !
 ! A47   A(24,26,41)           114.6721                                         !
 ! A48   A(30,26,41)           123.039                                          !
 ! A49   A(24,27,28)           106.8233                                         !
 ! A50   A(24,27,29)           107.9592                                         !
 ! A51   A(24,27,31)           115.1473                                         !
 ! A52   A(28,27,29)           107.8952                                         !
 ! A53   A(28,27,31)           109.4821                                         !
 ! A54   A(29,27,31)           109.286                                          !
 ! A55   A(27,31,32)           107.508                                          !
 ! A56   A(27,31,33)           109.6605                                         !
 ! A57   A(27,31,37)           112.2083                                         !
 ! A58   A(32,31,33)           107.8879                                         !
 ! A59   A(32,31,37)           108.2347                                         !
 ! A60   A(33,31,37)           111.1683                                         !
 ! A61   A(31,33,34)           111.0438                                         !
 ! A62   A(31,33,35)           111.1431                                         !
 ! A63   A(31,33,36)           111.5372                                         !
 ! A64   A(34,33,35)           107.1097                                         !
 ! A65   A(34,33,36)           108.622                                          !
 ! A66   A(35,33,36)           107.1939                                         !
 ! A67   A(31,37,38)           110.9586                                         !
 ! A68   A(31,37,39)           111.526                                          !
 ! A69   A(31,37,40)           110.3938                                         !
 ! A70   A(38,37,39)           108.756                                          !
 ! A71   A(38,37,40)           107.5778                                         !
 ! A72   A(39,37,40)           107.4799                                         !
 ! A73   A(26,41,42)           120.5622                                         !
 ! A74   A(26,41,43)           123.0496                                         !
 ! A75   A(42,41,43)           114.8535                                         !
 ! A76   A(41,43,44)           108.3249                                         !
 ! A77   A(41,43,45)           110.5034                                         !
 ! A78   A(41,43,46)           110.049                                          !
 ! A79   A(44,43,45)           109.0534                                         !
 ! A80   A(44,43,46)           108.766                                          !
 ! A81   A(45,43,46)           110.0974                                         !
 ! A82   A(43,45,49)           121.9376                                         !
 ! A83   A(43,45,55)           114.5287                                         !
 ! A84   A(49,45,55)           123.5288                                         !
 ! A85   A(43,46,47)           108.7612                                         !
 ! A86   A(43,46,48)           108.9978                                         !
 ! A87   A(43,46,50)           111.5784                                         !
 ! A88   A(47,46,48)           108.0409                                         !
 ! A89   A(47,46,50)           112.2513                                         !
 ! A90   A(48,46,50)           107.0967                                         !
 ! A91   A(46,50,51)           116.7571                                         !
 ! A92   A(46,50,54)           120.597                                          !
 ! A93   A(51,50,54)           122.6358                                         !
 ! A94   A(50,51,52)           118.3712                                         !
 ! A95   A(50,51,53)           122.8063                                         !
 ! A96   A(52,51,53)           118.5907                                         !
 ! A97   A(45,55,56)           119.1819                                         !
 ! A98   A(45,55,57)           120.7604                                         !
 ! A99   A(56,55,57)           117.8936                                         !
 ! A100  A(55,57,58)           105.5413                                         !
 ! A101  A(55,57,59)           113.1793                                         !
 ! A102  A(55,57,60)           111.9828                                         !
 ! A103  A(58,57,59)           107.1133                                         !
 ! A104  A(58,57,60)           108.6978                                         !
 ! A105  A(59,57,60)           110.0234                                         !
 ! A106  A(57,59,63)           123.1799                                         !
 ! A107  A(57,59,79)           113.1951                                         !
 ! A108  A(63,59,79)           123.6249                                         !
 ! A109  A(57,60,61)           108.1759                                         !
 ! A110  A(57,60,62)           108.8269                                         !
 ! A111  A(57,60,64)           110.2909                                         !
 ! A112  A(61,60,62)           106.83                                           !
 ! A113  A(61,60,64)           112.6361                                         !
 ! A114  A(62,60,64)           109.9515                                         !
 ! A115  A(60,64,65)           110.7122                                         !
 ! A116  A(60,64,66)           108.4706                                         !
 ! A117  A(60,64,67)           114.9589                                         !
 ! A118  A(65,64,66)           106.4276                                         !
 ! A119  A(65,64,67)           109.6841                                         !
 ! A120  A(66,64,67)           106.1372                                         !
 ! A121  A(64,67,68)           110.7775                                         !
 ! A122  A(64,67,69)           111.5187                                         !
 ! A123  A(64,67,70)           107.8116                                         !
 ! A124  A(68,67,69)           108.2908                                         !
 ! A125  A(68,67,70)           109.5254                                         !
 ! A126  A(69,67,70)           108.8868                                         !
 ! A127  A(67,70,71)           115.8869                                         !
 ! A128  A(67,70,78)           125.1692                                         !
 ! A129  A(71,70,78)           118.9283                                         !
 ! A130  A(73,72,74)           117.5662                                         !
 ! A131  A(73,72,78)           120.8406                                         !
 ! A132  A(74,72,78)           121.092                                          !
 ! A133  A(76,75,77)           117.1329                                         !
 ! A134  A(76,75,78)           120.9005                                         !
 ! A135  A(77,75,78)           120.2912                                         !
 ! A136  A(70,78,72)           121.2687                                         !
 ! A137  A(70,78,75)           120.4375                                         !
 ! A138  A(72,78,75)           118.2845                                         !
 ! A139  A(59,79,80)           106.0969                                         !
 ! D1    D(2,1,4,5)             61.9886                                         !
 ! D2    D(2,1,4,6)            -57.2196                                         !
 ! D3    D(2,1,4,7)            178.7033                                         !
 ! D4    D(3,1,4,5)            176.4758                                         !
 ! D5    D(3,1,4,6)             57.2676                                         !
 ! D6    D(3,1,4,7)            -66.8096                                         !
 ! D7    D(1,4,6,10)           -15.9113                                         !
 ! D8    D(1,4,6,22)           164.7056                                         !
 ! D9    D(5,4,6,10)          -135.4657                                         !
 ! D10   D(5,4,6,22)            45.1513                                         !
 ! D11   D(7,4,6,10)           107.829                                          !
 ! D12   D(7,4,6,22)           -71.554                                          !
 ! D13   D(1,4,7,8)            -64.2276                                         !
 ! D14   D(1,4,7,9)            179.8182                                         !
 ! D15   D(1,4,7,11)            56.7005                                         !
 ! D16   D(5,4,7,8)             53.0606                                         !
 ! D17   D(5,4,7,9)            -62.8935                                         !
 ! D18   D(5,4,7,11)           173.9888                                         !
 ! D19   D(6,4,7,8)            169.9587                                         !
 ! D20   D(6,4,7,9)             54.0045                                         !
 ! D21   D(6,4,7,11)           -69.1132                                         !
 ! D22   D(4,6,22,23)           -1.9018                                         !
 ! D23   D(4,6,22,24)          176.2394                                         !
 ! D24   D(10,6,22,23)         178.7083                                         !
 ! D25   D(10,6,22,24)          -3.1505                                         !
 ! D26   D(4,7,11,12)          -97.6572                                         !
 ! D27   D(4,7,11,14)           79.3893                                         !
 ! D28   D(8,7,11,12)           21.4996                                         !
 ! D29   D(8,7,11,14)         -161.4539                                         !
 ! D30   D(9,7,11,12)          139.8346                                         !
 ! D31   D(9,7,11,14)          -43.1189                                         !
 ! D32   D(7,11,12,13)          -1.9446                                         !
 ! D33   D(7,11,12,16)         177.5336                                         !
 ! D34   D(14,11,12,13)       -179.0614                                         !
 ! D35   D(14,11,12,16)          0.4168                                         !
 ! D36   D(7,11,14,15)           2.0158                                         !
 ! D37   D(7,11,14,18)        -176.9162                                         !
 ! D38   D(12,11,14,15)        179.114                                          !
 ! D39   D(12,11,14,18)          0.1819                                         !
 ! D40   D(11,12,16,17)        179.801                                          !
 ! D41   D(11,12,16,20)         -0.5725                                         !
 ! D42   D(13,12,16,17)         -0.7249                                         !
 ! D43   D(13,12,16,20)        178.9017                                         !
 ! D44   D(11,14,18,19)        177.8496                                         !
 ! D45   D(11,14,18,20)         -0.6252                                         !
 ! D46   D(15,14,18,19)         -1.082                                          !
 ! D47   D(15,14,18,20)       -179.5567                                         !
 ! D48   D(12,16,20,18)          0.1244                                         !
 ! D49   D(12,16,20,21)       -179.3658                                         !
 ! D50   D(17,16,20,18)        179.7493                                         !
 ! D51   D(17,16,20,21)          0.2591                                         !
 ! D52   D(14,18,20,16)          0.4679                                         !
 ! D53   D(14,18,20,21)        179.9579                                         !
 ! D54   D(19,18,20,16)       -177.9865                                         !
 ! D55   D(19,18,20,21)          1.5035                                         !
 ! D56   D(6,22,24,25)          -8.59                                           !
 ! D57   D(6,22,24,26)        -125.3295                                         !
 ! D58   D(6,22,24,27)         111.355                                          !
 ! D59   D(23,22,24,25)        169.5678                                         !
 ! D60   D(23,22,24,26)         52.8283                                         !
 ! D61   D(23,22,24,27)        -70.4872                                         !
 ! D62   D(22,24,26,30)        -96.2589                                         !
 ! D63   D(22,24,26,41)         78.7232                                         !
 ! D64   D(25,24,26,30)        149.6686                                         !
 ! D65   D(25,24,26,41)        -35.3493                                         !
 ! D66   D(27,24,26,30)         27.3562                                         !
 ! D67   D(27,24,26,41)       -157.6617                                         !
 ! D68   D(22,24,27,28)         60.7879                                         !
 ! D69   D(22,24,27,29)        176.6027                                         !
 ! D70   D(22,24,27,31)        -61.0048                                         !
 ! D71   D(25,24,27,28)        177.8559                                         !
 ! D72   D(25,24,27,29)        -66.3292                                         !
 ! D73   D(25,24,27,31)         56.0633                                         !
 ! D74   D(26,24,27,28)        -60.3038                                         !
 ! D75   D(26,24,27,29)         55.511                                          !
 ! D76   D(26,24,27,31)        177.9035                                         !
 ! D77   D(24,26,41,42)         18.1655                                         !
 ! D78   D(24,26,41,43)       -176.6987                                         !
 ! D79   D(30,26,41,42)       -166.9061                                         !
 ! D80   D(30,26,41,43)         -1.7703                                         !
 ! D81   D(24,27,31,32)         56.2756                                         !
 ! D82   D(24,27,31,33)        173.3224                                         !
 ! D83   D(24,27,31,37)        -62.6182                                         !
 ! D84   D(28,27,31,32)        -64.07                                           !
 ! D85   D(28,27,31,33)         52.9768                                         !
 ! D86   D(28,27,31,37)        177.0361                                         !
 ! D87   D(29,27,31,32)        177.9536                                         !
 ! D88   D(29,27,31,33)        -64.9997                                         !
 ! D89   D(29,27,31,37)         59.0597                                         !
 ! D90   D(27,31,33,34)         62.4436                                         !
 ! D91   D(27,31,33,35)       -178.428                                          !
 ! D92   D(27,31,33,36)        -58.8662                                         !
 ! D93   D(32,31,33,34)        179.2517                                         !
 ! D94   D(32,31,33,35)        -61.6198                                         !
 ! D95   D(32,31,33,36)         57.9419                                         !
 ! D96   D(37,31,33,34)        -62.2207                                         !
 ! D97   D(37,31,33,35)         56.9077                                         !
 ! D98   D(37,31,33,36)        176.4695                                         !
 ! D99   D(27,31,37,38)        -56.4531                                         !
 ! D100  D(27,31,37,39)         64.9608                                         !
 ! D101  D(27,31,37,40)       -175.6246                                         !
 ! D102  D(32,31,37,38)       -174.9186                                         !
 ! D103  D(32,31,37,39)        -53.5047                                         !
 ! D104  D(32,31,37,40)         65.9099                                         !
 ! D105  D(33,31,37,38)         66.7627                                         !
 ! D106  D(33,31,37,39)       -171.8233                                         !
 ! D107  D(33,31,37,40)        -52.4087                                         !
 ! D108  D(26,41,43,44)         51.1466                                         !
 ! D109  D(26,41,43,45)        -68.2598                                         !
 ! D110  D(26,41,43,46)        169.9377                                         !
 ! D111  D(42,41,43,44)       -142.9429                                         !
 ! D112  D(42,41,43,45)         97.6508                                         !
 ! D113  D(42,41,43,46)        -24.1517                                         !
 ! D114  D(41,43,45,49)        -31.2683                                         !
 ! D115  D(41,43,45,55)        149.5116                                         !
 ! D116  D(44,43,45,49)       -150.2334                                         !
 ! D117  D(44,43,45,55)         30.5465                                         !
 ! D118  D(46,43,45,49)         90.5057                                         !
 ! D119  D(46,43,45,55)        -88.7144                                         !
 ! D120  D(41,43,46,47)        179.4312                                         !
 ! D121  D(41,43,46,48)        -62.9969                                         !
 ! D122  D(41,43,46,50)         55.0708                                         !
 ! D123  D(44,43,46,47)        -62.0484                                         !
 ! D124  D(44,43,46,48)         55.5235                                         !
 ! D125  D(44,43,46,50)        173.5912                                         !
 ! D126  D(45,43,46,47)         57.3876                                         !
 ! D127  D(45,43,46,48)        174.9595                                         !
 ! D128  D(45,43,46,50)        -66.9728                                         !
 ! D129  D(43,45,55,56)         -5.8017                                         !
 ! D130  D(43,45,55,57)       -168.7341                                         !
 ! D131  D(49,45,55,56)        174.9923                                         !
 ! D132  D(49,45,55,57)         12.0599                                         !
 ! D133  D(43,46,50,51)        121.9856                                         !
 ! D134  D(43,46,50,54)        -59.1398                                         !
 ! D135  D(47,46,50,51)         -0.3924                                         !
 ! D136  D(47,46,50,54)        178.4822                                         !
 ! D137  D(48,46,50,51)       -118.812                                          !
 ! D138  D(48,46,50,54)         60.0626                                         !
 ! D139  D(46,50,51,52)       -178.3996                                         !
 ! D140  D(46,50,51,53)         -4.0143                                         !
 ! D141  D(54,50,51,52)          2.7507                                         !
 ! D142  D(54,50,51,53)        177.136                                          !
 ! D143  D(45,55,57,58)        -27.1089                                         !
 ! D144  D(45,55,57,59)       -143.9376                                         !
 ! D145  D(45,55,57,60)         90.9965                                         !
 ! D146  D(56,55,57,58)        169.7451                                         !
 ! D147  D(56,55,57,59)         52.9163                                         !
 ! D148  D(56,55,57,60)        -72.1495                                         !
 ! D149  D(55,57,59,63)       -166.9311                                         !
 ! D150  D(55,57,59,79)         13.0596                                         !
 ! D151  D(58,57,59,63)         77.1693                                         !
 ! D152  D(58,57,59,79)       -102.84                                           !
 ! D153  D(60,57,59,63)        -40.8141                                         !
 ! D154  D(60,57,59,79)        139.1767                                         !
 ! D155  D(55,57,60,61)       -176.2208                                         !
 ! D156  D(55,57,60,62)         68.0636                                         !
 ! D157  D(55,57,60,64)        -52.6286                                         !
 ! D158  D(58,57,60,61)        -60.011                                          !
 ! D159  D(58,57,60,62)       -175.7266                                         !
 ! D160  D(58,57,60,64)         63.5813                                         !
 ! D161  D(59,57,60,61)         56.9885                                         !
 ! D162  D(59,57,60,62)        -58.7271                                         !
 ! D163  D(59,57,60,64)       -179.4193                                         !
 ! D164  D(57,59,79,80)        179.2893                                         !
 ! D165  D(63,59,79,80)         -0.72                                           !
 ! D166  D(57,60,64,65)        -64.4109                                         !
 ! D167  D(57,60,64,66)         52.0166                                         !
 ! D168  D(57,60,64,67)        170.6162                                         !
 ! D169  D(61,60,64,65)         56.5536                                         !
 ! D170  D(61,60,64,66)        172.9811                                         !
 ! D171  D(61,60,64,67)        -68.4193                                         !
 ! D172  D(62,60,64,65)        175.5728                                         !
 ! D173  D(62,60,64,66)        -67.9997                                         !
 ! D174  D(62,60,64,67)         50.5999                                         !
 ! D175  D(60,64,67,68)        -45.2625                                         !
 ! D176  D(60,64,67,69)         75.4293                                         !
 ! D177  D(60,64,67,70)       -165.0887                                         !
 ! D178  D(65,64,67,68)       -170.7708                                         !
 ! D179  D(65,64,67,69)        -50.079                                          !
 ! D180  D(65,64,67,70)         69.403                                          !
 ! D181  D(66,64,67,68)         74.6353                                         !
 ! D182  D(66,64,67,69)       -164.6729                                         !
 ! D183  D(66,64,67,70)        -45.1909                                         !
 ! D184  D(64,67,70,71)         30.7185                                         !
 ! D185  D(64,67,70,78)       -150.7401                                         !
 ! D186  D(68,67,70,71)        -89.8965                                         !
 ! D187  D(68,67,70,78)         88.6449                                         !
 ! D188  D(69,67,70,71)        151.8574                                         !
 ! D189  D(69,67,70,78)        -29.6012                                         !
 ! D190  D(67,70,78,72)        -12.2898                                         !
 ! D191  D(67,70,78,75)        166.5822                                         !
 ! D192  D(71,70,78,72)        166.2108                                         !
 ! D193  D(71,70,78,75)        -14.9171                                         !
 ! D194  D(73,72,78,70)        161.5774                                         !
 ! D195  D(73,72,78,75)        -17.3182                                         !
 ! D196  D(74,72,78,70)        -10.1036                                         !
 ! D197  D(74,72,78,75)        171.0008                                         !
 ! D198  D(76,75,78,70)        158.9575                                         !
 ! D199  D(76,75,78,72)        -22.1373                                         !
 ! D200  D(77,75,78,70)         -5.8705                                         !
 ! D201  D(77,75,78,72)        173.0347                                         !
 --------------------------------------------------------------------------------
 Symmetry turned off by external request.
 Stoichiometry    C25H41N8O6(1+)
 Framework group  C1[X(C25H41N8O6)]
 Deg. of freedom   234
 Full point group                 C1      NOp   1
                          Input orientation:                          
 ---------------------------------------------------------------------
 Center     Atomic      Atomic             Coordinates (Angstroms)
 Number     Number       Type             X           Y           Z
 ---------------------------------------------------------------------
      1          7           0       -4.551084    0.014206    3.838262
      2          1           0       -5.452130   -0.006586    3.363768
      3          1           0       -4.307852   -0.962616    4.000221
      4          6           0       -3.553234    0.592707    2.960225
      5          1           0       -3.852065    1.626650    2.736368
      6          6           0       -3.412633   -0.151029    1.618452
      7          6           0       -2.182558    0.657242    3.690896
      8          1           0       -2.305295    1.343412    4.533590
      9          1           0       -1.434375    1.093274    3.016945
     10          8           0       -3.855656   -1.274387    1.427739
     11          6           0       -1.716926   -0.690897    4.189070
     12          6           0       -1.928616   -1.064722    5.521151
     13          1           0       -2.402870   -0.362235    6.200728
     14          6           0       -1.122427   -1.614893    3.320130
     15          1           0       -0.964693   -1.345911    2.281334
     16          6           0       -1.547417   -2.327973    5.975961
     17          1           0       -1.716288   -2.600257    7.013823
     18          6           0       -0.751094   -2.882092    3.765812
     19          1           0       -0.324815   -3.589833    3.062743
     20          6           0       -0.959162   -3.239714    5.099288
     21          1           0       -0.671927   -4.226482    5.450823
     22          7           0       -2.733285    0.542851    0.643314
     23          1           0       -2.403404    1.477626    0.844165
     24          6           0       -2.431250   -0.026371   -0.661378
     25          1           0       -2.707104   -1.081134   -0.587979
     26          6           0       -0.917438    0.090526   -0.884163
     27          6           0       -3.221686    0.650558   -1.783721
     28          1           0       -2.931160    1.711761   -1.782540
     29          1           0       -2.896730    0.211681   -2.740535
     30          8           0       -0.413656    1.032245   -1.525873
     31          6           0       -4.749940    0.537372   -1.666354
     32          1           0       -5.037508    0.948278   -0.689838
     33          6           0       -5.415918    1.392880   -2.752333
     34          1           0       -5.150468    1.032942   -3.756371
     35          1           0       -6.506701    1.351837   -2.673533
     36          1           0       -5.123690    2.449240   -2.669536
     37          6           0       -5.230464   -0.917478   -1.735183
     38          1           0       -4.887336   -1.401119   -2.659263
     39          1           0       -4.873524   -1.498670   -0.880789
     40          1           0       -6.324735   -0.958721   -1.726969
     41          7           0       -0.184346   -0.835934   -0.247598
     42          1           0       -0.618227   -1.696180    0.096910
     43          6           0        1.265289   -0.853203   -0.275075
     44          1           0        1.626966    0.143272    0.001761
     45          6           0        1.774212   -1.198482   -1.687800
     46          6           0        1.802036   -1.878404    0.747620
     47          1           0        2.895104   -1.881492    0.702184
     48          1           0        1.505288   -1.566291    1.754647
     49          8           0        1.147484   -1.929287   -2.439758
     50          6           0        1.209924   -3.266007    0.515130
     51          7           0        2.083960   -4.269172    0.285205
     52          1           0        1.717025   -5.194298    0.103558
     53          1           0        3.078135   -4.120115    0.205539
     54          8           0       -0.008642   -3.443694    0.560858
     55          7           0        2.976790   -0.636595   -2.010414
     56          1           0        3.402599    0.018931   -1.369009
     57          6           0        3.468147   -0.666873   -3.376833
     58          1           0        3.013296   -1.553530   -3.832853
     59          6           0        4.977909   -0.841248   -3.467035
     60          6           0        3.030177    0.583160   -4.177924
     61          1           0        3.373474    0.464748   -5.209664
     62          1           0        3.545500    1.464232   -3.770208
     63          8           0        5.604342   -0.663943   -4.484783
     64          6           0        1.518227    0.772067   -4.079692
     65          1           0        0.991993   -0.063297   -4.553254
     66          1           0        1.235916    0.757117   -3.026583
     67          6           0        0.996617    2.091774   -4.639824
     68          1           0        1.619018    2.931207   -4.302599
     69          1           0        0.988495    2.088135   -5.735120
     70          7           0       -0.381816    2.274339   -4.153348
     71          1           0       -0.591378    1.864905   -3.231684
     72          7           0       -1.053778    3.715955   -5.851857
     73          1           0       -1.778695    3.992999   -6.497361
     74          1           0       -0.101278    3.938819   -6.096219
     75          7           0       -2.617972    2.823341   -4.406456
     76          1           0       -3.297082    3.528562   -4.652712
     77          1           0       -2.877464    2.165714   -3.683139
     78          6           0       -1.334954    2.935750   -4.792235
     79          8           0        5.541811   -1.212939   -2.296135
     80          1           0        6.498358   -1.304997   -2.473261
 ---------------------------------------------------------------------
 Rotational constants (GHZ):           0.1027956           0.0647343           0.0439607
 Standard basis: 6-31G(d) (6D, 7F)
   667 basis functions,  1256 primitive gaussians,   667 cartesian basis functions
   147 alpha electrons      147 beta electrons
       nuclear repulsion energy      4803.7510455817 Hartrees.
 NAtoms=   80 NActive=   80 NUniq=   80 SFac= 1.00D+00 NAtFMM=   60 NAOKFM=T Big=T
 Integral buffers will be    131072 words long.
 Raffenetti 2 integral format.
 Two-electron integral symmetry is turned off.
 Nuclear repulsion after empirical dispersion term =     4803.5749650881 Hartrees.
 One-electron integrals computed using PRISM.
 NBasis=   667 RedAO= T EigKep=  4.36D-04  NBF=   667
 NBsUse=   667 1.00D-06 EigRej= -1.00D+00 NBFU=   667
 Initial guess from the checkpoint file:  "conf-746.chk"
 B after Tr=     0.000000    0.000000    0.000000
         Rot=    1.000000    0.000000    0.000000    0.000000 Ang=   0.00 deg.
 Requested convergence on RMS density matrix=1.00D-08 within 128 cycles.
 Requested convergence on MAX density matrix=1.00D-06.
 Requested convergence on             energy=1.00D-06.
 No special actions if energy rises.
 SCF Done:  E(RB3LYP) =  -1866.78827349     A.U. after    3 cycles
            NFock=  3  Conv=0.91D-09     -V/T= 2.0094

 **********************************************************************

            Population analysis using the SCF Density.

 **********************************************************************

 Alpha  occ. eigenvalues --  -19.29315 -19.23497 -19.23218 -19.21634 -19.21053
 Alpha  occ. eigenvalues --  -19.19463 -14.52349 -14.51490 -14.51121 -14.46638
 Alpha  occ. eigenvalues --  -14.45983 -14.45451 -14.44815 -14.37270 -10.48111
 Alpha  occ. eigenvalues --  -10.41609 -10.39639 -10.38966 -10.38837 -10.36016
 Alpha  occ. eigenvalues --  -10.35722 -10.34601 -10.34026 -10.32750 -10.30575
 Alpha  occ. eigenvalues --  -10.29598 -10.29461 -10.29252 -10.28908 -10.27845
 Alpha  occ. eigenvalues --  -10.26840 -10.25987 -10.25199 -10.24425 -10.24332
 Alpha  occ. eigenvalues --  -10.24177 -10.24132 -10.24089 -10.24072  -1.20110
 Alpha  occ. eigenvalues --   -1.16673  -1.14841  -1.13654  -1.12888  -1.11416
 Alpha  occ. eigenvalues --   -1.11066  -1.05774  -1.04957  -1.03305  -1.03206
 Alpha  occ. eigenvalues --   -1.01135  -1.00178  -0.95451  -0.91579  -0.90769
 Alpha  occ. eigenvalues --   -0.90442  -0.89377  -0.86439  -0.84625  -0.83212
 Alpha  occ. eigenvalues --   -0.81112  -0.79698  -0.78790  -0.77878  -0.77785
 Alpha  occ. eigenvalues --   -0.76614  -0.74838  -0.74553  -0.72195  -0.71487
 Alpha  occ. eigenvalues --   -0.70395  -0.70043  -0.69847  -0.68274  -0.68271
 Alpha  occ. eigenvalues --   -0.67063  -0.65979  -0.65869  -0.65526  -0.64562
 Alpha  occ. eigenvalues --   -0.63979  -0.63579  -0.63087  -0.61322  -0.60931
 Alpha  occ. eigenvalues --   -0.60096  -0.59133  -0.58854  -0.57773  -0.57584
 Alpha  occ. eigenvalues --   -0.57363  -0.57138  -0.56615  -0.56006  -0.55970
 Alpha  occ. eigenvalues --   -0.55736  -0.55090  -0.54534  -0.53509  -0.52617
 Alpha  occ. eigenvalues --   -0.52332  -0.51950  -0.51496  -0.51333  -0.50880
 Alpha  occ. eigenvalues --   -0.50360  -0.49980  -0.49749  -0.49511  -0.49436
 Alpha  occ. eigenvalues --   -0.49130  -0.48642  -0.47941  -0.47811  -0.47465
 Alpha  occ. eigenvalues --   -0.47170  -0.46966  -0.46772  -0.46642  -0.45751
 Alpha  occ. eigenvalues --   -0.45457  -0.45366  -0.44811  -0.44533  -0.44183
 Alpha  occ. eigenvalues --   -0.43317  -0.43228  -0.41694  -0.41254  -0.41197
 Alpha  occ. eigenvalues --   -0.41140  -0.40764  -0.40527  -0.39337  -0.38920
 Alpha  occ. eigenvalues --   -0.37965  -0.37896  -0.37300  -0.36274  -0.35709
 Alpha  occ. eigenvalues --   -0.34853  -0.34595  -0.33541  -0.33320  -0.30592
 Alpha  occ. eigenvalues --   -0.30232  -0.29459
 Alpha virt. eigenvalues --   -0.12221  -0.09741  -0.08693  -0.08154  -0.07764
 Alpha virt. eigenvalues --   -0.07391  -0.06165  -0.05552  -0.04776  -0.04441
 Alpha virt. eigenvalues --   -0.02911  -0.02656  -0.01633  -0.01173  -0.00788
 Alpha virt. eigenvalues --   -0.00374  -0.00052   0.01336   0.01522   0.01761
 Alpha virt. eigenvalues --    0.02915   0.03082   0.03307   0.03961   0.04089
 Alpha virt. eigenvalues --    0.04519   0.04715   0.05141   0.05500   0.06481
 Alpha virt. eigenvalues --    0.06611   0.07175   0.07515   0.07635   0.07930
 Alpha virt. eigenvalues --    0.07987   0.08321   0.08625   0.09069   0.09182
 Alpha virt. eigenvalues --    0.09408   0.09509   0.09855   0.10445   0.10743
 Alpha virt. eigenvalues --    0.10832   0.11386   0.11831   0.11914   0.12158
 Alpha virt. eigenvalues --    0.12392   0.12833   0.13277   0.13532   0.13963
 Alpha virt. eigenvalues --    0.14078   0.14474   0.14945   0.15291   0.15753
 Alpha virt. eigenvalues --    0.15862   0.16418   0.17285   0.17892   0.18066
 Alpha virt. eigenvalues --    0.18469   0.19669   0.19925   0.20207   0.21387
 Alpha virt. eigenvalues --    0.21846   0.23154   0.24335   0.25033   0.25519
 Alpha virt. eigenvalues --    0.26029   0.26389   0.26873   0.27905   0.28365
 Alpha virt. eigenvalues --    0.28840   0.30045   0.30306   0.30661   0.32484
 Alpha virt. eigenvalues --    0.33007   0.34642   0.37918   0.38820   0.38970
 Alpha virt. eigenvalues --    0.39618   0.40056   0.41010   0.41389   0.42533
 Alpha virt. eigenvalues --    0.42805   0.43244   0.43595   0.43711   0.44394
 Alpha virt. eigenvalues --    0.44725   0.45990   0.46448   0.46727   0.46883
 Alpha virt. eigenvalues --    0.47475   0.47631   0.47965   0.48579   0.48814
 Alpha virt. eigenvalues --    0.49312   0.49535   0.49775   0.50284   0.50634
 Alpha virt. eigenvalues --    0.51100   0.51461   0.52141   0.52582   0.52648
 Alpha virt. eigenvalues --    0.53005   0.53948   0.54436   0.54625   0.54904
 Alpha virt. eigenvalues --    0.55097   0.55471   0.55929   0.56039   0.56400
 Alpha virt. eigenvalues --    0.56583   0.56982   0.57438   0.57562   0.57682
 Alpha virt. eigenvalues --    0.57883   0.58408   0.58939   0.59084   0.59768
 Alpha virt. eigenvalues --    0.60111   0.60605   0.61195   0.61684   0.61831
 Alpha virt. eigenvalues --    0.62562   0.63239   0.64205   0.64806   0.65009
 Alpha virt. eigenvalues --    0.65843   0.66596   0.67089   0.67235   0.67951
 Alpha virt. eigenvalues --    0.68648   0.69415   0.69623   0.70135   0.70459
 Alpha virt. eigenvalues --    0.70958   0.71424   0.71595   0.71860   0.72804
 Alpha virt. eigenvalues --    0.73402   0.73583   0.73843   0.74354   0.74700
 Alpha virt. eigenvalues --    0.75238   0.75975   0.76153   0.76872   0.77441
 Alpha virt. eigenvalues --    0.77684   0.78067   0.78387   0.78562   0.79068
 Alpha virt. eigenvalues --    0.79567   0.79626   0.79901   0.80320   0.80440
 Alpha virt. eigenvalues --    0.80946   0.81106   0.81384   0.81703   0.81971
 Alpha virt. eigenvalues --    0.82197   0.82263   0.82537   0.82960   0.83407
 Alpha virt. eigenvalues --    0.83672   0.84105   0.84438   0.84888   0.85205
 Alpha virt. eigenvalues --    0.86004   0.86157   0.86414   0.86879   0.87027
 Alpha virt. eigenvalues --    0.87641   0.87776   0.88379   0.89020   0.89111
 Alpha virt. eigenvalues --    0.89957   0.90393   0.90544   0.91618   0.91984
 Alpha virt. eigenvalues --    0.92143   0.92671   0.93369   0.93737   0.94483
 Alpha virt. eigenvalues --    0.94860   0.95640   0.96437   0.96752   0.97179
 Alpha virt. eigenvalues --    0.98457   0.98872   0.99603   1.00647   1.02053
 Alpha virt. eigenvalues --    1.02264   1.02647   1.03346   1.03692   1.04535
 Alpha virt. eigenvalues --    1.04945   1.06902   1.07750   1.09040   1.09333
 Alpha virt. eigenvalues --    1.10145   1.11144   1.12040   1.13384   1.13707
 Alpha virt. eigenvalues --    1.14421   1.15519   1.16203   1.16442   1.17040
 Alpha virt. eigenvalues --    1.17684   1.17931   1.18975   1.20254   1.20565
 Alpha virt. eigenvalues --    1.21932   1.22673   1.23300   1.24377   1.24768
 Alpha virt. eigenvalues --    1.25614   1.26111   1.26752   1.28901   1.29791
 Alpha virt. eigenvalues --    1.30762   1.32135   1.32395   1.33170   1.33780
 Alpha virt. eigenvalues --    1.35060   1.35527   1.36430   1.36877   1.37444
 Alpha virt. eigenvalues --    1.38029   1.38582   1.39714   1.40541   1.41882
 Alpha virt. eigenvalues --    1.42783   1.43237   1.43770   1.44282   1.44679
 Alpha virt. eigenvalues --    1.44898   1.45989   1.46287   1.46704   1.47666
 Alpha virt. eigenvalues --    1.48520   1.49680   1.51013   1.51675   1.52237
 Alpha virt. eigenvalues --    1.53227   1.53975   1.54308   1.55796   1.56872
 Alpha virt. eigenvalues --    1.57499   1.57561   1.58245   1.58788   1.59341
 Alpha virt. eigenvalues --    1.60541   1.62105   1.62607   1.63990   1.64489
 Alpha virt. eigenvalues --    1.65099   1.65516   1.66785   1.68032   1.68492
 Alpha virt. eigenvalues --    1.69092   1.69531   1.69948   1.70545   1.71196
 Alpha virt. eigenvalues --    1.71673   1.72468   1.72805   1.73640   1.74116
 Alpha virt. eigenvalues --    1.74511   1.74546   1.76075   1.76245   1.77165
 Alpha virt. eigenvalues --    1.77448   1.78173   1.78736   1.79942   1.80531
 Alpha virt. eigenvalues --    1.80911   1.81393   1.81707   1.82460   1.83380
 Alpha virt. eigenvalues --    1.83747   1.85162   1.85337   1.85762   1.85860
 Alpha virt. eigenvalues --    1.86486   1.87018   1.87522   1.88041   1.88242
 Alpha virt. eigenvalues --    1.89131   1.89226   1.90020   1.90354   1.90942
 Alpha virt. eigenvalues --    1.91577   1.91743   1.92620   1.92960   1.94273
 Alpha virt. eigenvalues --    1.94611   1.94838   1.96519   1.96987   1.97145
 Alpha virt. eigenvalues --    1.97665   1.98748   2.00257   2.00529   2.00871
 Alpha virt. eigenvalues --    2.01089   2.01649   2.02178   2.02637   2.03092
 Alpha virt. eigenvalues --    2.03706   2.04877   2.05987   2.06482   2.07303
 Alpha virt. eigenvalues --    2.08582   2.09061   2.09501   2.09564   2.10029
 Alpha virt. eigenvalues --    2.10745   2.11587   2.13076   2.13544   2.14203
 Alpha virt. eigenvalues --    2.14856   2.15749   2.16419   2.17109   2.17633
 Alpha virt. eigenvalues --    2.17814   2.18156   2.18683   2.20399   2.21284
 Alpha virt. eigenvalues --    2.22090   2.22422   2.22910   2.23798   2.24662
 Alpha virt. eigenvalues --    2.25775   2.27278   2.27864   2.28024   2.29447
 Alpha virt. eigenvalues --    2.29613   2.30676   2.32312   2.32517   2.33506
 Alpha virt. eigenvalues --    2.34577   2.36191   2.36530   2.36925   2.38571
 Alpha virt. eigenvalues --    2.39342   2.40413   2.41038   2.41849   2.42546
 Alpha virt. eigenvalues --    2.43085   2.43459   2.45298   2.46393   2.48144
 Alpha virt. eigenvalues --    2.48751   2.48772   2.50732   2.52152   2.52564
 Alpha virt. eigenvalues --    2.53767   2.54479   2.54959   2.55411   2.55612
 Alpha virt. eigenvalues --    2.57277   2.57856   2.58726   2.59543   2.59977
 Alpha virt. eigenvalues --    2.60621   2.61063   2.62844   2.63681   2.64383
 Alpha virt. eigenvalues --    2.65247   2.66320   2.67588   2.68076   2.69793
 Alpha virt. eigenvalues --    2.70219   2.70852   2.72838   2.74678   2.75022
 Alpha virt. eigenvalues --    2.77376   2.78506   2.79798   2.83854   2.85363
 Alpha virt. eigenvalues --    2.86656   2.89552   2.90431   2.91476   2.92825
 Alpha virt. eigenvalues --    2.94056   2.95543   2.96995   2.99020   2.99984
 Alpha virt. eigenvalues --    3.01283   3.04336   3.05873   3.07704   3.10583
 Alpha virt. eigenvalues --    3.36026   3.66972   3.71671   3.73319   3.75531
 Alpha virt. eigenvalues --    3.81989   3.91101   3.93058   3.94382   4.01724
 Alpha virt. eigenvalues --    4.02974   4.04519   4.05361   4.05836   4.08157
 Alpha virt. eigenvalues --    4.09442   4.10119   4.11472   4.15062   4.15489
 Alpha virt. eigenvalues --    4.17324   4.20556   4.21655   4.24581   4.27376
 Alpha virt. eigenvalues --    4.28728   4.30281   4.31430   4.32123   4.36647
 Alpha virt. eigenvalues --    4.38335   4.44420   4.46062   4.48284   4.53286
 Alpha virt. eigenvalues --    4.54873   4.56737   4.60286   4.62512   4.68891
          Condensed to atoms (all electrons):
 Mulliken charges:
               1
     1  N   -0.691860
     2  H    0.307015
     3  H    0.326624
     4  C   -0.080582
     5  H    0.140758
     6  C    0.599620
     7  C   -0.345005
     8  H    0.172343
     9  H    0.127627
    10  O   -0.506163
    11  C    0.141812
    12  C   -0.179756
    13  H    0.143670
    14  C   -0.175230
    15  H    0.105312
    16  C   -0.126682
    17  H    0.141725
    18  C   -0.144332
    19  H    0.146531
    20  C   -0.130123
    21  H    0.137195
    22  N   -0.607616
    23  H    0.330861
    24  C   -0.071331
    25  H    0.215279
    26  C    0.643195
    27  C   -0.283299
    28  H    0.120782
    29  H    0.136954
    30  O   -0.580115
    31  C   -0.063279
    32  H    0.143821
    33  C   -0.467274
    34  H    0.137189
    35  H    0.176445
    36  H    0.118585
    37  C   -0.473478
    38  H    0.138243
    39  H    0.197205
    40  H    0.157773
    41  N   -0.600360
    42  H    0.411263
    43  C   -0.071653
    44  H    0.165173
    45  C    0.637065
    46  C   -0.390081
    47  H    0.164853
    48  H    0.216906
    49  O   -0.512157
    50  C    0.635083
    51  N   -0.733410
    52  H    0.365705
    53  H    0.354497
    54  O   -0.519532
    55  N   -0.604664
    56  H    0.336899
    57  C   -0.068709
    58  H    0.227080
    59  C    0.593795
    60  C   -0.271525
    61  H    0.187404
    62  H    0.142723
    63  O   -0.446050
    64  C   -0.324883
    65  H    0.180090
    66  H    0.194962
    67  C   -0.150105
    68  H    0.177873
    69  H    0.171536
    70  N   -0.631761
    71  H    0.416462
    72  N   -0.760794
    73  H    0.381793
    74  H    0.387381
    75  N   -0.791969
    76  H    0.374600
    77  H    0.406121
    78  C    0.812113
    79  O   -0.570317
    80  H    0.426154
 Sum of Mulliken charges =   1.00000
 Mulliken charges with hydrogens summed into heavy atoms:
               1
     1  N   -0.058220
     4  C    0.060176
     6  C    0.599620
     7  C   -0.045035
    10  O   -0.506163
    11  C    0.141812
    12  C   -0.036086
    14  C   -0.069918
    16  C    0.015042
    18  C    0.002200
    20  C    0.007071
    22  N   -0.276755
    24  C    0.143948
    26  C    0.643195
    27  C   -0.025564
    30  O   -0.580115
    31  C    0.080542
    33  C   -0.035054
    37  C    0.019743
    41  N   -0.189097
    43  C    0.093519
    45  C    0.637065
    46  C   -0.008322
    49  O   -0.512157
    50  C    0.635083
    51  N   -0.013207
    54  O   -0.519532
    55  N   -0.267764
    57  C    0.158371
    59  C    0.593795
    60  C    0.058602
    63  O   -0.446050
    64  C    0.050168
    67  C    0.199304
    70  N   -0.215299
    72  N    0.008379
    75  N   -0.011249
    78  C    0.812113
    79  O   -0.144164
 Electronic spatial extent (au):  <R**2>=          24753.7119
 Charge=              1.0000 electrons
 Dipole moment (field-independent basis, Debye):
    X=              1.1510    Y=              9.2311    Z=            -15.0936  Tot=             17.7300
 Quadrupole moment (field-independent basis, Debye-Ang):
   XX=           -178.0665   YY=           -174.2278   ZZ=           -140.5822
   XY=            -39.9368   XZ=             28.8444   YZ=            -63.2981
 Traceless Quadrupole moment (field-independent basis, Debye-Ang):
   XX=            -13.7744   YY=             -9.9356   ZZ=             23.7100
   XY=            -39.9368   XZ=             28.8444   YZ=            -63.2981
 Octapole moment (field-independent basis, Debye-Ang**2):
  XXX=            432.1891  YYY=            259.4213  ZZZ=            -83.9627  XYY=            157.6658
  XXY=             93.5741  XXZ=             35.5455  XZZ=            -36.4488  YZZ=            401.5528
  YYZ=            -70.0789  XYZ=             78.2022
 Hexadecapole moment (field-independent basis, Debye-Ang**3):
 XXXX=         -10617.8113 YYYY=          -3848.8116 ZZZZ=         -11561.6480 XXXY=            234.4186
 XXXZ=           2442.5465 YYYX=            231.0995 YYYZ=           1261.2810 ZZZX=           2872.5080
 ZZZY=           -223.7782 XXYY=          -2463.5622 XXZZ=          -4617.2715 YYZZ=          -1898.3218
 XXYZ=            481.2938 YYXZ=            942.0130 ZZXY=            -75.4463
 N-N= 4.803574965088D+03 E-N=-1.392721437174D+04  KE= 1.849424141471D+03
 Unable to Open any file for archive entry.
 1\1\GINC-SKL-158\SP\RB3LYP\6-31G(d)\C25H41N8O6(1+)\KENGMITH\18-Oct-202
 2\0\\# B3LYP/6-31G* empiricaldispersion=gd3bj guess=read geom=check no
 symm integral(ultrafinegrid)\\Candidate Structure: Conf:746 Charge cal
 c in gas phase\\1,1\N,0,-4.5510837156,0.014206464,3.8382624782\H,0,-5.
 4521304487,-0.0065864074,3.3637676316\H,0,-4.3078521332,-0.9626155455,
 4.0002211232\C,0,-3.5532342806,0.5927073871,2.9602251749\H,0,-3.852065
 4316,1.6266497003,2.7363676906\C,0,-3.4126327414,-0.1510285153,1.61845
 17268\C,0,-2.1825579326,0.6572421915,3.6908959616\H,0,-2.3052947439,1.
 3434121277,4.5335897403\H,0,-1.4343746827,1.093274432,3.0169449095\O,0
 ,-3.8556560097,-1.274387029,1.4277393295\C,0,-1.7169264831,-0.69089726
 94,4.1890696289\C,0,-1.9286164048,-1.064722464,5.5211505256\H,0,-2.402
 8702429,-0.3622351514,6.2007277253\C,0,-1.122426588,-1.614892565,3.320
 1298183\H,0,-0.9646930197,-1.3459109107,2.2813342426\C,0,-1.5474166142
 ,-2.3279727858,5.9759607761\H,0,-1.7162882836,-2.6002574157,7.01382273
 49\C,0,-0.7510944994,-2.8820919147,3.7658124633\H,0,-0.3248146848,-3.5
 898332007,3.0627434166\C,0,-0.9591619225,-3.2397141901,5.099288068\H,0
 ,-0.6719268961,-4.2264821135,5.4508230136\N,0,-2.7332848325,0.54285081
 72,0.6433142094\H,0,-2.4034038938,1.4776261846,0.8441652024\C,0,-2.431
 2504921,-0.0263714757,-0.6613780104\H,0,-2.707103835,-1.0811340005,-0.
 5879789936\C,0,-0.9174383033,0.0905258324,-0.8841626542\C,0,-3.2216856
 207,0.6505584417,-1.7837210886\H,0,-2.9311600936,1.711760674,-1.782540
 3773\H,0,-2.8967297901,0.2116805099,-2.7405348116\O,0,-0.4136555399,1.
 0322449965,-1.5258729463\C,0,-4.7499396453,0.5373716437,-1.6663537049\
 H,0,-5.0375078817,0.9482783308,-0.6898379304\C,0,-5.4159184489,1.39288
 03931,-2.7523325436\H,0,-5.150467974,1.0329420808,-3.7563713926\H,0,-6
 .5067010823,1.3518366157,-2.6735327481\H,0,-5.1236904713,2.4492404892,
 -2.6695356933\C,0,-5.2304643932,-0.9174776203,-1.7351829015\H,0,-4.887
 3357048,-1.4011185665,-2.6592625258\H,0,-4.8735241069,-1.4986703635,-0
 .8807886143\H,0,-6.3247348782,-0.9587212858,-1.7269685961\N,0,-0.18434
 61556,-0.8359337388,-0.2475975392\H,0,-0.6182269664,-1.6961795623,0.09
 69097434\C,0,1.265288831,-0.8532033071,-0.2750754395\H,0,1.6269659239,
 0.143272079,0.0017614766\C,0,1.7742118771,-1.198482252,-1.6877998608\C
 ,0,1.8020364363,-1.8784036323,0.7476196998\H,0,2.8951040189,-1.8814923
 192,0.7021839231\H,0,1.5052876431,-1.5662908058,1.7546472111\O,0,1.147
 4836008,-1.9292868385,-2.4397576074\C,0,1.2099241049,-3.2660069186,0.5
 151303809\N,0,2.0839604926,-4.2691721133,0.2852052285\H,0,1.717024637,
 -5.1942978046,0.1035577597\H,0,3.0781353338,-4.1201147957,0.2055385539
 \O,0,-0.0086419695,-3.4436935034,0.5608584381\N,0,2.9767903675,-0.6365
 947539,-2.0104143768\H,0,3.4025990728,0.0189312703,-1.3690086035\C,0,3
 .4681470871,-0.6668725072,-3.3768334161\H,0,3.0132962783,-1.553530455,
 -3.8328527717\C,0,4.977908559,-0.8412476284,-3.4670346168\C,0,3.030176
 797,0.583160237,-4.1779242108\H,0,3.3734741212,0.4647475496,-5.2096635
 088\H,0,3.545499824,1.46423202,-3.7702081181\O,0,5.6043418646,-0.66394
 31805,-4.4847829565\C,0,1.5182271174,0.7720668906,-4.0796918327\H,0,0.
 9919932071,-0.0632973769,-4.5532538898\H,0,1.2359155465,0.757117141,-3
 .0265832264\C,0,0.9966167631,2.0917737375,-4.6398242095\H,0,1.61901783
 93,2.9312065359,-4.3025986531\H,0,0.988495447,2.0881351188,-5.73511990
 86\N,0,-0.381815558,2.2743389513,-4.1533479048\H,0,-0.5913776529,1.864
 9052616,-3.2316837955\N,0,-1.0537777009,3.7159548086,-5.8518569437\H,0
 ,-1.7786952403,3.9929986664,-6.497361442\H,0,-0.1012775782,3.938819062
 2,-6.0962188206\N,0,-2.6179718711,2.8233408696,-4.40645633\H,0,-3.2970
 816779,3.5285617845,-4.6527123045\H,0,-2.8774643572,2.1657141053,-3.68
 31387704\C,0,-1.3349543589,2.9357503974,-4.7922350767\O,0,5.5418106281
 ,-1.21293868,-2.2961345787\H,0,6.4983577036,-1.3049971147,-2.473261331
 4\\Version=ES64L-G16RevC.01\HF=-1866.7882735\RMSD=9.093e-10\Dipole=1.4
 121455,4.2802683,-4.7975734\Quadrupole=-10.2409106,-7.3868888,17.62779
 93,-29.6920305,21.445112,-47.060552\PG=C01 [X(C25H41N8O6)]\\@
 The archive entry for this job was punched.


 LENDING MONEY TO FRIENDS CAUSES THEM TO LOSE THEIR MEMORIES.

    --  PETER'S THEORY OF RECIPROCAL INHIBITION OF FISCAL RECALL
 Job cpu time:       0 days  0 hours  5 minutes 55.6 seconds.
 Elapsed time:       0 days  0 hours  1 minutes 37.8 seconds.
 File lengths (MBytes):  RWF=    464 Int=      0 D2E=      0 Chk=     64 Scr=     32
 Normal termination of Gaussian 16 at Tue Oct 18 19:31:18 2022.
