 Entering Gaussian System, Link 0=/opt/software/Gaussian/g16-AVX2-C.01/g16/g16
 Input=charge-conf-950.com
 Output=charge-conf-950.log
 Initial command:
 /opt/software/Gaussian/g16-AVX2-C.01/g16/l1.exe "/mnt/gs18/scratch/users/kengmith/Gau-30618.inp" -scrdir="/mnt/gs18/scratch/users/kengmith/"
 Entering Link 1 = /opt/software/Gaussian/g16-AVX2-C.01/g16/l1.exe PID=     30628.
  
 Copyright (c) 1988-2019, Gaussian, Inc.  All Rights Reserved.
  
 This is part of the Gaussian(R) 16 program.  It is based on
 the Gaussian(R) 09 system (copyright 2009, Gaussian, Inc.),
 the Gaussian(R) 03 system (copyright 2003, Gaussian, Inc.),
 the Gaussian(R) 98 system (copyright 1998, Gaussian, Inc.),
 the Gaussian(R) 94 system (copyright 1995, Gaussian, Inc.),
 the Gaussian 92(TM) system (copyright 1992, Gaussian, Inc.),
 the Gaussian 90(TM) system (copyright 1990, Gaussian, Inc.),
 the Gaussian 88(TM) system (copyright 1988, Gaussian, Inc.),
 the Gaussian 86(TM) system (copyright 1986, Carnegie Mellon
 University), and the Gaussian 82(TM) system (copyright 1983,
 Carnegie Mellon University). Gaussian is a federally registered
 trademark of Gaussian, Inc.
  
 This software contains proprietary and confidential information,
 including trade secrets, belonging to Gaussian, Inc.
  
 This software is provided under written license and may be
 used, copied, transmitted, or stored only in accord with that
 written license.
  
 The following legend is applicable only to US Government
 contracts under FAR:
  
                    RESTRICTED RIGHTS LEGEND
  
 Use, reproduction and disclosure by the US Government is
 subject to restrictions as set forth in subparagraphs (a)
 and (c) of the Commercial Computer Software - Restricted
 Rights clause in FAR 52.227-19.
  
 Gaussian, Inc.
 340 Quinnipiac St., Bldg. 40, Wallingford CT 06492
  
  
 ---------------------------------------------------------------
 Warning -- This program may not be used in any manner that
 competes with the business of Gaussian, Inc. or will provide
 assistance to any competitor of Gaussian, Inc.  The licensee
 of this program is prohibited from giving any competitor of
 Gaussian, Inc. access to this program.  By using this program,
 the user acknowledges that Gaussian, Inc. is engaged in the
 business of creating and licensing software in the field of
 computational chemistry and represents and warrants to the
 licensee that it is not a competitor of Gaussian, Inc. and that
 it will not use this program in any manner prohibited above.
 ---------------------------------------------------------------
  

 Cite this work as:
 Gaussian 16, Revision C.01,
 M. J. Frisch, G. W. Trucks, H. B. Schlegel, G. E. Scuseria, 
 M. A. Robb, J. R. Cheeseman, G. Scalmani, V. Barone, 
 G. A. Petersson, H. Nakatsuji, X. Li, M. Caricato, A. V. Marenich, 
 J. Bloino, B. G. Janesko, R. Gomperts, B. Mennucci, H. P. Hratchian, 
 J. V. Ortiz, A. F. Izmaylov, J. L. Sonnenberg, D. Williams-Young, 
 F. Ding, F. Lipparini, F. Egidi, J. Goings, B. Peng, A. Petrone, 
 T. Henderson, D. Ranasinghe, V. G. Zakrzewski, J. Gao, N. Rega, 
 G. Zheng, W. Liang, M. Hada, M. Ehara, K. Toyota, R. Fukuda, 
 J. Hasegawa, M. Ishida, T. Nakajima, Y. Honda, O. Kitao, H. Nakai, 
 T. Vreven, K. Throssell, J. A. Montgomery, Jr., J. E. Peralta, 
 F. Ogliaro, M. J. Bearpark, J. J. Heyd, E. N. Brothers, K. N. Kudin, 
 V. N. Staroverov, T. A. Keith, R. Kobayashi, J. Normand, 
 K. Raghavachari, A. P. Rendell, J. C. Burant, S. S. Iyengar, 
 J. Tomasi, M. Cossi, J. M. Millam, M. Klene, C. Adamo, R. Cammi, 
 J. W. Ochterski, R. L. Martin, K. Morokuma, O. Farkas, 
 J. B. Foresman, and D. J. Fox, Gaussian, Inc., Wallingford CT, 2019.
 
 ******************************************
 Gaussian 16:  ES64L-G16RevC.01  3-Jul-2019
                16-Jul-2022 
 ******************************************
 %mem=8gb
 %nproc=4
 Will use up to    4 processors via shared memory.
 %chk=conf-950.chk
 ----------------------------------------------------------------------
 # B3LYP/6-31G* empiricaldispersion=gd3bj guess=read geom=check nosymm 
 integral(ultrafinegrid)
 ----------------------------------------------------------------------
 1/29=2,38=1,172=1/1;
 2/12=2,15=1,40=1/2;
 3/5=1,6=6,7=1,11=2,14=-4,25=1,30=1,74=-5,75=-5,116=-2,124=41/1,2,3;
 4/5=1/1;
 5/5=2,38=6/2;
 6/7=2,8=2,9=2,10=2,28=1/1;
 99/5=1,9=1/99;
 ------------------------------------------------------
 Candidate Structure: Conf:950 Charge calc in gas phase
 ------------------------------------------------------
 Structure from the checkpoint file:  "conf-950.chk"
 Charge =  1 Multiplicity = 1
 Redundant internal coordinates found in file.  (old form).
 N,0,-1.3581859702,15.4865700272,-5.0615885697
 C,0,-1.6586258752,14.1128062529,-5.4403217137
 C,0,-0.5416201864,13.1336351439,-5.0286431235
 O,0,0.5675102946,13.5265261135,-4.6859172337
 C,0,-1.8922936393,14.0324226719,-6.9756040031
 C,0,-3.2196031351,14.6434516378,-7.3415245182
 C,0,-4.3429253336,13.8199825509,-7.4999475357
 C,0,-3.3817160396,16.0334190778,-7.4428174782
 C,0,-5.6002857897,14.3686718167,-7.7590193125
 C,0,-4.6388389683,16.584386057,-7.7106496525
 C,0,-5.7524980401,15.7526766219,-7.870044737
 H,0,-0.3414065929,15.5869068119,-5.0962957352
 H,0,-2.5866561455,13.7997837123,-4.9475026637
 H,0,-1.8651738211,12.9917548358,-7.3127120773
 H,0,-1.0622097903,14.5595684382,-7.4604890146
 H,0,-4.2220400341,12.7438934529,-7.397671078
 H,0,-2.5251587341,16.6758784528,-7.2703796214
 H,0,-6.4642989642,13.7161720102,-7.8605523142
 H,0,-4.754064187,17.6638412879,-7.7620656693
 H,0,-6.7335204751,16.1831477039,-8.0523464629
 H,0,-1.6034778529,15.6320715991,-4.0841808193
 N,0,-0.8896792609,11.8171308335,-5.0834595601
 C,0,0.1246072588,10.7631914437,-4.9272149967
 C,0,-0.399483798,9.5652792305,-5.7113339066
 O,0,0.1253430082,9.1513897734,-6.7332992818
 C,0,0.4205016525,10.4667409713,-3.4486407825
 C,0,1.3648574198,9.2753991626,-3.2142922646
 C,0,2.6926577183,9.4282626634,-3.9693882209
 C,0,1.6054796857,9.0943120786,-1.7108635934
 H,0,-1.7320435624,11.5664804863,-5.5958229193
 H,0,1.0403040769,11.0874998484,-5.4249115124
 H,0,0.8534753991,11.3788845167,-3.0224769137
 H,0,-0.527428794,10.2949893455,-2.9200732001
 H,0,0.8643763607,8.3693692539,-3.5879639715
 H,0,2.5508298466,9.4090216248,-5.0547967432
 H,0,3.1857066381,10.3720717316,-3.7048586377
 H,0,3.3760083202,8.6114426412,-3.7131730378
 H,0,2.1209896614,9.967437066,-1.2922524243
 H,0,0.6628544941,8.9692223531,-1.1646858406
 H,0,2.2278945055,8.214339728,-1.5159177655
 N,0,-1.568067592,9.0149395153,-5.2124733948
 C,0,-2.413400943,8.3045170074,-6.1483264551
 C,0,-2.9385230786,9.3066742687,-7.2069429323
 O,0,-2.886837941,10.5318251314,-7.0339912206
 C,0,-3.5181352978,7.5297111171,-5.4166294425
 C,0,-4.0403031434,6.3417862064,-6.2264193195
 N,0,-4.8071565586,5.4684415587,-5.5343145701
 O,0,-3.7972089911,6.186641195,-7.4238702454
 H,0,-2.0413319551,9.5570024166,-4.4991180044
 H,0,-1.7737747413,7.596547262,-6.6789543506
 H,0,-3.1036904898,7.1627465627,-4.4704844392
 H,0,-4.3620710053,8.1838775575,-5.1602941273
 H,0,-5.1463451002,4.6439637714,-6.0118861063
 H,0,-4.9289710728,5.5262187025,-4.5340804784
 N,0,-3.3684508178,8.7594893167,-8.3595131844
 C,0,-3.5170557029,9.5545556039,-9.5665085655
 C,0,-2.3152369275,10.5093674988,-9.6928776074
 O,0,-2.3731485699,11.69210641,-10.0012683961
 C,0,-4.861112249,10.2911639896,-9.6787215129
 C,0,-5.2097286545,10.6952045764,-11.1332976807
 C,0,-5.7195028929,12.1311765954,-11.2630396651
 N,0,-4.6353829781,13.0393118215,-10.8950589902
 C,0,-4.7070402933,14.3588073836,-10.854991123
 N,0,-5.8408826406,15.0014514554,-11.1831479877
 N,0,-3.6036012018,15.0851513229,-10.5711363709
 O,0,-1.1737808016,9.8709659455,-9.4746837248
 H,0,-0.432692604,10.5058952171,-9.4784807394
 H,0,-3.4015477803,7.7388615784,-8.3978514524
 H,0,-3.4277050005,8.8481363808,-10.4010793276
 H,0,-4.8339567924,11.161764229,-9.0168962919
 H,0,-5.6312556257,9.623248379,-9.2841444381
 H,0,-4.333661379,10.5923133107,-11.7853780433
 H,0,-5.9714417306,10.0235861193,-11.5397157665
 H,0,-6.0416298192,12.3366989581,-12.2905531667
 H,0,-6.5794396901,12.2851854243,-10.5946227182
 H,0,-3.7839853463,12.5965170778,-10.5250334732
 H,0,-5.8772737776,16.0081898886,-11.1172904884
 H,0,-6.7232468975,14.5126888109,-11.1753727173
 H,0,-3.7433934186,15.9143010572,-9.9998614891
 H,0,-2.7904947289,14.5544793573,-10.2816332163
 Recover connectivity data from disk.
                           ----------------------------
                           !    Current Parameters    !
                           ! (Angstroms and Degrees)  !
 --------------------------                            --------------------------
 ! Name  Definition              Value                                          !
 --------------------------------------------------------------------------------
 ! R1    R(1,2)                  1.4563                                         !
 ! R2    R(1,12)                 1.0223                                         !
 ! R3    R(1,21)                 1.0182                                         !
 ! R4    R(2,3)                  1.5414                                         !
 ! R5    R(2,5)                  1.555                                          !
 ! R6    R(2,13)                 1.0964                                         !
 ! R7    R(3,4)                  1.2256                                         !
 ! R8    R(3,22)                 1.3628                                         !
 ! R9    R(5,6)                  1.5063                                         !
 ! R10   R(5,14)                 1.0942                                         !
 ! R11   R(5,15)                 1.0964                                         !
 ! R12   R(6,7)                  1.4018                                         !
 ! R13   R(6,8)                  1.4031                                         !
 ! R14   R(7,9)                  1.3961                                         !
 ! R15   R(7,16)                 1.0877                                         !
 ! R16   R(8,10)                 1.3984                                         !
 ! R17   R(8,17)                 1.0845                                         !
 ! R18   R(9,11)                 1.3968                                         !
 ! R19   R(9,18)                 1.0875                                         !
 ! R20   R(10,11)                1.3991                                         !
 ! R21   R(10,19)                1.0868                                         !
 ! R22   R(11,20)                1.0867                                         !
 ! R23   R(22,23)                1.471                                          !
 ! R24   R(22,30)                1.0173                                         !
 ! R25   R(23,24)                1.5246                                         !
 ! R26   R(23,26)                1.5368                                         !
 ! R27   R(23,31)                1.0915                                         !
 ! R28   R(24,25)                1.2211                                         !
 ! R29   R(24,41)                1.3847                                         !
 ! R30   R(26,27)                1.5382                                         !
 ! R31   R(26,32)                1.0959                                         !
 ! R32   R(26,33)                1.0988                                         !
 ! R33   R(27,28)                1.5351                                         !
 ! R34   R(27,29)                1.5333                                         !
 ! R35   R(27,34)                1.1005                                         !
 ! R36   R(28,35)                1.0948                                         !
 ! R37   R(28,36)                1.0972                                         !
 ! R38   R(28,37)                1.0954                                         !
 ! R39   R(29,38)                1.097                                          !
 ! R40   R(29,39)                1.0966                                         !
 ! R41   R(29,40)                1.0953                                         !
 ! R42   R(41,42)                1.4474                                         !
 ! R43   R(41,49)                1.0133                                         !
 ! R44   R(42,43)                1.5494                                         !
 ! R45   R(42,45)                1.535                                          !
 ! R46   R(42,50)                1.0917                                         !
 ! R47   R(43,44)                1.2384                                         !
 ! R48   R(43,55)                1.3464                                         !
 ! R49   R(45,46)                1.5296                                         !
 ! R50   R(45,51)                1.0962                                         !
 ! R51   R(45,52)                1.0981                                         !
 ! R52   R(46,47)                1.3527                                         !
 ! R53   R(46,48)                1.2317                                         !
 ! R54   R(47,53)                1.0114                                         !
 ! R55   R(47,54)                1.0093                                         !
 ! R56   R(55,56)                1.4529                                         !
 ! R57   R(55,68)                1.0219                                         !
 ! R58   R(56,57)                1.5401                                         !
 ! R59   R(56,59)                1.5368                                         !
 ! R60   R(56,69)                1.0971                                         !
 ! R61   R(57,58)                1.2237                                         !
 ! R62   R(57,66)                1.3259                                         !
 ! R63   R(59,60)                1.5494                                         !
 ! R64   R(59,70)                1.0939                                         !
 ! R65   R(59,71)                1.0931                                         !
 ! R66   R(60,61)                1.5293                                         !
 ! R67   R(60,72)                1.0969                                         !
 ! R68   R(60,73)                1.0938                                         !
 ! R69   R(61,62)                1.4613                                         !
 ! R70   R(61,74)                1.0963                                         !
 ! R71   R(61,75)                1.1                                            !
 ! R72   R(62,63)                1.322                                          !
 ! R73   R(62,76)                1.0285                                         !
 ! R74   R(63,64)                1.344                                          !
 ! R75   R(63,65)                1.3512                                         !
 ! R76   R(64,77)                1.0095                                         !
 ! R77   R(64,78)                1.0087                                         !
 ! R78   R(65,79)                1.0166                                         !
 ! R79   R(65,80)                1.0132                                         !
 ! R80   R(66,67)                0.9759                                         !
 ! A1    A(2,1,12)             106.7942                                         !
 ! A2    A(2,1,21)             109.5573                                         !
 ! A3    A(12,1,21)            104.9619                                         !
 ! A4    A(1,2,3)              112.3504                                         !
 ! A5    A(1,2,5)              109.6646                                         !
 ! A6    A(1,2,13)             109.089                                          !
 ! A7    A(3,2,5)              109.861                                          !
 ! A8    A(3,2,13)             108.1779                                         !
 ! A9    A(5,2,13)             107.5675                                         !
 ! A10   A(2,3,4)              121.7936                                         !
 ! A11   A(2,3,22)             114.6976                                         !
 ! A12   A(4,3,22)             123.5084                                         !
 ! A13   A(2,5,6)              110.5653                                         !
 ! A14   A(2,5,14)             110.4627                                         !
 ! A15   A(2,5,15)             107.3388                                         !
 ! A16   A(6,5,14)             109.4378                                         !
 ! A17   A(6,5,15)             111.3872                                         !
 ! A18   A(14,5,15)            107.593                                          !
 ! A19   A(5,6,7)              119.6878                                         !
 ! A20   A(5,6,8)              121.4135                                         !
 ! A21   A(7,6,8)              118.7644                                         !
 ! A22   A(6,7,9)              120.7839                                         !
 ! A23   A(6,7,16)             118.7827                                         !
 ! A24   A(9,7,16)             120.4223                                         !
 ! A25   A(6,8,10)             120.531                                          !
 ! A26   A(6,8,17)             118.9556                                         !
 ! A27   A(10,8,17)            120.4673                                         !
 ! A28   A(7,9,11)             120.1532                                         !
 ! A29   A(7,9,18)             119.8061                                         !
 ! A30   A(11,9,18)            120.0351                                         !
 ! A31   A(8,10,11)            120.2096                                         !
 ! A32   A(8,10,19)            119.7152                                         !
 ! A33   A(11,10,19)           120.0444                                         !
 ! A34   A(9,11,10)            119.5539                                         !
 ! A35   A(9,11,20)            120.2791                                         !
 ! A36   A(10,11,20)           120.1465                                         !
 ! A37   A(3,22,23)            120.7792                                         !
 ! A38   A(3,22,30)            118.0174                                         !
 ! A39   A(23,22,30)           116.6088                                         !
 ! A40   A(22,23,24)           105.7406                                         !
 ! A41   A(22,23,26)           111.9107                                         !
 ! A42   A(22,23,31)           108.49                                           !
 ! A43   A(24,23,26)           114.1702                                         !
 ! A44   A(24,23,31)           106.6978                                         !
 ! A45   A(26,23,31)           109.5418                                         !
 ! A46   A(23,24,25)           123.2974                                         !
 ! A47   A(23,24,41)           114.6513                                         !
 ! A48   A(25,24,41)           121.9728                                         !
 ! A49   A(23,26,27)           114.4692                                         !
 ! A50   A(23,26,32)           106.8369                                         !
 ! A51   A(23,26,33)           109.0784                                         !
 ! A52   A(27,26,32)           110.0491                                         !
 ! A53   A(27,26,33)           109.5896                                         !
 ! A54   A(32,26,33)           106.4903                                         !
 ! A55   A(26,27,28)           112.2695                                         !
 ! A56   A(26,27,29)           109.7067                                         !
 ! A57   A(26,27,34)           107.8618                                         !
 ! A58   A(28,27,29)           110.9972                                         !
 ! A59   A(28,27,34)           107.9589                                         !
 ! A60   A(29,27,34)           107.8834                                         !
 ! A61   A(27,28,35)           111.9538                                         !
 ! A62   A(27,28,36)           110.8393                                         !
 ! A63   A(27,28,37)           110.5054                                         !
 ! A64   A(35,28,36)           108.2014                                         !
 ! A65   A(35,28,37)           107.4345                                         !
 ! A66   A(36,28,37)           107.7413                                         !
 ! A67   A(27,29,38)           110.7273                                         !
 ! A68   A(27,29,39)           111.5273                                         !
 ! A69   A(27,29,40)           111.0124                                         !
 ! A70   A(38,29,39)           107.7395                                         !
 ! A71   A(38,29,40)           107.7275                                         !
 ! A72   A(39,29,40)           107.9491                                         !
 ! A73   A(24,41,42)           117.0657                                         !
 ! A74   A(24,41,49)           115.7979                                         !
 ! A75   A(42,41,49)           116.422                                          !
 ! A76   A(41,42,43)           108.7974                                         !
 ! A77   A(41,42,45)           111.0919                                         !
 ! A78   A(41,42,50)           106.8799                                         !
 ! A79   A(43,42,45)           114.0946                                         !
 ! A80   A(43,42,50)           106.6135                                         !
 ! A81   A(45,42,50)           109.0271                                         !
 ! A82   A(42,43,44)           122.0269                                         !
 ! A83   A(42,43,55)           115.4832                                         !
 ! A84   A(44,43,55)           122.3416                                         !
 ! A85   A(42,45,46)           112.6656                                         !
 ! A86   A(42,45,51)           107.9574                                         !
 ! A87   A(42,45,52)           111.3271                                         !
 ! A88   A(46,45,51)           109.0284                                         !
 ! A89   A(46,45,52)           108.8976                                         !
 ! A90   A(51,45,52)           106.7687                                         !
 ! A91   A(45,46,47)           115.0922                                         !
 ! A92   A(45,46,48)           123.0353                                         !
 ! A93   A(47,46,48)           121.8696                                         !
 ! A94   A(46,47,53)           118.3492                                         !
 ! A95   A(46,47,54)           122.5832                                         !
 ! A96   A(53,47,54)           118.3044                                         !
 ! A97   A(43,55,56)           121.4275                                         !
 ! A98   A(43,55,68)           116.6398                                         !
 ! A99   A(56,55,68)           120.801                                          !
 ! A100  A(55,56,57)           109.1229                                         !
 ! A101  A(55,56,59)           114.3557                                         !
 ! A102  A(55,56,69)           105.74                                           !
 ! A103  A(57,56,59)           112.2922                                         !
 ! A104  A(57,56,69)           105.8566                                         !
 ! A105  A(59,56,69)           108.9251                                         !
 ! A106  A(56,57,58)           125.66                                           !
 ! A107  A(56,57,66)           111.0864                                         !
 ! A108  A(58,57,66)           123.2019                                         !
 ! A109  A(56,59,60)           112.9753                                         !
 ! A110  A(56,59,70)           108.3957                                         !
 ! A111  A(56,59,71)           107.2747                                         !
 ! A112  A(60,59,70)           111.4707                                         !
 ! A113  A(60,59,71)           109.858                                          !
 ! A114  A(70,59,71)           106.5816                                         !
 ! A115  A(59,60,61)           113.5478                                         !
 ! A116  A(59,60,72)           110.7273                                         !
 ! A117  A(59,60,73)           110.2056                                         !
 ! A118  A(61,60,72)           107.6898                                         !
 ! A119  A(61,60,73)           108.2335                                         !
 ! A120  A(72,60,73)           106.1224                                         !
 ! A121  A(60,61,62)           108.3529                                         !
 ! A122  A(60,61,74)           110.7018                                         !
 ! A123  A(60,61,75)           109.9078                                         !
 ! A124  A(62,61,74)           109.7253                                         !
 ! A125  A(62,61,75)           109.8738                                         !
 ! A126  A(74,61,75)           108.2754                                         !
 ! A127  A(61,62,63)           125.992                                          !
 ! A128  A(61,62,76)           115.9233                                         !
 ! A129  A(63,62,76)           117.6227                                         !
 ! A130  A(62,63,64)           121.0355                                         !
 ! A131  A(62,63,65)           119.9089                                         !
 ! A132  A(64,63,65)           118.8951                                         !
 ! A133  A(63,64,77)           119.4273                                         !
 ! A134  A(63,64,78)           120.2913                                         !
 ! A135  A(77,64,78)           116.8178                                         !
 ! A136  A(63,65,79)           116.373                                          !
 ! A137  A(63,65,80)           115.7116                                         !
 ! A138  A(79,65,80)           112.1472                                         !
 ! A139  A(57,66,67)           109.8677                                         !
 ! D1    D(12,1,2,3)            30.9694                                         !
 ! D2    D(12,1,2,5)           -91.5113                                         !
 ! D3    D(12,1,2,13)          150.9181                                         !
 ! D4    D(21,1,2,3)           -82.1972                                         !
 ! D5    D(21,1,2,5)           155.3221                                         !
 ! D6    D(21,1,2,13)           37.7515                                         !
 ! D7    D(1,2,3,4)            -14.171                                          !
 ! D8    D(1,2,3,22)           166.0485                                         !
 ! D9    D(5,2,3,4)            108.1986                                         !
 ! D10   D(5,2,3,22)           -71.5818                                         !
 ! D11   D(13,2,3,4)          -134.6472                                         !
 ! D12   D(13,2,3,22)           45.5723                                         !
 ! D13   D(1,2,5,6)            -73.1276                                         !
 ! D14   D(1,2,5,14)           165.5824                                         !
 ! D15   D(1,2,5,15)            48.5519                                         !
 ! D16   D(3,2,5,6)            162.924                                          !
 ! D17   D(3,2,5,14)            41.634                                          !
 ! D18   D(3,2,5,15)           -75.3965                                         !
 ! D19   D(13,2,5,6)            45.3892                                         !
 ! D20   D(13,2,5,14)          -75.9008                                         !
 ! D21   D(13,2,5,15)          167.0687                                         !
 ! D22   D(2,3,22,23)          170.2706                                         !
 ! D23   D(2,3,22,30)           15.1128                                         !
 ! D24   D(4,3,22,23)           -9.5056                                         !
 ! D25   D(4,3,22,30)         -164.6634                                         !
 ! D26   D(2,5,6,7)            -96.238                                          !
 ! D27   D(2,5,6,8)             79.4967                                         !
 ! D28   D(14,5,6,7)            25.6569                                         !
 ! D29   D(14,5,6,8)          -158.6084                                         !
 ! D30   D(15,5,6,7)           144.5014                                         !
 ! D31   D(15,5,6,8)           -39.7639                                         !
 ! D32   D(5,6,7,9)            176.097                                          !
 ! D33   D(5,6,7,16)            -2.6937                                         !
 ! D34   D(8,6,7,9)              0.2494                                         !
 ! D35   D(8,6,7,16)          -178.5414                                         !
 ! D36   D(5,6,8,10)          -176.4274                                         !
 ! D37   D(5,6,8,17)             1.1157                                         !
 ! D38   D(7,6,8,10)            -0.6544                                         !
 ! D39   D(7,6,8,17)           176.8887                                         !
 ! D40   D(6,7,9,11)             0.2989                                         !
 ! D41   D(6,7,9,18)          -178.8512                                         !
 ! D42   D(16,7,9,11)          179.0699                                         !
 ! D43   D(16,7,9,18)           -0.0803                                         !
 ! D44   D(6,8,10,11)            0.5148                                         !
 ! D45   D(6,8,10,19)          178.4984                                         !
 ! D46   D(17,8,10,11)        -176.991                                          !
 ! D47   D(17,8,10,19)           0.9926                                         !
 ! D48   D(7,9,11,10)           -0.4441                                         !
 ! D49   D(7,9,11,20)         -178.8017                                         !
 ! D50   D(18,9,11,10)         178.7041                                         !
 ! D51   D(18,9,11,20)           0.3465                                         !
 ! D52   D(8,10,11,9)            0.0404                                         !
 ! D53   D(8,10,11,20)         178.4001                                         !
 ! D54   D(19,10,11,9)        -177.9366                                         !
 ! D55   D(19,10,11,20)          0.4232                                         !
 ! D56   D(3,22,23,24)        -151.7811                                         !
 ! D57   D(3,22,23,26)          83.3371                                         !
 ! D58   D(3,22,23,31)         -37.6378                                         !
 ! D59   D(30,22,23,24)          3.711                                          !
 ! D60   D(30,22,23,26)       -121.1708                                         !
 ! D61   D(30,22,23,31)        117.8542                                         !
 ! D62   D(22,23,24,25)        111.999                                          !
 ! D63   D(22,23,24,41)        -64.8316                                         !
 ! D64   D(26,23,24,25)       -124.5347                                         !
 ! D65   D(26,23,24,41)         58.6347                                         !
 ! D66   D(31,23,24,25)         -3.3765                                         !
 ! D67   D(31,23,24,41)        179.7929                                         !
 ! D68   D(22,23,26,27)        174.0121                                         !
 ! D69   D(22,23,26,32)        -63.8986                                         !
 ! D70   D(22,23,26,33)         50.8391                                         !
 ! D71   D(24,23,26,27)         53.9451                                         !
 ! D72   D(24,23,26,32)        176.0344                                         !
 ! D73   D(24,23,26,33)        -69.2278                                         !
 ! D74   D(31,23,26,27)        -65.6243                                         !
 ! D75   D(31,23,26,32)         56.465                                          !
 ! D76   D(31,23,26,33)        171.2028                                         !
 ! D77   D(23,24,41,42)        154.2768                                         !
 ! D78   D(23,24,41,49)         10.9543                                         !
 ! D79   D(25,24,41,42)        -22.6005                                         !
 ! D80   D(25,24,41,49)       -165.923                                          !
 ! D81   D(23,26,27,28)         55.0187                                         !
 ! D82   D(23,26,27,29)        178.9344                                         !
 ! D83   D(23,26,27,34)        -63.7991                                         !
 ! D84   D(32,26,27,28)        -65.3018                                         !
 ! D85   D(32,26,27,29)         58.6139                                         !
 ! D86   D(32,26,27,34)        175.8804                                         !
 ! D87   D(33,26,27,28)        177.9158                                         !
 ! D88   D(33,26,27,29)        -58.1685                                         !
 ! D89   D(33,26,27,34)         59.098                                          !
 ! D90   D(26,27,28,35)        -65.3008                                         !
 ! D91   D(26,27,28,36)         55.6157                                         !
 ! D92   D(26,27,28,37)        174.9869                                         !
 ! D93   D(29,27,28,35)        171.5053                                         !
 ! D94   D(29,27,28,36)        -67.5782                                         !
 ! D95   D(29,27,28,37)         51.793                                          !
 ! D96   D(34,27,28,35)         53.4598                                         !
 ! D97   D(34,27,28,36)        174.3763                                         !
 ! D98   D(34,27,28,37)        -66.2525                                         !
 ! D99   D(26,27,29,38)        -63.7702                                         !
 ! D100  D(26,27,29,39)         56.1949                                         !
 ! D101  D(26,27,29,40)        176.619                                          !
 ! D102  D(28,27,29,38)         60.8856                                         !
 ! D103  D(28,27,29,39)       -179.1493                                         !
 ! D104  D(28,27,29,40)        -58.7253                                         !
 ! D105  D(34,27,29,38)        178.9768                                         !
 ! D106  D(34,27,29,39)        -61.058                                          !
 ! D107  D(34,27,29,40)         59.366                                          !
 ! D108  D(24,41,42,43)        -64.4328                                         !
 ! D109  D(24,41,42,45)        169.1616                                         !
 ! D110  D(24,41,42,50)         50.3326                                         !
 ! D111  D(49,41,42,43)         78.6609                                         !
 ! D112  D(49,41,42,45)        -47.7447                                         !
 ! D113  D(49,41,42,50)       -166.5736                                         !
 ! D114  D(41,42,43,44)        -16.0955                                         !
 ! D115  D(41,42,43,55)        159.5727                                         !
 ! D116  D(45,42,43,44)        108.5601                                         !
 ! D117  D(45,42,43,55)        -75.7717                                         !
 ! D118  D(50,42,43,44)       -131.034                                          !
 ! D119  D(50,42,43,55)         44.6342                                         !
 ! D120  D(41,42,45,46)       -155.6208                                         !
 ! D121  D(41,42,45,51)        -35.1725                                         !
 ! D122  D(41,42,45,52)         81.7071                                         !
 ! D123  D(43,42,45,46)         80.9563                                         !
 ! D124  D(43,42,45,51)       -158.5954                                         !
 ! D125  D(43,42,45,52)        -41.7158                                         !
 ! D126  D(50,42,45,46)        -38.0907                                         !
 ! D127  D(50,42,45,51)         82.3577                                         !
 ! D128  D(50,42,45,52)       -160.7628                                         !
 ! D129  D(42,43,55,56)       -161.8189                                         !
 ! D130  D(42,43,55,68)          6.1098                                         !
 ! D131  D(44,43,55,56)         13.8342                                         !
 ! D132  D(44,43,55,68)       -178.237                                          !
 ! D133  D(42,45,46,47)        167.0331                                         !
 ! D134  D(42,45,46,48)        -13.5757                                         !
 ! D135  D(51,45,46,47)         47.2017                                         !
 ! D136  D(51,45,46,48)       -133.4071                                         !
 ! D137  D(52,45,46,47)        -68.9427                                         !
 ! D138  D(52,45,46,48)        110.4484                                         !
 ! D139  D(45,46,47,53)       -177.4591                                         !
 ! D140  D(45,46,47,54)         -7.6443                                         !
 ! D141  D(48,46,47,53)          3.1419                                         !
 ! D142  D(48,46,47,54)        172.9567                                         !
 ! D143  D(43,55,56,57)         41.7248                                         !
 ! D144  D(43,55,56,59)        -84.9781                                         !
 ! D145  D(43,55,56,69)        155.189                                          !
 ! D146  D(68,55,56,57)       -125.7058                                         !
 ! D147  D(68,55,56,59)        107.5913                                         !
 ! D148  D(68,55,56,69)        -12.2415                                         !
 ! D149  D(55,56,57,58)       -135.9925                                         !
 ! D150  D(55,56,57,66)         46.5663                                         !
 ! D151  D(59,56,57,58)         -8.1211                                         !
 ! D152  D(59,56,57,66)        174.4378                                         !
 ! D153  D(69,56,57,58)        110.6194                                         !
 ! D154  D(69,56,57,66)        -66.8218                                         !
 ! D155  D(55,56,59,60)       -159.3079                                         !
 ! D156  D(55,56,59,70)         76.6382                                         !
 ! D157  D(55,56,59,71)        -38.0941                                         !
 ! D158  D(57,56,59,60)         75.6461                                         !
 ! D159  D(57,56,59,70)        -48.4078                                         !
 ! D160  D(57,56,59,71)       -163.1401                                         !
 ! D161  D(69,56,59,60)        -41.2736                                         !
 ! D162  D(69,56,59,70)       -165.3274                                         !
 ! D163  D(69,56,59,71)         79.9403                                         !
 ! D164  D(56,57,66,67)       -174.8681                                         !
 ! D165  D(58,57,66,67)          7.6165                                         !
 ! D166  D(56,59,60,61)       -134.5278                                         !
 ! D167  D(56,59,60,72)        -13.2413                                         !
 ! D168  D(56,59,60,73)        103.8653                                         !
 ! D169  D(70,59,60,61)        -12.1783                                         !
 ! D170  D(70,59,60,72)        109.1082                                         !
 ! D171  D(70,59,60,73)       -133.7851                                         !
 ! D172  D(71,59,60,61)        105.733                                          !
 ! D173  D(71,59,60,72)       -132.9806                                         !
 ! D174  D(71,59,60,73)        -15.8739                                         !
 ! D175  D(59,60,61,62)         65.0473                                         !
 ! D176  D(59,60,61,74)       -174.5875                                         !
 ! D177  D(59,60,61,75)        -55.0237                                         !
 ! D178  D(72,60,61,62)        -57.9246                                         !
 ! D179  D(72,60,61,74)         62.4407                                         !
 ! D180  D(72,60,61,75)       -177.9956                                         !
 ! D181  D(73,60,61,62)       -172.252                                          !
 ! D182  D(73,60,61,74)        -51.8868                                         !
 ! D183  D(73,60,61,75)         67.677                                          !
 ! D184  D(60,61,62,63)       -178.3506                                         !
 ! D185  D(60,61,62,76)         -6.3768                                         !
 ! D186  D(74,61,62,63)         60.6779                                         !
 ! D187  D(74,61,62,76)       -127.3483                                         !
 ! D188  D(75,61,62,63)        -58.2584                                         !
 ! D189  D(75,61,62,76)        113.7153                                         !
 ! D190  D(61,62,63,64)         -0.8391                                         !
 ! D191  D(61,62,63,65)       -176.1853                                         !
 ! D192  D(76,62,63,64)       -172.691                                          !
 ! D193  D(76,62,63,65)         11.9628                                         !
 ! D194  D(62,63,64,77)        178.1687                                         !
 ! D195  D(62,63,64,78)         19.8263                                         !
 ! D196  D(65,63,64,77)         -6.4389                                         !
 ! D197  D(65,63,64,78)       -164.7813                                         !
 ! D198  D(62,63,65,79)       -142.6144                                         !
 ! D199  D(62,63,65,80)         -7.7229                                         !
 ! D200  D(64,63,65,79)         41.94                                           !
 ! D201  D(64,63,65,80)        176.8315                                         !
 --------------------------------------------------------------------------------
 Symmetry turned off by external request.
 Stoichiometry    C25H41N8O6(1+)
 Framework group  C1[X(C25H41N8O6)]
 Deg. of freedom   234
 Full point group                 C1      NOp   1
                          Input orientation:                          
 ---------------------------------------------------------------------
 Center     Atomic      Atomic             Coordinates (Angstroms)
 Number     Number       Type             X           Y           Z
 ---------------------------------------------------------------------
      1          7           0       -1.358186   15.486570   -5.061589
      2          6           0       -1.658626   14.112806   -5.440322
      3          6           0       -0.541620   13.133635   -5.028643
      4          8           0        0.567510   13.526526   -4.685917
      5          6           0       -1.892294   14.032423   -6.975604
      6          6           0       -3.219603   14.643452   -7.341525
      7          6           0       -4.342925   13.819983   -7.499948
      8          6           0       -3.381716   16.033419   -7.442817
      9          6           0       -5.600286   14.368672   -7.759019
     10          6           0       -4.638839   16.584386   -7.710650
     11          6           0       -5.752498   15.752677   -7.870045
     12          1           0       -0.341407   15.586907   -5.096296
     13          1           0       -2.586656   13.799784   -4.947503
     14          1           0       -1.865174   12.991755   -7.312712
     15          1           0       -1.062210   14.559568   -7.460489
     16          1           0       -4.222040   12.743893   -7.397671
     17          1           0       -2.525159   16.675878   -7.270380
     18          1           0       -6.464299   13.716172   -7.860552
     19          1           0       -4.754064   17.663841   -7.762066
     20          1           0       -6.733520   16.183148   -8.052346
     21          1           0       -1.603478   15.632072   -4.084181
     22          7           0       -0.889679   11.817131   -5.083460
     23          6           0        0.124607   10.763191   -4.927215
     24          6           0       -0.399484    9.565279   -5.711334
     25          8           0        0.125343    9.151390   -6.733299
     26          6           0        0.420502   10.466741   -3.448641
     27          6           0        1.364857    9.275399   -3.214292
     28          6           0        2.692658    9.428263   -3.969388
     29          6           0        1.605480    9.094312   -1.710864
     30          1           0       -1.732044   11.566480   -5.595823
     31          1           0        1.040304   11.087500   -5.424912
     32          1           0        0.853475   11.378885   -3.022477
     33          1           0       -0.527429   10.294989   -2.920073
     34          1           0        0.864376    8.369369   -3.587964
     35          1           0        2.550830    9.409022   -5.054797
     36          1           0        3.185707   10.372072   -3.704859
     37          1           0        3.376008    8.611443   -3.713173
     38          1           0        2.120990    9.967437   -1.292252
     39          1           0        0.662854    8.969222   -1.164686
     40          1           0        2.227895    8.214340   -1.515918
     41          7           0       -1.568068    9.014940   -5.212473
     42          6           0       -2.413401    8.304517   -6.148326
     43          6           0       -2.938523    9.306674   -7.206943
     44          8           0       -2.886838   10.531825   -7.033991
     45          6           0       -3.518135    7.529711   -5.416629
     46          6           0       -4.040303    6.341786   -6.226419
     47          7           0       -4.807157    5.468442   -5.534315
     48          8           0       -3.797209    6.186641   -7.423870
     49          1           0       -2.041332    9.557002   -4.499118
     50          1           0       -1.773775    7.596547   -6.678954
     51          1           0       -3.103690    7.162747   -4.470484
     52          1           0       -4.362071    8.183878   -5.160294
     53          1           0       -5.146345    4.643964   -6.011886
     54          1           0       -4.928971    5.526219   -4.534080
     55          7           0       -3.368451    8.759489   -8.359513
     56          6           0       -3.517056    9.554556   -9.566509
     57          6           0       -2.315237   10.509367   -9.692878
     58          8           0       -2.373149   11.692106  -10.001268
     59          6           0       -4.861112   10.291164   -9.678722
     60          6           0       -5.209729   10.695205  -11.133298
     61          6           0       -5.719503   12.131177  -11.263040
     62          7           0       -4.635383   13.039312  -10.895059
     63          6           0       -4.707040   14.358807  -10.854991
     64          7           0       -5.840883   15.001451  -11.183148
     65          7           0       -3.603601   15.085151  -10.571136
     66          8           0       -1.173781    9.870966   -9.474684
     67          1           0       -0.432693   10.505895   -9.478481
     68          1           0       -3.401548    7.738862   -8.397851
     69          1           0       -3.427705    8.848136  -10.401079
     70          1           0       -4.833957   11.161764   -9.016896
     71          1           0       -5.631256    9.623248   -9.284144
     72          1           0       -4.333661   10.592313  -11.785378
     73          1           0       -5.971442   10.023586  -11.539716
     74          1           0       -6.041630   12.336699  -12.290553
     75          1           0       -6.579440   12.285185  -10.594623
     76          1           0       -3.783985   12.596517  -10.525033
     77          1           0       -5.877274   16.008190  -11.117290
     78          1           0       -6.723247   14.512689  -11.175373
     79          1           0       -3.743393   15.914301   -9.999861
     80          1           0       -2.790495   14.554479  -10.281633
 ---------------------------------------------------------------------
 Rotational constants (GHZ):           0.1128647           0.0693995           0.0499098
 Standard basis: 6-31G(d) (6D, 7F)
   667 basis functions,  1256 primitive gaussians,   667 cartesian basis functions
   147 alpha electrons      147 beta electrons
       nuclear repulsion energy      4930.9048308909 Hartrees.
 NAtoms=   80 NActive=   80 NUniq=   80 SFac= 1.00D+00 NAtFMM=   60 NAOKFM=T Big=T
 Integral buffers will be    131072 words long.
 Raffenetti 2 integral format.
 Two-electron integral symmetry is turned off.
 Nuclear repulsion after empirical dispersion term =     4930.7226105204 Hartrees.
 One-electron integrals computed using PRISM.
 NBasis=   667 RedAO= T EigKep=  4.50D-04  NBF=   667
 NBsUse=   667 1.00D-06 EigRej= -1.00D+00 NBFU=   667
 Initial guess from the checkpoint file:  "conf-950.chk"
 B after Tr=     0.000000    0.000000    0.000000
         Rot=    1.000000    0.000000    0.000000    0.000000 Ang=   0.00 deg.
 Requested convergence on RMS density matrix=1.00D-08 within 128 cycles.
 Requested convergence on MAX density matrix=1.00D-06.
 Requested convergence on             energy=1.00D-06.
 No special actions if energy rises.
 SCF Done:  E(RB3LYP) =  -1866.80256475     A.U. after    3 cycles
            NFock=  3  Conv=0.85D-09     -V/T= 2.0094

 **********************************************************************

            Population analysis using the SCF Density.

 **********************************************************************

 Alpha  occ. eigenvalues --  -19.30840 -19.26731 -19.23123 -19.22443 -19.20347
 Alpha  occ. eigenvalues --  -19.18698 -14.51070 -14.49790 -14.49259 -14.46069
 Alpha  occ. eigenvalues --  -14.46053 -14.44692 -14.42853 -14.38311 -10.46475
 Alpha  occ. eigenvalues --  -10.44567 -10.40078 -10.39323 -10.36966 -10.35867
 Alpha  occ. eigenvalues --  -10.35736 -10.35197 -10.33373 -10.31376 -10.30982
 Alpha  occ. eigenvalues --  -10.30457 -10.29974 -10.29902 -10.28858 -10.28798
 Alpha  occ. eigenvalues --  -10.28778 -10.28618 -10.28213 -10.27917 -10.27279
 Alpha  occ. eigenvalues --  -10.24835 -10.24794 -10.22679 -10.22386  -1.22649
 Alpha  occ. eigenvalues --   -1.15476  -1.14800  -1.14014  -1.13614  -1.12180
 Alpha  occ. eigenvalues --   -1.10444  -1.04931  -1.03529  -1.03437  -1.01861
 Alpha  occ. eigenvalues --   -1.00944  -0.99332  -0.96358  -0.94641  -0.92330
 Alpha  occ. eigenvalues --   -0.89082  -0.87411  -0.86644  -0.86542  -0.83892
 Alpha  occ. eigenvalues --   -0.82164  -0.81005  -0.79401  -0.77839  -0.77470
 Alpha  occ. eigenvalues --   -0.74532  -0.73619  -0.73259  -0.72773  -0.72050
 Alpha  occ. eigenvalues --   -0.70591  -0.69892  -0.69439  -0.68426  -0.67628
 Alpha  occ. eigenvalues --   -0.67397  -0.66738  -0.65466  -0.64574  -0.64282
 Alpha  occ. eigenvalues --   -0.63678  -0.62934  -0.62285  -0.62014  -0.61381
 Alpha  occ. eigenvalues --   -0.60791  -0.60033  -0.59697  -0.59123  -0.58576
 Alpha  occ. eigenvalues --   -0.57723  -0.57488  -0.56022  -0.55715  -0.55506
 Alpha  occ. eigenvalues --   -0.55035  -0.54744  -0.54503  -0.53901  -0.53592
 Alpha  occ. eigenvalues --   -0.52960  -0.52866  -0.52265  -0.51853  -0.51293
 Alpha  occ. eigenvalues --   -0.51096  -0.50598  -0.50490  -0.50270  -0.49818
 Alpha  occ. eigenvalues --   -0.49639  -0.48478  -0.48247  -0.48033  -0.47596
 Alpha  occ. eigenvalues --   -0.47070  -0.46762  -0.46251  -0.46168  -0.46006
 Alpha  occ. eigenvalues --   -0.45704  -0.45160  -0.44824  -0.44019  -0.43481
 Alpha  occ. eigenvalues --   -0.43245  -0.42940  -0.42785  -0.42643  -0.42033
 Alpha  occ. eigenvalues --   -0.41442  -0.40838  -0.39646  -0.38924  -0.38476
 Alpha  occ. eigenvalues --   -0.38064  -0.37629  -0.37116  -0.36418  -0.36193
 Alpha  occ. eigenvalues --   -0.35190  -0.34888  -0.34115  -0.33892  -0.32690
 Alpha  occ. eigenvalues --   -0.31879  -0.30762
 Alpha virt. eigenvalues --   -0.11737  -0.11247  -0.10225  -0.09890  -0.08912
 Alpha virt. eigenvalues --   -0.07947  -0.06861  -0.06611  -0.04312  -0.03211
 Alpha virt. eigenvalues --   -0.02430  -0.01824  -0.01658  -0.01255  -0.00935
 Alpha virt. eigenvalues --   -0.00424   0.00584   0.01141   0.01484   0.01927
 Alpha virt. eigenvalues --    0.02306   0.02572   0.03375   0.04039   0.04491
 Alpha virt. eigenvalues --    0.04553   0.04886   0.04963   0.05090   0.05749
 Alpha virt. eigenvalues --    0.06178   0.06601   0.07163   0.07383   0.07459
 Alpha virt. eigenvalues --    0.08141   0.08391   0.08755   0.09086   0.09533
 Alpha virt. eigenvalues --    0.09878   0.09989   0.10207   0.10722   0.11160
 Alpha virt. eigenvalues --    0.11466   0.11783   0.11837   0.11984   0.12421
 Alpha virt. eigenvalues --    0.12641   0.13034   0.13832   0.13918   0.14040
 Alpha virt. eigenvalues --    0.14479   0.15046   0.15559   0.15935   0.16152
 Alpha virt. eigenvalues --    0.16811   0.17151   0.17496   0.18390   0.19058
 Alpha virt. eigenvalues --    0.19227   0.19404   0.20297   0.20701   0.21774
 Alpha virt. eigenvalues --    0.22047   0.22942   0.23185   0.23474   0.24111
 Alpha virt. eigenvalues --    0.24430   0.25225   0.25937   0.26316   0.26647
 Alpha virt. eigenvalues --    0.28644   0.29348   0.30617   0.31323   0.31881
 Alpha virt. eigenvalues --    0.33137   0.33354   0.34983   0.37390   0.38147
 Alpha virt. eigenvalues --    0.38675   0.39338   0.41055   0.41648   0.42031
 Alpha virt. eigenvalues --    0.42836   0.43182   0.43872   0.43961   0.44206
 Alpha virt. eigenvalues --    0.44538   0.45063   0.45242   0.45570   0.45907
 Alpha virt. eigenvalues --    0.46204   0.46491   0.46653   0.47472   0.47935
 Alpha virt. eigenvalues --    0.48296   0.49118   0.49292   0.49634   0.50023
 Alpha virt. eigenvalues --    0.50323   0.50776   0.50892   0.51280   0.51535
 Alpha virt. eigenvalues --    0.52122   0.52505   0.53222   0.53634   0.54347
 Alpha virt. eigenvalues --    0.54638   0.54767   0.54923   0.55566   0.56144
 Alpha virt. eigenvalues --    0.56436   0.56678   0.57300   0.57768   0.58202
 Alpha virt. eigenvalues --    0.58474   0.58654   0.59462   0.59637   0.60197
 Alpha virt. eigenvalues --    0.60371   0.60848   0.61878   0.62600   0.62845
 Alpha virt. eigenvalues --    0.63225   0.63627   0.64478   0.65338   0.65658
 Alpha virt. eigenvalues --    0.66077   0.66624   0.67225   0.67852   0.68424
 Alpha virt. eigenvalues --    0.68997   0.69387   0.70252   0.70550   0.70942
 Alpha virt. eigenvalues --    0.71353   0.71699   0.72063   0.72660   0.73495
 Alpha virt. eigenvalues --    0.73824   0.73903   0.74142   0.74605   0.74970
 Alpha virt. eigenvalues --    0.75231   0.75383   0.75464   0.76075   0.76289
 Alpha virt. eigenvalues --    0.76571   0.77134   0.77351   0.77630   0.77876
 Alpha virt. eigenvalues --    0.78556   0.78876   0.79064   0.79325   0.79488
 Alpha virt. eigenvalues --    0.79851   0.80332   0.80857   0.81329   0.82187
 Alpha virt. eigenvalues --    0.82767   0.82900   0.83267   0.83560   0.83910
 Alpha virt. eigenvalues --    0.84370   0.84741   0.84972   0.85327   0.85566
 Alpha virt. eigenvalues --    0.85759   0.86296   0.86728   0.86873   0.87444
 Alpha virt. eigenvalues --    0.87557   0.87729   0.88044   0.89086   0.89918
 Alpha virt. eigenvalues --    0.90213   0.90297   0.90878   0.91043   0.91394
 Alpha virt. eigenvalues --    0.92157   0.93300   0.94084   0.94584   0.94702
 Alpha virt. eigenvalues --    0.95265   0.95575   0.96066   0.96746   0.97550
 Alpha virt. eigenvalues --    0.98089   0.99083   0.99386   1.00066   1.00271
 Alpha virt. eigenvalues --    1.01626   1.02249   1.02815   1.03699   1.04079
 Alpha virt. eigenvalues --    1.04691   1.05240   1.07398   1.07649   1.08650
 Alpha virt. eigenvalues --    1.09519   1.10180   1.11536   1.12561   1.13236
 Alpha virt. eigenvalues --    1.13965   1.15412   1.16019   1.16798   1.17470
 Alpha virt. eigenvalues --    1.18158   1.18366   1.19232   1.19772   1.20125
 Alpha virt. eigenvalues --    1.21250   1.22064   1.22317   1.23146   1.24383
 Alpha virt. eigenvalues --    1.24839   1.25614   1.26123   1.28142   1.29161
 Alpha virt. eigenvalues --    1.29893   1.30971   1.31113   1.31615   1.32534
 Alpha virt. eigenvalues --    1.33444   1.34538   1.35255   1.35405   1.36278
 Alpha virt. eigenvalues --    1.37352   1.37873   1.38715   1.38893   1.39644
 Alpha virt. eigenvalues --    1.40395   1.40644   1.41360   1.42032   1.42723
 Alpha virt. eigenvalues --    1.43217   1.44672   1.45002   1.45536   1.46260
 Alpha virt. eigenvalues --    1.47582   1.48991   1.49482   1.51276   1.52935
 Alpha virt. eigenvalues --    1.54038   1.54739   1.55130   1.56562   1.56982
 Alpha virt. eigenvalues --    1.57386   1.58901   1.59300   1.60509   1.61409
 Alpha virt. eigenvalues --    1.61781   1.62937   1.63273   1.64301   1.65237
 Alpha virt. eigenvalues --    1.66393   1.66861   1.67626   1.68005   1.68412
 Alpha virt. eigenvalues --    1.69678   1.69693   1.70380   1.70856   1.71404
 Alpha virt. eigenvalues --    1.72027   1.72636   1.73227   1.73575   1.74059
 Alpha virt. eigenvalues --    1.74277   1.74971   1.75351   1.76036   1.76310
 Alpha virt. eigenvalues --    1.77344   1.77828   1.77966   1.78439   1.79485
 Alpha virt. eigenvalues --    1.79867   1.81284   1.81783   1.82352   1.83036
 Alpha virt. eigenvalues --    1.83255   1.84115   1.84364   1.85120   1.85324
 Alpha virt. eigenvalues --    1.85905   1.86346   1.87173   1.87483   1.88132
 Alpha virt. eigenvalues --    1.88724   1.88864   1.89304   1.90027   1.90930
 Alpha virt. eigenvalues --    1.90956   1.91569   1.92093   1.92735   1.93588
 Alpha virt. eigenvalues --    1.93837   1.94246   1.94743   1.95078   1.96361
 Alpha virt. eigenvalues --    1.96882   1.97320   1.97866   1.98904   1.99218
 Alpha virt. eigenvalues --    2.00173   2.01030   2.01677   2.02207   2.03286
 Alpha virt. eigenvalues --    2.04709   2.05238   2.05798   2.06451   2.06970
 Alpha virt. eigenvalues --    2.07409   2.07677   2.09029   2.10435   2.10581
 Alpha virt. eigenvalues --    2.10953   2.11919   2.12370   2.13727   2.14224
 Alpha virt. eigenvalues --    2.14933   2.16474   2.16913   2.18481   2.18549
 Alpha virt. eigenvalues --    2.19203   2.20223   2.20616   2.21851   2.22402
 Alpha virt. eigenvalues --    2.23564   2.24024   2.25090   2.25379   2.26433
 Alpha virt. eigenvalues --    2.27421   2.27586   2.28329   2.30080   2.30833
 Alpha virt. eigenvalues --    2.31730   2.32418   2.32809   2.34027   2.34607
 Alpha virt. eigenvalues --    2.35320   2.36127   2.36720   2.38140   2.39540
 Alpha virt. eigenvalues --    2.39892   2.40683   2.41017   2.41663   2.43421
 Alpha virt. eigenvalues --    2.44295   2.44811   2.45606   2.46170   2.47722
 Alpha virt. eigenvalues --    2.48522   2.49056   2.49560   2.50392   2.51452
 Alpha virt. eigenvalues --    2.52172   2.52220   2.52750   2.53993   2.55350
 Alpha virt. eigenvalues --    2.56168   2.56528   2.57448   2.58364   2.59271
 Alpha virt. eigenvalues --    2.59403   2.60901   2.62991   2.63965   2.64120
 Alpha virt. eigenvalues --    2.65167   2.65709   2.66312   2.67094   2.67762
 Alpha virt. eigenvalues --    2.68532   2.68742   2.73037   2.74898   2.75683
 Alpha virt. eigenvalues --    2.76748   2.79864   2.81549   2.84538   2.85451
 Alpha virt. eigenvalues --    2.86803   2.88288   2.88440   2.91731   2.92896
 Alpha virt. eigenvalues --    2.93759   2.95830   2.96580   2.99000   3.00046
 Alpha virt. eigenvalues --    3.00774   3.01073   3.06512   3.08993   3.10524
 Alpha virt. eigenvalues --    3.31428   3.68670   3.71207   3.75791   3.77350
 Alpha virt. eigenvalues --    3.80798   3.88240   3.95265   3.96404   3.97618
 Alpha virt. eigenvalues --    3.99654   4.01443   4.04162   4.06741   4.09068
 Alpha virt. eigenvalues --    4.10551   4.11955   4.12349   4.13661   4.18062
 Alpha virt. eigenvalues --    4.21807   4.23291   4.24014   4.24300   4.25245
 Alpha virt. eigenvalues --    4.27681   4.34623   4.35560   4.36184   4.37608
 Alpha virt. eigenvalues --    4.40718   4.44215   4.45241   4.49810   4.51857
 Alpha virt. eigenvalues --    4.55025   4.56999   4.59367   4.63954   4.64465
          Condensed to atoms (all electrons):
 Mulliken charges:
               1
     1  N   -0.709125
     2  C   -0.084107
     3  C    0.591180
     4  O   -0.513639
     5  C   -0.361302
     6  C    0.141469
     7  C   -0.210820
     8  C   -0.175361
     9  C   -0.154670
    10  C   -0.173064
    11  C   -0.145600
    12  H    0.324040
    13  H    0.153032
    14  H    0.166423
    15  H    0.152782
    16  H    0.171269
    17  H    0.170220
    18  H    0.128619
    19  H    0.154305
    20  H    0.139345
    21  H    0.312896
    22  N   -0.664505
    23  C   -0.035476
    24  C    0.582637
    25  O   -0.510759
    26  C   -0.259805
    27  C   -0.082183
    28  C   -0.459810
    29  C   -0.443517
    30  H    0.367434
    31  H    0.191770
    32  H    0.176407
    33  H    0.116138
    34  H    0.127902
    35  H    0.159162
    36  H    0.152116
    37  H    0.151101
    38  H    0.151015
    39  H    0.136035
    40  H    0.151199
    41  N   -0.597708
    42  C   -0.051230
    43  C    0.621487
    44  O   -0.557214
    45  C   -0.410856
    46  C    0.630592
    47  N   -0.738603
    48  O   -0.525068
    49  H    0.332680
    50  H    0.223691
    51  H    0.196618
    52  H    0.189509
    53  H    0.364948
    54  H    0.356240
    55  N   -0.610976
    56  C   -0.029877
    57  C    0.626188
    58  O   -0.522037
    59  C   -0.293643
    60  C   -0.320298
    61  C   -0.151663
    62  N   -0.629062
    63  C    0.779683
    64  N   -0.742201
    65  N   -0.739234
    66  O   -0.518260
    67  H    0.439105
    68  H    0.397597
    69  H    0.196963
    70  H    0.181312
    71  H    0.174878
    72  H    0.172755
    73  H    0.183035
    74  H    0.189171
    75  H    0.166654
    76  H    0.432270
    77  H    0.377916
    78  H    0.377052
    79  H    0.367541
    80  H    0.375293
 Sum of Mulliken charges =   1.00000
 Mulliken charges with hydrogens summed into heavy atoms:
               1
     1  N   -0.072189
     2  C    0.068925
     3  C    0.591180
     4  O   -0.513639
     5  C   -0.042097
     6  C    0.141469
     7  C   -0.039551
     8  C   -0.005141
     9  C   -0.026051
    10  C   -0.018759
    11  C   -0.006255
    22  N   -0.297072
    23  C    0.156294
    24  C    0.582637
    25  O   -0.510759
    26  C    0.032740
    27  C    0.045719
    28  C    0.002569
    29  C   -0.005268
    41  N   -0.265028
    42  C    0.172462
    43  C    0.621487
    44  O   -0.557214
    45  C   -0.024730
    46  C    0.630592
    47  N   -0.017415
    48  O   -0.525068
    55  N   -0.213379
    56  C    0.167085
    57  C    0.626188
    58  O   -0.522037
    59  C    0.062546
    60  C    0.035492
    61  C    0.204163
    62  N   -0.196791
    63  C    0.779683
    64  N    0.012767
    65  N    0.003601
    66  O   -0.079155
 Electronic spatial extent (au):  <R**2>=         218123.0830
 Charge=              1.0000 electrons
 Dipole moment (field-independent basis, Debye):
    X=            -25.6682    Y=             55.5433    Z=            -41.7687  Tot=             74.0847
 Quadrupole moment (field-independent basis, Debye-Ang):
   XX=            -89.9022   YY=            491.8574   ZZ=            186.2035
   XY=           -301.7270   XZ=            229.6815   YZ=           -530.4895
 Traceless Quadrupole moment (field-independent basis, Debye-Ang):
   XX=           -285.9551   YY=            295.8045   ZZ=             -9.8494
   XY=           -301.7270   XZ=            229.6815   YZ=           -530.4895
 Octapole moment (field-independent basis, Debye-Ang**2):
  XXX=            930.9381  YYY=           2249.0274  ZZZ=            550.4054  XYY=          -3403.8673
  XXY=           -943.7919  XXZ=            325.0754  XZZ=          -1689.6075  YZZ=           2866.0190
  YYZ=          -5592.4184  XYZ=           2917.2786
 Hexadecapole moment (field-independent basis, Debye-Ang**3):
 XXXX=         -11506.5566 YYYY=         -42303.1498 ZZZZ=         -32678.2251 XXXY=          10889.5380
 XXXZ=          -7510.8855 YYYX=         -35363.0475 YYYZ=         -45835.5610 ZZZX=           8155.9431
 ZZZY=           -389.4356 XXYY=         -12160.6673 XXZZ=          -2575.2793 YYZZ=          30671.3082
 XXYZ=           2207.9754 YYXZ=          34813.6235 ZZXY=         -22954.7839
 N-N= 4.930722610520D+03 E-N=-1.418096254018D+04  KE= 1.849442723916D+03
 Unable to Open any file for archive entry.
 1\1\GINC-NVL-000\SP\RB3LYP\6-31G(d)\C25H41N8O6(1+)\KENGMITH\16-Jul-202
 2\0\\# B3LYP/6-31G* empiricaldispersion=gd3bj guess=read geom=check no
 symm integral(ultrafinegrid)\\Candidate Structure: Conf:950 Charge cal
 c in gas phase\\1,1\N,0,-1.3581859702,15.4865700272,-5.0615885697\C,0,
 -1.6586258752,14.1128062529,-5.4403217137\C,0,-0.5416201864,13.1336351
 439,-5.0286431235\O,0,0.5675102946,13.5265261135,-4.6859172337\C,0,-1.
 8922936393,14.0324226719,-6.9756040031\C,0,-3.2196031351,14.6434516378
 ,-7.3415245182\C,0,-4.3429253336,13.8199825509,-7.4999475357\C,0,-3.38
 17160396,16.0334190778,-7.4428174782\C,0,-5.6002857897,14.3686718167,-
 7.7590193125\C,0,-4.6388389683,16.584386057,-7.7106496525\C,0,-5.75249
 80401,15.7526766219,-7.870044737\H,0,-0.3414065929,15.5869068119,-5.09
 62957352\H,0,-2.5866561455,13.7997837123,-4.9475026637\H,0,-1.86517382
 11,12.9917548358,-7.3127120773\H,0,-1.0622097903,14.5595684382,-7.4604
 890146\H,0,-4.2220400341,12.7438934529,-7.397671078\H,0,-2.5251587341,
 16.6758784528,-7.2703796214\H,0,-6.4642989642,13.7161720102,-7.8605523
 142\H,0,-4.754064187,17.6638412879,-7.7620656693\H,0,-6.7335204751,16.
 1831477039,-8.0523464629\H,0,-1.6034778529,15.6320715991,-4.0841808193
 \N,0,-0.8896792609,11.8171308335,-5.0834595601\C,0,0.1246072588,10.763
 1914437,-4.9272149967\C,0,-0.399483798,9.5652792305,-5.7113339066\O,0,
 0.1253430082,9.1513897734,-6.7332992818\C,0,0.4205016525,10.4667409713
 ,-3.4486407825\C,0,1.3648574198,9.2753991626,-3.2142922646\C,0,2.69265
 77183,9.4282626634,-3.9693882209\C,0,1.6054796857,9.0943120786,-1.7108
 635934\H,0,-1.7320435624,11.5664804863,-5.5958229193\H,0,1.0403040769,
 11.0874998484,-5.4249115124\H,0,0.8534753991,11.3788845167,-3.02247691
 37\H,0,-0.527428794,10.2949893455,-2.9200732001\H,0,0.8643763607,8.369
 3692539,-3.5879639715\H,0,2.5508298466,9.4090216248,-5.0547967432\H,0,
 3.1857066381,10.3720717316,-3.7048586377\H,0,3.3760083202,8.6114426412
 ,-3.7131730378\H,0,2.1209896614,9.967437066,-1.2922524243\H,0,0.662854
 4941,8.9692223531,-1.1646858406\H,0,2.2278945055,8.214339728,-1.515917
 7655\N,0,-1.568067592,9.0149395153,-5.2124733948\C,0,-2.413400943,8.30
 45170074,-6.1483264551\C,0,-2.9385230786,9.3066742687,-7.2069429323\O,
 0,-2.886837941,10.5318251314,-7.0339912206\C,0,-3.5181352978,7.5297111
 171,-5.4166294425\C,0,-4.0403031434,6.3417862064,-6.2264193195\N,0,-4.
 8071565586,5.4684415587,-5.5343145701\O,0,-3.7972089911,6.186641195,-7
 .4238702454\H,0,-2.0413319551,9.5570024166,-4.4991180044\H,0,-1.773774
 7413,7.596547262,-6.6789543506\H,0,-3.1036904898,7.1627465627,-4.47048
 44392\H,0,-4.3620710053,8.1838775575,-5.1602941273\H,0,-5.1463451002,4
 .6439637714,-6.0118861063\H,0,-4.9289710728,5.5262187025,-4.5340804784
 \N,0,-3.3684508178,8.7594893167,-8.3595131844\C,0,-3.5170557029,9.5545
 556039,-9.5665085655\C,0,-2.3152369275,10.5093674988,-9.6928776074\O,0
 ,-2.3731485699,11.69210641,-10.0012683961\C,0,-4.861112249,10.29116398
 96,-9.6787215129\C,0,-5.2097286545,10.6952045764,-11.1332976807\C,0,-5
 .7195028929,12.1311765954,-11.2630396651\N,0,-4.6353829781,13.03931182
 15,-10.8950589902\C,0,-4.7070402933,14.3588073836,-10.854991123\N,0,-5
 .8408826406,15.0014514554,-11.1831479877\N,0,-3.6036012018,15.08515132
 29,-10.5711363709\O,0,-1.1737808016,9.8709659455,-9.4746837248\H,0,-0.
 432692604,10.5058952171,-9.4784807394\H,0,-3.4015477803,7.7388615784,-
 8.3978514524\H,0,-3.4277050005,8.8481363808,-10.4010793276\H,0,-4.8339
 567924,11.161764229,-9.0168962919\H,0,-5.6312556257,9.623248379,-9.284
 1444381\H,0,-4.333661379,10.5923133107,-11.7853780433\H,0,-5.971441730
 6,10.0235861193,-11.5397157665\H,0,-6.0416298192,12.3366989581,-12.290
 5531667\H,0,-6.5794396901,12.2851854243,-10.5946227182\H,0,-3.78398534
 63,12.5965170778,-10.5250334732\H,0,-5.8772737776,16.0081898886,-11.11
 72904884\H,0,-6.7232468975,14.5126888109,-11.1753727173\H,0,-3.7433934
 186,15.9143010572,-9.9998614891\H,0,-2.7904947289,14.5544793573,-10.28
 16332163\\Version=ES64L-G16RevC.01\HF=-1866.8025648\RMSD=8.518e-10\Dip
 ole=-5.3068876,0.3855476,-2.8716357\Quadrupole=-212.6005944,219.923386
 3,-7.3227919,-224.3266345,170.7625441,-394.4059469\PG=C01 [X(C25H41N8O
 6)]\\@
 The archive entry for this job was punched.


 Mondays are the potholes in the road of life.
                                -- Tom Wilson
 Job cpu time:       0 days  0 hours  5 minutes 11.5 seconds.
 Elapsed time:       0 days  0 hours  1 minutes 23.4 seconds.
 File lengths (MBytes):  RWF=    344 Int=      0 D2E=      0 Chk=     48 Scr=     16
 Normal termination of Gaussian 16 at Sat Jul 16 16:55:00 2022.
