 Entering Gaussian System, Link 0=/opt/software/Gaussian/g16-AVX2-C.01/g16/g16
 Input=charge-conf-123.com
 Output=charge-conf-123.log
 Initial command:
 /opt/software/Gaussian/g16-AVX2-C.01/g16/l1.exe "/mnt/gs21/scratch/kengmith/Gau-18157.inp" -scrdir="/mnt/gs21/scratch/kengmith/"
 Entering Link 1 = /opt/software/Gaussian/g16-AVX2-C.01/g16/l1.exe PID=     18167.
  
 Copyright (c) 1988-2019, Gaussian, Inc.  All Rights Reserved.
  
 This is part of the Gaussian(R) 16 program.  It is based on
 the Gaussian(R) 09 system (copyright 2009, Gaussian, Inc.),
 the Gaussian(R) 03 system (copyright 2003, Gaussian, Inc.),
 the Gaussian(R) 98 system (copyright 1998, Gaussian, Inc.),
 the Gaussian(R) 94 system (copyright 1995, Gaussian, Inc.),
 the Gaussian 92(TM) system (copyright 1992, Gaussian, Inc.),
 the Gaussian 90(TM) system (copyright 1990, Gaussian, Inc.),
 the Gaussian 88(TM) system (copyright 1988, Gaussian, Inc.),
 the Gaussian 86(TM) system (copyright 1986, Carnegie Mellon
 University), and the Gaussian 82(TM) system (copyright 1983,
 Carnegie Mellon University). Gaussian is a federally registered
 trademark of Gaussian, Inc.
  
 This software contains proprietary and confidential information,
 including trade secrets, belonging to Gaussian, Inc.
  
 This software is provided under written license and may be
 used, copied, transmitted, or stored only in accord with that
 written license.
  
 The following legend is applicable only to US Government
 contracts under FAR:
  
                    RESTRICTED RIGHTS LEGEND
  
 Use, reproduction and disclosure by the US Government is
 subject to restrictions as set forth in subparagraphs (a)
 and (c) of the Commercial Computer Software - Restricted
 Rights clause in FAR 52.227-19.
  
 Gaussian, Inc.
 340 Quinnipiac St., Bldg. 40, Wallingford CT 06492
  
  
 ---------------------------------------------------------------
 Warning -- This program may not be used in any manner that
 competes with the business of Gaussian, Inc. or will provide
 assistance to any competitor of Gaussian, Inc.  The licensee
 of this program is prohibited from giving any competitor of
 Gaussian, Inc. access to this program.  By using this program,
 the user acknowledges that Gaussian, Inc. is engaged in the
 business of creating and licensing software in the field of
 computational chemistry and represents and warrants to the
 licensee that it is not a competitor of Gaussian, Inc. and that
 it will not use this program in any manner prohibited above.
 ---------------------------------------------------------------
  

 Cite this work as:
 Gaussian 16, Revision C.01,
 M. J. Frisch, G. W. Trucks, H. B. Schlegel, G. E. Scuseria, 
 M. A. Robb, J. R. Cheeseman, G. Scalmani, V. Barone, 
 G. A. Petersson, H. Nakatsuji, X. Li, M. Caricato, A. V. Marenich, 
 J. Bloino, B. G. Janesko, R. Gomperts, B. Mennucci, H. P. Hratchian, 
 J. V. Ortiz, A. F. Izmaylov, J. L. Sonnenberg, D. Williams-Young, 
 F. Ding, F. Lipparini, F. Egidi, J. Goings, B. Peng, A. Petrone, 
 T. Henderson, D. Ranasinghe, V. G. Zakrzewski, J. Gao, N. Rega, 
 G. Zheng, W. Liang, M. Hada, M. Ehara, K. Toyota, R. Fukuda, 
 J. Hasegawa, M. Ishida, T. Nakajima, Y. Honda, O. Kitao, H. Nakai, 
 T. Vreven, K. Throssell, J. A. Montgomery, Jr., J. E. Peralta, 
 F. Ogliaro, M. J. Bearpark, J. J. Heyd, E. N. Brothers, K. N. Kudin, 
 V. N. Staroverov, T. A. Keith, R. Kobayashi, J. Normand, 
 K. Raghavachari, A. P. Rendell, J. C. Burant, S. S. Iyengar, 
 J. Tomasi, M. Cossi, J. M. Millam, M. Klene, C. Adamo, R. Cammi, 
 J. W. Ochterski, R. L. Martin, K. Morokuma, O. Farkas, 
 J. B. Foresman, and D. J. Fox, Gaussian, Inc., Wallingford CT, 2019.
 
 ******************************************
 Gaussian 16:  ES64L-G16RevC.01  3-Jul-2019
                18-Oct-2022 
 ******************************************
 %mem=8gb
 %nproc=4
 Will use up to    4 processors via shared memory.
 %chk=conf-123.chk
 ----------------------------------------------------------------------
 # B3LYP/6-31G* empiricaldispersion=gd3bj guess=read geom=check nosymm 
 integral(ultrafinegrid)
 ----------------------------------------------------------------------
 1/29=2,38=1,172=1/1;
 2/12=2,15=1,40=1/2;
 3/5=1,6=6,7=1,11=2,14=-4,25=1,30=1,74=-5,75=-5,116=-2,124=41/1,2,3;
 4/5=1/1;
 5/5=2,38=6/2;
 6/7=2,8=2,9=2,10=2,28=1/1;
 99/5=1,9=1/99;
 ------------------------------------------------------
 Candidate Structure: Conf:123 Charge calc in gas phase
 ------------------------------------------------------
 Structure from the checkpoint file:  "conf-123.chk"
 Charge =  1 Multiplicity = 1
 Redundant internal coordinates found in file.  (old form).
 N,0,-4.3080805597,0.2896293788,4.0013452195
 H,0,-4.5105550782,0.7015923768,4.9096442878
 H,0,-5.1973755498,0.0926473204,3.5481306315
 C,0,-3.51943465,1.2251444698,3.2189255349
 H,0,-4.0160027533,2.1996091364,3.0456667788
 C,0,-3.1734546949,0.610557753,1.863279004
 C,0,-2.1798451276,1.5075006048,3.9488868878
 H,0,-1.5593871573,2.1443781909,3.3060573818
 H,0,-1.6726044949,0.5446755533,4.0650262263
 O,0,-2.782297059,-0.5505705199,1.7334519108
 C,0,-2.3920757203,2.1687608788,5.2881790412
 C,0,-2.5320149938,3.5592810874,5.3821267551
 H,0,-2.4383143684,4.1677852378,4.4851114714
 C,0,-2.5040857444,1.4009571413,6.4548039434
 H,0,-2.3947129957,0.3215862989,6.3921625546
 C,0,-2.7778351738,4.1702647035,6.6107211597
 H,0,-2.8764761353,5.250598308,6.6674423922
 C,0,-2.7520895487,2.0096718447,7.6859828466
 H,0,-2.8322408415,1.4007601322,8.5819164372
 C,0,-2.8898414972,3.3955824877,7.7669430908
 H,0,-3.0779824462,3.8704948374,8.7253160084
 N,0,-3.2556100073,1.4651974979,0.8055758787
 H,0,-3.5033582099,2.4313071525,0.9715311649
 C,0,-2.8538698974,1.0792945655,-0.5475631746
 H,0,-3.1191945385,0.022647212,-0.6477428574
 C,0,-1.32047679,1.1895261201,-0.6765927784
 C,0,-3.5787033006,1.9168632115,-1.5971535413
 H,0,-3.2297643965,2.9544133605,-1.5244713796
 H,0,-3.2513688572,1.5652255945,-2.5838748053
 O,0,-0.7704064211,2.0523706528,-1.3706449774
 C,0,-5.1139543514,1.8645198692,-1.5177292827
 H,0,-5.4224430322,2.2791648022,-0.5474752868
 C,0,-5.7188636722,2.7470306553,-2.6162400985
 H,0,-5.4612737082,2.3608536239,-3.6111273794
 H,0,-6.8113248687,2.7742720179,-2.5434047784
 H,0,-5.3498664976,3.7772380756,-2.5516405982
 C,0,-5.6542528656,0.4318482113,-1.6045930164
 H,0,-5.3179044751,-0.0571739678,-2.5284743708
 H,0,-5.32881183,-0.183614249,-0.7593873428
 H,0,-6.7494980301,0.430528246,-1.6094988622
 N,0,-0.6493634769,0.2762095445,0.0609285453
 H,0,-1.2139461868,-0.351524197,0.6360034777
 C,0,0.7717168187,0.4144916575,0.3673700061
 H,0,1.0078851973,1.482164237,0.4383460378
 C,0,1.6795898781,-0.1448714241,-0.7394250905
 C,0,1.111853732,-0.2369621796,1.7009750175
 H,0,0.4087622889,0.1164021729,2.4647916968
 H,0,1.0201867026,-1.3250872421,1.6351402723
 O,0,2.5038388691,-1.0269540055,-0.542062848
 C,0,2.5216775344,0.1806986844,2.1241708261
 N,0,3.1980668795,-0.7361408481,2.8721743642
 H,0,4.1648064389,-0.525795366,3.0828202308
 H,0,2.9383869891,-1.7112628609,2.8405097515
 O,0,2.9687451602,1.2910048349,1.864715589
 N,0,1.5312658787,0.474066867,-1.9515855965
 H,0,0.9304601053,1.3005507492,-1.9537272757
 C,0,2.620820235,0.3845539455,-2.8933511917
 H,0,2.9012025951,-0.6689330941,-2.9911068784
 C,0,3.8955177024,1.0935557253,-2.4071676579
 C,0,2.1917993222,0.9346781729,-4.265270272
 H,0,2.0821636926,2.0263287654,-4.204553372
 H,0,1.190810258,0.5335846377,-4.4682723615
 O,0,4.9609670001,0.9876316589,-2.9562177948
 C,0,3.1718608789,0.5697373103,-5.3860353666
 H,0,4.1835120436,0.8685521749,-5.0991641088
 H,0,3.2080497882,-0.5204560867,-5.5189299722
 C,0,2.8470325221,1.2346385259,-6.7197034975
 H,0,2.8047625392,2.3229790877,-6.5978505354
 H,0,3.6169894834,0.9911260707,-7.4621209831
 N,0,1.5313236448,0.7853611199,-7.2178895967
 H,0,1.1752993539,-0.0854659642,-6.8437885096
 N,0,1.3500028781,2.3862689855,-8.8823763389
 H,0,0.7713206786,2.9944671416,-9.4438069893
 H,0,2.3386932717,2.5868451844,-8.8448918599
 N,0,-0.4469947714,1.0071276314,-8.4094624981
 H,0,-0.9175740411,1.2661380348,-9.2647761916
 H,0,-0.9409445421,0.3950383348,-7.7759427654
 C,0,0.8191546737,1.3862166873,-8.1661277438
 O,0,3.6793465712,1.8587716657,-1.3317681032
 H,0,4.5373690318,2.2158442662,-1.0341833329
 Recover connectivity data from disk.
                           ----------------------------
                           !    Current Parameters    !
                           ! (Angstroms and Degrees)  !
 --------------------------                            --------------------------
 ! Name  Definition              Value                                          !
 --------------------------------------------------------------------------------
 ! R1    R(1,2)                  1.0177                                         !
 ! R2    R(1,3)                  1.0174                                         !
 ! R3    R(1,4)                  1.4524                                         !
 ! R4    R(4,5)                  1.1073                                         !
 ! R5    R(4,6)                  1.5281                                         !
 ! R6    R(4,7)                  1.5515                                         !
 ! R7    R(6,10)                 1.2321                                         !
 ! R8    R(6,22)                 1.3623                                         !
 ! R9    R(7,8)                  1.0972                                         !
 ! R10   R(7,9)                  1.0944                                         !
 ! R11   R(7,11)                 1.5086                                         !
 ! R12   R(11,12)                1.4007                                         !
 ! R13   R(11,14)                1.4011                                         !
 ! R14   R(12,13)                1.088                                          !
 ! R15   R(12,16)                1.394                                          !
 ! R16   R(14,15)                1.0867                                         !
 ! R17   R(14,18)                1.3957                                         !
 ! R18   R(16,17)                1.0863                                         !
 ! R19   R(16,20)                1.3963                                         !
 ! R20   R(18,19)                1.0862                                         !
 ! R21   R(18,20)                1.3951                                         !
 ! R22   R(20,21)                1.086                                          !
 ! R23   R(22,23)                1.0111                                         !
 ! R24   R(22,24)                1.4633                                         !
 ! R25   R(24,25)                1.094                                          !
 ! R26   R(24,26)                1.5428                                         !
 ! R27   R(24,27)                1.526                                          !
 ! R28   R(26,30)                1.2364                                         !
 ! R29   R(26,41)                1.3522                                         !
 ! R30   R(27,28)                1.0971                                         !
 ! R31   R(27,29)                1.0975                                         !
 ! R32   R(27,31)                1.5382                                         !
 ! R33   R(31,32)                1.0993                                         !
 ! R34   R(31,33)                1.5334                                         !
 ! R35   R(31,37)                1.5336                                         !
 ! R36   R(33,34)                1.0979                                         !
 ! R37   R(33,35)                1.0952                                         !
 ! R38   R(33,36)                1.0962                                         !
 ! R39   R(37,38)                1.0981                                         !
 ! R40   R(37,39)                1.095                                          !
 ! R41   R(37,40)                1.0953                                         !
 ! R42   R(41,42)                1.0215                                         !
 ! R43   R(41,43)                1.4603                                         !
 ! R44   R(43,44)                1.0958                                         !
 ! R45   R(43,45)                1.5369                                         !
 ! R46   R(43,46)                1.5227                                         !
 ! R47   R(45,49)                1.2233                                         !
 ! R48   R(45,55)                1.3691                                         !
 ! R49   R(46,47)                1.0966                                         !
 ! R50   R(46,48)                1.094                                          !
 ! R51   R(46,50)                1.5301                                         !
 ! R52   R(50,51)                1.3629                                         !
 ! R53   R(50,54)                1.2247                                         !
 ! R54   R(51,52)                1.0115                                         !
 ! R55   R(51,53)                1.0096                                         !
 ! R56   R(55,56)                1.0218                                         !
 ! R57   R(55,57)                1.4429                                         !
 ! R58   R(57,58)                1.0945                                         !
 ! R59   R(57,59)                1.5375                                         !
 ! R60   R(57,60)                1.5391                                         !
 ! R61   R(59,63)                1.2033                                         !
 ! R62   R(59,79)                1.3374                                         !
 ! R63   R(60,61)                1.0988                                         !
 ! R64   R(60,62)                1.0973                                         !
 ! R65   R(60,64)                1.5329                                         !
 ! R66   R(64,65)                1.0932                                         !
 ! R67   R(64,66)                1.0989                                         !
 ! R68   R(64,67)                1.5252                                         !
 ! R69   R(67,68)                1.096                                          !
 ! R70   R(67,69)                1.097                                          !
 ! R71   R(67,70)                1.4769                                         !
 ! R72   R(70,71)                1.0124                                         !
 ! R73   R(70,78)                1.3294                                         !
 ! R74   R(72,73)                1.0099                                         !
 ! R75   R(72,74)                1.0095                                         !
 ! R76   R(72,78)                1.3397                                         !
 ! R77   R(75,76)                1.01                                           !
 ! R78   R(75,77)                1.0099                                         !
 ! R79   R(75,78)                1.3439                                         !
 ! R80   R(79,80)                0.9758                                         !
 ! A1    A(2,1,3)              107.5811                                         !
 ! A2    A(2,1,4)              109.1536                                         !
 ! A3    A(3,1,4)              111.0621                                         !
 ! A4    A(1,4,5)              114.0563                                         !
 ! A5    A(1,4,6)              109.9865                                         !
 ! A6    A(1,4,7)              109.4275                                         !
 ! A7    A(5,4,6)              108.4604                                         !
 ! A8    A(5,4,7)              107.497                                          !
 ! A9    A(6,4,7)              107.1633                                         !
 ! A10   A(4,6,10)             122.9815                                         !
 ! A11   A(4,6,22)             115.0119                                         !
 ! A12   A(10,6,22)            121.907                                          !
 ! A13   A(4,7,8)              108.5572                                         !
 ! A14   A(4,7,9)              106.8576                                         !
 ! A15   A(4,7,11)             112.0852                                         !
 ! A16   A(8,7,9)              108.1038                                         !
 ! A17   A(8,7,11)             110.1969                                         !
 ! A18   A(9,7,11)             110.8912                                         !
 ! A19   A(7,11,12)            120.579                                          !
 ! A20   A(7,11,14)            120.6791                                         !
 ! A21   A(12,11,14)           118.6974                                         !
 ! A22   A(11,12,13)           119.4281                                         !
 ! A23   A(11,12,16)           120.7871                                         !
 ! A24   A(13,12,16)           119.7825                                         !
 ! A25   A(11,14,15)           119.2262                                         !
 ! A26   A(11,14,18)           120.6451                                         !
 ! A27   A(15,14,18)           120.1286                                         !
 ! A28   A(12,16,17)           119.8627                                         !
 ! A29   A(12,16,20)           120.0534                                         !
 ! A30   A(17,16,20)           120.083                                          !
 ! A31   A(14,18,19)           119.7507                                         !
 ! A32   A(14,18,20)           120.1338                                         !
 ! A33   A(19,18,20)           120.1147                                         !
 ! A34   A(16,20,18)           119.683                                          !
 ! A35   A(16,20,21)           120.1347                                         !
 ! A36   A(18,20,21)           120.1815                                         !
 ! A37   A(6,22,23)            119.1293                                         !
 ! A38   A(6,22,24)            122.4081                                         !
 ! A39   A(23,22,24)           118.1016                                         !
 ! A40   A(22,24,25)           105.8307                                         !
 ! A41   A(22,24,26)           109.3519                                         !
 ! A42   A(22,24,27)           111.1541                                         !
 ! A43   A(25,24,26)           107.6015                                         !
 ! A44   A(25,24,27)           110.606                                          !
 ! A45   A(26,24,27)           112.0475                                         !
 ! A46   A(24,26,30)           122.615                                          !
 ! A47   A(24,26,41)           113.5419                                         !
 ! A48   A(30,26,41)           123.8281                                         !
 ! A49   A(24,27,28)           108.8113                                         !
 ! A50   A(24,27,29)           107.5102                                         !
 ! A51   A(24,27,31)           114.8283                                         !
 ! A52   A(28,27,29)           105.5291                                         !
 ! A53   A(28,27,31)           110.2562                                         !
 ! A54   A(29,27,31)           109.4641                                         !
 ! A55   A(27,31,32)           108.2293                                         !
 ! A56   A(27,31,33)           109.7032                                         !
 ! A57   A(27,31,37)           112.3641                                         !
 ! A58   A(32,31,33)           107.7277                                         !
 ! A59   A(32,31,37)           107.6669                                         !
 ! A60   A(33,31,37)           110.9819                                         !
 ! A61   A(31,33,34)           110.7434                                         !
 ! A62   A(31,33,35)           111.1097                                         !
 ! A63   A(31,33,36)           111.4604                                         !
 ! A64   A(34,33,35)           107.641                                          !
 ! A65   A(34,33,36)           107.7583                                         !
 ! A66   A(35,33,36)           107.9671                                         !
 ! A67   A(31,37,38)           110.8401                                         !
 ! A68   A(31,37,39)           112.1253                                         !
 ! A69   A(31,37,40)           110.7124                                         !
 ! A70   A(38,37,39)           107.9427                                         !
 ! A71   A(38,37,40)           107.5772                                         !
 ! A72   A(39,37,40)           107.4562                                         !
 ! A73   A(26,41,42)           116.6024                                         !
 ! A74   A(26,41,43)           122.2403                                         !
 ! A75   A(42,41,43)           118.548                                          !
 ! A76   A(41,43,44)           108.3966                                         !
 ! A77   A(41,43,45)           112.9084                                         !
 ! A78   A(41,43,46)           111.1404                                         !
 ! A79   A(44,43,45)           105.8993                                         !
 ! A80   A(44,43,46)           108.1788                                         !
 ! A81   A(45,43,46)           110.0629                                         !
 ! A82   A(43,45,49)           122.9751                                         !
 ! A83   A(43,45,55)           114.1459                                         !
 ! A84   A(49,45,55)           122.8082                                         !
 ! A85   A(43,46,47)           109.2046                                         !
 ! A86   A(43,46,48)           110.7397                                         !
 ! A87   A(43,46,50)           109.3463                                         !
 ! A88   A(47,46,48)           107.9808                                         !
 ! A89   A(47,46,50)           108.0679                                         !
 ! A90   A(48,46,50)           111.43                                           !
 ! A91   A(46,50,51)           115.1785                                         !
 ! A92   A(46,50,54)           121.6827                                         !
 ! A93   A(51,50,54)           123.0214                                         !
 ! A94   A(50,51,52)           116.6602                                         !
 ! A95   A(50,51,53)           120.322                                          !
 ! A96   A(52,51,53)           116.9489                                         !
 ! A97   A(45,55,56)           115.5454                                         !
 ! A98   A(45,55,57)           117.9052                                         !
 ! A99   A(56,55,57)           119.525                                          !
 ! A100  A(55,57,58)           108.1455                                         !
 ! A101  A(55,57,59)           113.0189                                         !
 ! A102  A(55,57,60)           110.4336                                         !
 ! A103  A(58,57,59)           105.0527                                         !
 ! A104  A(58,57,60)           109.6224                                         !
 ! A105  A(59,57,60)           110.3737                                         !
 ! A106  A(57,59,63)           123.314                                          !
 ! A107  A(57,59,79)           112.5876                                         !
 ! A108  A(63,59,79)           124.0819                                         !
 ! A109  A(57,60,61)           109.4908                                         !
 ! A110  A(57,60,62)           106.7703                                         !
 ! A111  A(57,60,64)           112.8552                                         !
 ! A112  A(61,60,62)           106.4003                                         !
 ! A113  A(61,60,64)           109.92                                           !
 ! A114  A(62,60,64)           111.1585                                         !
 ! A115  A(60,64,65)           109.556                                          !
 ! A116  A(60,64,66)           110.2228                                         !
 ! A117  A(60,64,67)           113.5386                                         !
 ! A118  A(65,64,66)           105.8101                                         !
 ! A119  A(65,64,67)           107.9022                                         !
 ! A120  A(66,64,67)           109.4975                                         !
 ! A121  A(64,67,68)           110.1149                                         !
 ! A122  A(64,67,69)           110.2148                                         !
 ! A123  A(64,67,70)           110.6145                                         !
 ! A124  A(68,67,69)           108.8304                                         !
 ! A125  A(68,67,70)           107.7727                                         !
 ! A126  A(69,67,70)           109.2371                                         !
 ! A127  A(67,70,71)           116.7624                                         !
 ! A128  A(67,70,78)           125.4755                                         !
 ! A129  A(71,70,78)           117.6407                                         !
 ! A130  A(73,72,74)           117.526                                          !
 ! A131  A(73,72,78)           121.3108                                         !
 ! A132  A(74,72,78)           121.0984                                         !
 ! A133  A(76,75,77)           117.3071                                         !
 ! A134  A(76,75,78)           121.3299                                         !
 ! A135  A(77,75,78)           121.2097                                         !
 ! A136  A(70,78,72)           120.4267                                         !
 ! A137  A(70,78,75)           120.422                                          !
 ! A138  A(72,78,75)           119.148                                          !
 ! A139  A(59,79,80)           108.2065                                         !
 ! D1    D(2,1,4,5)            -59.3655                                         !
 ! D2    D(2,1,4,6)            178.5378                                         !
 ! D3    D(2,1,4,7)             61.0706                                         !
 ! D4    D(3,1,4,5)             59.0856                                         !
 ! D5    D(3,1,4,6)            -63.0111                                         !
 ! D6    D(3,1,4,7)            179.5216                                         !
 ! D7    D(1,4,6,10)           -44.327                                          !
 ! D8    D(1,4,6,22)           139.2427                                         !
 ! D9    D(5,4,6,10)          -169.6863                                         !
 ! D10   D(5,4,6,22)            13.8834                                         !
 ! D11   D(7,4,6,10)            74.5385                                         !
 ! D12   D(7,4,6,22)          -101.8918                                         !
 ! D13   D(1,4,7,8)            175.0929                                         !
 ! D14   D(1,4,7,9)             58.7193                                         !
 ! D15   D(1,4,7,11)           -62.9532                                         !
 ! D16   D(5,4,7,8)            -60.5466                                         !
 ! D17   D(5,4,7,9)           -176.9203                                         !
 ! D18   D(5,4,7,11)            61.4073                                         !
 ! D19   D(6,4,7,8)             55.8669                                         !
 ! D20   D(6,4,7,9)            -60.5068                                         !
 ! D21   D(6,4,7,11)           177.8208                                         !
 ! D22   D(4,6,22,23)            1.8485                                         !
 ! D23   D(4,6,22,24)          174.8152                                         !
 ! D24   D(10,6,22,23)        -174.6242                                         !
 ! D25   D(10,6,22,24)          -1.6574                                         !
 ! D26   D(4,7,11,12)          -85.3042                                         !
 ! D27   D(4,7,11,14)           92.2409                                         !
 ! D28   D(8,7,11,12)           35.708                                          !
 ! D29   D(8,7,11,14)         -146.747                                          !
 ! D30   D(9,7,11,12)          155.365                                          !
 ! D31   D(9,7,11,14)          -27.09                                           !
 ! D32   D(7,11,12,13)          -2.9552                                         !
 ! D33   D(7,11,12,16)         177.5979                                         !
 ! D34   D(14,11,12,13)        179.4518                                         !
 ! D35   D(14,11,12,16)          0.0049                                         !
 ! D36   D(7,11,14,15)           2.5489                                         !
 ! D37   D(7,11,14,18)        -177.5021                                         !
 ! D38   D(12,11,14,15)       -179.8606                                         !
 ! D39   D(12,11,14,18)          0.0884                                         !
 ! D40   D(11,12,16,17)        179.5477                                         !
 ! D41   D(11,12,16,20)         -0.1091                                         !
 ! D42   D(13,12,16,17)          0.1027                                         !
 ! D43   D(13,12,16,20)       -179.554                                          !
 ! D44   D(11,14,18,19)       -179.7544                                         !
 ! D45   D(11,14,18,20)         -0.0777                                         !
 ! D46   D(15,14,18,19)          0.1941                                         !
 ! D47   D(15,14,18,20)        179.8708                                         !
 ! D48   D(12,16,20,18)          0.1199                                         !
 ! D49   D(12,16,20,21)        179.792                                          !
 ! D50   D(17,16,20,18)       -179.5362                                         !
 ! D51   D(17,16,20,21)          0.136                                          !
 ! D52   D(14,18,20,16)         -0.0272                                         !
 ! D53   D(14,18,20,21)       -179.6993                                         !
 ! D54   D(19,18,20,16)        179.6483                                         !
 ! D55   D(19,18,20,21)         -0.0238                                         !
 ! D56   D(6,22,24,25)          34.8715                                         !
 ! D57   D(6,22,24,26)         -80.7692                                         !
 ! D58   D(6,22,24,27)         155.0017                                         !
 ! D59   D(23,22,24,25)       -152.093                                          !
 ! D60   D(23,22,24,26)         92.2664                                         !
 ! D61   D(23,22,24,27)        -31.9627                                         !
 ! D62   D(22,24,26,30)       -110.519                                          !
 ! D63   D(22,24,26,41)         68.121                                          !
 ! D64   D(25,24,26,30)        134.9772                                         !
 ! D65   D(25,24,26,41)        -46.3828                                         !
 ! D66   D(27,24,26,30)         13.1851                                         !
 ! D67   D(27,24,26,41)       -168.1749                                         !
 ! D68   D(22,24,27,28)         67.3674                                         !
 ! D69   D(22,24,27,29)       -178.801                                          !
 ! D70   D(22,24,27,31)        -56.7307                                         !
 ! D71   D(25,24,27,28)       -175.375                                          !
 ! D72   D(25,24,27,29)        -61.5434                                         !
 ! D73   D(25,24,27,31)         60.5269                                         !
 ! D74   D(26,24,27,28)        -55.3203                                         !
 ! D75   D(26,24,27,29)         58.5113                                         !
 ! D76   D(26,24,27,31)       -179.4184                                         !
 ! D77   D(24,26,41,42)         -2.0674                                         !
 ! D78   D(24,26,41,43)       -163.4692                                         !
 ! D79   D(30,26,41,42)        176.5536                                         !
 ! D80   D(30,26,41,43)         15.1518                                         !
 ! D81   D(24,27,31,32)         62.4951                                         !
 ! D82   D(24,27,31,33)        179.7833                                         !
 ! D83   D(24,27,31,37)        -56.2565                                         !
 ! D84   D(28,27,31,32)        -60.8347                                         !
 ! D85   D(28,27,31,33)         56.4534                                         !
 ! D86   D(28,27,31,37)       -179.5863                                         !
 ! D87   D(29,27,31,32)       -176.4991                                         !
 ! D88   D(29,27,31,33)        -59.211                                          !
 ! D89   D(29,27,31,37)         64.7493                                         !
 ! D90   D(27,31,33,34)         63.8215                                         !
 ! D91   D(27,31,33,35)       -176.602                                          !
 ! D92   D(27,31,33,36)        -56.1339                                         !
 ! D93   D(32,31,33,34)       -178.577                                          !
 ! D94   D(32,31,33,35)        -59.0005                                         !
 ! D95   D(32,31,33,36)         61.4676                                         !
 ! D96   D(37,31,33,34)        -60.9422                                         !
 ! D97   D(37,31,33,35)         58.6344                                         !
 ! D98   D(37,31,33,36)        179.1025                                         !
 ! D99   D(27,31,37,38)        -57.1071                                         !
 ! D100  D(27,31,37,39)         63.5968                                         !
 ! D101  D(27,31,37,40)       -176.4079                                         !
 ! D102  D(32,31,37,38)       -176.1885                                         !
 ! D103  D(32,31,37,39)        -55.4845                                         !
 ! D104  D(32,31,37,40)         64.5107                                         !
 ! D105  D(33,31,37,38)         66.1396                                         !
 ! D106  D(33,31,37,39)       -173.1564                                         !
 ! D107  D(33,31,37,40)        -53.1612                                         !
 ! D108  D(26,41,43,44)         31.5218                                         !
 ! D109  D(26,41,43,45)        -85.4769                                         !
 ! D110  D(26,41,43,46)        150.28                                           !
 ! D111  D(42,41,43,44)       -129.5347                                         !
 ! D112  D(42,41,43,45)        113.4666                                         !
 ! D113  D(42,41,43,46)        -10.7764                                         !
 ! D114  D(41,43,45,49)       -121.9934                                         !
 ! D115  D(41,43,45,55)         60.9888                                         !
 ! D116  D(44,43,45,49)        119.542                                          !
 ! D117  D(44,43,45,55)        -57.4757                                         !
 ! D118  D(46,43,45,49)          2.8382                                         !
 ! D119  D(46,43,45,55)       -174.1796                                         !
 ! D120  D(41,43,46,47)        -50.0248                                         !
 ! D121  D(41,43,46,48)         68.7545                                         !
 ! D122  D(41,43,46,50)       -168.0834                                         !
 ! D123  D(44,43,46,47)         68.8642                                         !
 ! D124  D(44,43,46,48)       -172.3564                                         !
 ! D125  D(44,43,46,50)        -49.1943                                         !
 ! D126  D(45,43,46,47)       -175.8652                                         !
 ! D127  D(45,43,46,48)        -57.0859                                         !
 ! D128  D(45,43,46,50)         66.0762                                         !
 ! D129  D(43,45,55,56)          7.3106                                         !
 ! D130  D(43,45,55,57)        157.9067                                         !
 ! D131  D(49,45,55,56)       -169.7128                                         !
 ! D132  D(49,45,55,57)        -19.1167                                         !
 ! D133  D(43,46,50,51)       -149.852                                          !
 ! D134  D(43,46,50,54)         33.9744                                         !
 ! D135  D(47,46,50,51)         91.3808                                         !
 ! D136  D(47,46,50,54)        -84.7927                                         !
 ! D137  D(48,46,50,51)        -27.1004                                         !
 ! D138  D(48,46,50,54)        156.726                                          !
 ! D139  D(46,50,51,52)        173.8179                                         !
 ! D140  D(46,50,51,53)         22.0397                                         !
 ! D141  D(54,50,51,52)        -10.0656                                         !
 ! D142  D(54,50,51,53)       -161.8439                                         !
 ! D143  D(45,55,57,58)         50.9062                                         !
 ! D144  D(45,55,57,59)        -64.9544                                         !
 ! D145  D(45,55,57,60)        170.8549                                         !
 ! D146  D(56,55,57,58)       -159.6961                                         !
 ! D147  D(56,55,57,59)         84.4433                                         !
 ! D148  D(56,55,57,60)        -39.7474                                         !
 ! D149  D(55,57,59,63)        169.8584                                         !
 ! D150  D(55,57,59,79)        -11.5641                                         !
 ! D151  D(58,57,59,63)         52.1703                                         !
 ! D152  D(58,57,59,79)       -129.2522                                         !
 ! D153  D(60,57,59,63)        -65.9182                                         !
 ! D154  D(60,57,59,79)        112.6593                                         !
 ! D155  D(55,57,60,61)         70.8681                                         !
 ! D156  D(55,57,60,62)        -43.9333                                         !
 ! D157  D(55,57,60,64)       -166.3532                                         !
 ! D158  D(58,57,60,61)       -170.0761                                         !
 ! D159  D(58,57,60,62)         75.1225                                         !
 ! D160  D(58,57,60,64)        -47.2974                                         !
 ! D161  D(59,57,60,61)        -54.8289                                         !
 ! D162  D(59,57,60,62)       -169.6303                                         !
 ! D163  D(59,57,60,64)         67.9498                                         !
 ! D164  D(57,59,79,80)        175.3112                                         !
 ! D165  D(63,59,79,80)         -6.124                                          !
 ! D166  D(57,60,64,65)        -52.8672                                         !
 ! D167  D(57,60,64,66)         63.1715                                         !
 ! D168  D(57,60,64,67)       -173.568                                          !
 ! D169  D(61,60,64,65)         69.6717                                         !
 ! D170  D(61,60,64,66)       -174.2896                                         !
 ! D171  D(61,60,64,67)        -51.0291                                         !
 ! D172  D(62,60,64,65)       -172.7937                                         !
 ! D173  D(62,60,64,66)        -56.755                                          !
 ! D174  D(62,60,64,67)         66.5054                                         !
 ! D175  D(60,64,67,68)         56.1351                                         !
 ! D176  D(60,64,67,69)        176.2115                                         !
 ! D177  D(60,64,67,70)        -62.8823                                         !
 ! D178  D(65,64,67,68)        -65.493                                          !
 ! D179  D(65,64,67,69)         54.5834                                         !
 ! D180  D(65,64,67,70)        175.4897                                         !
 ! D181  D(66,64,67,68)        179.7919                                         !
 ! D182  D(66,64,67,69)        -60.1317                                         !
 ! D183  D(66,64,67,70)         60.7746                                         !
 ! D184  D(64,67,70,71)        -20.7105                                         !
 ! D185  D(64,67,70,78)        163.4075                                         !
 ! D186  D(68,67,70,71)       -141.1362                                         !
 ! D187  D(68,67,70,78)         42.9818                                         !
 ! D188  D(69,67,70,71)        100.7747                                         !
 ! D189  D(69,67,70,78)        -75.1072                                         !
 ! D190  D(67,70,78,72)          8.9576                                         !
 ! D191  D(67,70,78,75)       -170.3773                                         !
 ! D192  D(71,70,78,72)       -166.8918                                         !
 ! D193  D(71,70,78,75)         13.7733                                         !
 ! D194  D(73,72,78,70)       -165.2599                                         !
 ! D195  D(73,72,78,75)         14.0834                                         !
 ! D196  D(74,72,78,70)         11.7405                                         !
 ! D197  D(74,72,78,75)       -168.9162                                         !
 ! D198  D(76,75,78,70)       -163.4968                                         !
 ! D199  D(76,75,78,72)         17.1599                                         !
 ! D200  D(77,75,78,70)         11.8806                                         !
 ! D201  D(77,75,78,72)       -167.4627                                         !
 --------------------------------------------------------------------------------
 Symmetry turned off by external request.
 Stoichiometry    C25H41N8O6(1+)
 Framework group  C1[X(C25H41N8O6)]
 Deg. of freedom   234
 Full point group                 C1      NOp   1
                          Input orientation:                          
 ---------------------------------------------------------------------
 Center     Atomic      Atomic             Coordinates (Angstroms)
 Number     Number       Type             X           Y           Z
 ---------------------------------------------------------------------
      1          7           0       -4.308081    0.289629    4.001345
      2          1           0       -4.510555    0.701592    4.909644
      3          1           0       -5.197376    0.092647    3.548131
      4          6           0       -3.519435    1.225144    3.218926
      5          1           0       -4.016003    2.199609    3.045667
      6          6           0       -3.173455    0.610558    1.863279
      7          6           0       -2.179845    1.507501    3.948887
      8          1           0       -1.559387    2.144378    3.306057
      9          1           0       -1.672604    0.544676    4.065026
     10          8           0       -2.782297   -0.550571    1.733452
     11          6           0       -2.392076    2.168761    5.288179
     12          6           0       -2.532015    3.559281    5.382127
     13          1           0       -2.438314    4.167785    4.485111
     14          6           0       -2.504086    1.400957    6.454804
     15          1           0       -2.394713    0.321586    6.392163
     16          6           0       -2.777835    4.170265    6.610721
     17          1           0       -2.876476    5.250598    6.667442
     18          6           0       -2.752090    2.009672    7.685983
     19          1           0       -2.832241    1.400760    8.581916
     20          6           0       -2.889841    3.395582    7.766943
     21          1           0       -3.077982    3.870495    8.725316
     22          7           0       -3.255610    1.465197    0.805576
     23          1           0       -3.503358    2.431307    0.971531
     24          6           0       -2.853870    1.079295   -0.547563
     25          1           0       -3.119195    0.022647   -0.647743
     26          6           0       -1.320477    1.189526   -0.676593
     27          6           0       -3.578703    1.916863   -1.597154
     28          1           0       -3.229764    2.954413   -1.524471
     29          1           0       -3.251369    1.565226   -2.583875
     30          8           0       -0.770406    2.052371   -1.370645
     31          6           0       -5.113954    1.864520   -1.517729
     32          1           0       -5.422443    2.279165   -0.547475
     33          6           0       -5.718864    2.747031   -2.616240
     34          1           0       -5.461274    2.360854   -3.611127
     35          1           0       -6.811325    2.774272   -2.543405
     36          1           0       -5.349866    3.777238   -2.551641
     37          6           0       -5.654253    0.431848   -1.604593
     38          1           0       -5.317904   -0.057174   -2.528474
     39          1           0       -5.328812   -0.183614   -0.759387
     40          1           0       -6.749498    0.430528   -1.609499
     41          7           0       -0.649363    0.276210    0.060929
     42          1           0       -1.213946   -0.351524    0.636003
     43          6           0        0.771717    0.414492    0.367370
     44          1           0        1.007885    1.482164    0.438346
     45          6           0        1.679590   -0.144871   -0.739425
     46          6           0        1.111854   -0.236962    1.700975
     47          1           0        0.408762    0.116402    2.464792
     48          1           0        1.020187   -1.325087    1.635140
     49          8           0        2.503839   -1.026954   -0.542063
     50          6           0        2.521678    0.180699    2.124171
     51          7           0        3.198067   -0.736141    2.872174
     52          1           0        4.164806   -0.525795    3.082820
     53          1           0        2.938387   -1.711263    2.840510
     54          8           0        2.968745    1.291005    1.864716
     55          7           0        1.531266    0.474067   -1.951586
     56          1           0        0.930460    1.300551   -1.953727
     57          6           0        2.620820    0.384554   -2.893351
     58          1           0        2.901203   -0.668933   -2.991107
     59          6           0        3.895518    1.093556   -2.407168
     60          6           0        2.191799    0.934678   -4.265270
     61          1           0        2.082164    2.026329   -4.204553
     62          1           0        1.190810    0.533585   -4.468272
     63          8           0        4.960967    0.987632   -2.956218
     64          6           0        3.171861    0.569737   -5.386035
     65          1           0        4.183512    0.868552   -5.099164
     66          1           0        3.208050   -0.520456   -5.518930
     67          6           0        2.847033    1.234639   -6.719703
     68          1           0        2.804763    2.322979   -6.597851
     69          1           0        3.616989    0.991126   -7.462121
     70          7           0        1.531324    0.785361   -7.217890
     71          1           0        1.175299   -0.085466   -6.843789
     72          7           0        1.350003    2.386269   -8.882376
     73          1           0        0.771321    2.994467   -9.443807
     74          1           0        2.338693    2.586845   -8.844892
     75          7           0       -0.446995    1.007128   -8.409462
     76          1           0       -0.917574    1.266138   -9.264776
     77          1           0       -0.940945    0.395038   -7.775943
     78          6           0        0.819155    1.386217   -8.166128
     79          8           0        3.679347    1.858772   -1.331768
     80          1           0        4.537369    2.215844   -1.034183
 ---------------------------------------------------------------------
 Rotational constants (GHZ):           0.1152318           0.0413704           0.0329505
 Standard basis: 6-31G(d) (6D, 7F)
   667 basis functions,  1256 primitive gaussians,   667 cartesian basis functions
   147 alpha electrons      147 beta electrons
       nuclear repulsion energy      4510.0793797852 Hartrees.
 NAtoms=   80 NActive=   80 NUniq=   80 SFac= 1.00D+00 NAtFMM=   60 NAOKFM=T Big=T
 Integral buffers will be    131072 words long.
 Raffenetti 2 integral format.
 Two-electron integral symmetry is turned off.
 Nuclear repulsion after empirical dispersion term =     4509.9170772272 Hartrees.
 One-electron integrals computed using PRISM.
 NBasis=   667 RedAO= T EigKep=  4.65D-04  NBF=   667
 NBsUse=   667 1.00D-06 EigRej= -1.00D+00 NBFU=   667
 Initial guess from the checkpoint file:  "conf-123.chk"
 B after Tr=     0.000000    0.000000    0.000000
         Rot=    1.000000    0.000000    0.000000    0.000000 Ang=   0.00 deg.
 Requested convergence on RMS density matrix=1.00D-08 within 128 cycles.
 Requested convergence on MAX density matrix=1.00D-06.
 Requested convergence on             energy=1.00D-06.
 No special actions if energy rises.
 SCF Done:  E(RB3LYP) =  -1866.75711259     A.U. after    1 cycles
            NFock=  1  Conv=0.15D-08     -V/T= 2.0094

 **********************************************************************

            Population analysis using the SCF Density.

 **********************************************************************

 Alpha  occ. eigenvalues --  -19.26909 -19.21455 -19.19505 -19.18766 -19.18414
 Alpha  occ. eigenvalues --  -19.16381 -14.54941 -14.54758 -14.54717 -14.43970
 Alpha  occ. eigenvalues --  -14.42605 -14.41833 -14.40638 -14.37117 -10.51163
 Alpha  occ. eigenvalues --  -10.39441 -10.37696 -10.35938 -10.35635 -10.34971
 Alpha  occ. eigenvalues --  -10.34292 -10.32129 -10.31033 -10.30561 -10.30414
 Alpha  occ. eigenvalues --  -10.29606 -10.28923 -10.25926 -10.25711 -10.25698
 Alpha  occ. eigenvalues --  -10.24950 -10.24678 -10.23996 -10.23864 -10.23842
 Alpha  occ. eigenvalues --  -10.23760 -10.23678 -10.23575 -10.23550  -1.19677
 Alpha  occ. eigenvalues --   -1.18375  -1.11397  -1.10560  -1.10128  -1.09439
 Alpha  occ. eigenvalues --   -1.08790  -1.08184  -1.07837  -1.00290  -0.99860
 Alpha  occ. eigenvalues --   -0.99073  -0.95446  -0.95063  -0.92809  -0.90214
 Alpha  occ. eigenvalues --   -0.88211  -0.86890  -0.84935  -0.83195  -0.82142
 Alpha  occ. eigenvalues --   -0.81739  -0.79350  -0.79153  -0.77260  -0.76951
 Alpha  occ. eigenvalues --   -0.74943  -0.74695  -0.74338  -0.72264  -0.71862
 Alpha  occ. eigenvalues --   -0.70138  -0.68500  -0.68245  -0.67854  -0.66101
 Alpha  occ. eigenvalues --   -0.65773  -0.65305  -0.64376  -0.63317  -0.63291
 Alpha  occ. eigenvalues --   -0.62669  -0.62509  -0.61731  -0.60664  -0.59558
 Alpha  occ. eigenvalues --   -0.58615  -0.57734  -0.57642  -0.56867  -0.56360
 Alpha  occ. eigenvalues --   -0.55959  -0.55874  -0.55435  -0.54785  -0.54452
 Alpha  occ. eigenvalues --   -0.53964  -0.52998  -0.51838  -0.51755  -0.50945
 Alpha  occ. eigenvalues --   -0.50649  -0.50320  -0.49865  -0.49404  -0.49403
 Alpha  occ. eigenvalues --   -0.48784  -0.48179  -0.47871  -0.47774  -0.47220
 Alpha  occ. eigenvalues --   -0.46733  -0.46452  -0.46293  -0.46053  -0.45852
 Alpha  occ. eigenvalues --   -0.45453  -0.45249  -0.44924  -0.44869  -0.44718
 Alpha  occ. eigenvalues --   -0.44400  -0.44036  -0.43481  -0.43286  -0.42987
 Alpha  occ. eigenvalues --   -0.42716  -0.41831  -0.41574  -0.40124  -0.39538
 Alpha  occ. eigenvalues --   -0.39413  -0.39287  -0.39164  -0.38728  -0.38667
 Alpha  occ. eigenvalues --   -0.36469  -0.35368  -0.34573  -0.32435  -0.32140
 Alpha  occ. eigenvalues --   -0.31970  -0.31673  -0.30609  -0.30096  -0.29947
 Alpha  occ. eigenvalues --   -0.29732  -0.28807
 Alpha virt. eigenvalues --   -0.14903  -0.10888  -0.07387  -0.06895  -0.06765
 Alpha virt. eigenvalues --   -0.05888  -0.05445  -0.05354  -0.04956  -0.04483
 Alpha virt. eigenvalues --   -0.03782  -0.02544  -0.02220  -0.00658  -0.00095
 Alpha virt. eigenvalues --    0.00641   0.00807   0.01937   0.02427   0.02593
 Alpha virt. eigenvalues --    0.04111   0.04131   0.04721   0.04800   0.05263
 Alpha virt. eigenvalues --    0.05816   0.06158   0.06411   0.06906   0.07254
 Alpha virt. eigenvalues --    0.07610   0.07945   0.08127   0.08277   0.08663
 Alpha virt. eigenvalues --    0.09138   0.09400   0.09492   0.09643   0.09921
 Alpha virt. eigenvalues --    0.10825   0.11164   0.11458   0.11810   0.11943
 Alpha virt. eigenvalues --    0.12013   0.12413   0.12788   0.12858   0.13074
 Alpha virt. eigenvalues --    0.13483   0.13970   0.14657   0.14954   0.15462
 Alpha virt. eigenvalues --    0.15964   0.16082   0.16585   0.16935   0.17265
 Alpha virt. eigenvalues --    0.18020   0.18241   0.18785   0.19610   0.19901
 Alpha virt. eigenvalues --    0.20224   0.20303   0.20439   0.21123   0.21447
 Alpha virt. eigenvalues --    0.22140   0.22775   0.24222   0.25052   0.26010
 Alpha virt. eigenvalues --    0.27161   0.27825   0.28738   0.29354   0.29910
 Alpha virt. eigenvalues --    0.30536   0.31026   0.32045   0.32660   0.33976
 Alpha virt. eigenvalues --    0.35050   0.35437   0.36409   0.36753   0.38044
 Alpha virt. eigenvalues --    0.39452   0.40785   0.40938   0.42620   0.43018
 Alpha virt. eigenvalues --    0.43250   0.44551   0.45049   0.45116   0.45765
 Alpha virt. eigenvalues --    0.46019   0.46341   0.46831   0.47757   0.47961
 Alpha virt. eigenvalues --    0.48129   0.48401   0.49366   0.49879   0.50194
 Alpha virt. eigenvalues --    0.50501   0.50741   0.50954   0.51459   0.52212
 Alpha virt. eigenvalues --    0.52484   0.52775   0.53025   0.53768   0.54036
 Alpha virt. eigenvalues --    0.54326   0.54748   0.54914   0.54997   0.55519
 Alpha virt. eigenvalues --    0.56005   0.56231   0.56897   0.57063   0.57332
 Alpha virt. eigenvalues --    0.57550   0.57750   0.58464   0.58762   0.59029
 Alpha virt. eigenvalues --    0.59511   0.59925   0.60229   0.60576   0.61164
 Alpha virt. eigenvalues --    0.61437   0.61885   0.62231   0.62810   0.63458
 Alpha virt. eigenvalues --    0.64399   0.64590   0.65123   0.65405   0.66165
 Alpha virt. eigenvalues --    0.66324   0.66440   0.66997   0.67372   0.68366
 Alpha virt. eigenvalues --    0.68834   0.69639   0.69834   0.70213   0.70297
 Alpha virt. eigenvalues --    0.70572   0.70986   0.71822   0.72391   0.73198
 Alpha virt. eigenvalues --    0.73464   0.73807   0.74224   0.74921   0.75018
 Alpha virt. eigenvalues --    0.75685   0.76213   0.76591   0.76811   0.77204
 Alpha virt. eigenvalues --    0.77807   0.78222   0.78447   0.79021   0.79130
 Alpha virt. eigenvalues --    0.79396   0.79694   0.80040   0.80584   0.80941
 Alpha virt. eigenvalues --    0.81293   0.81597   0.81798   0.81939   0.82288
 Alpha virt. eigenvalues --    0.82648   0.82969   0.83462   0.83711   0.83896
 Alpha virt. eigenvalues --    0.84042   0.84606   0.85002   0.85189   0.85683
 Alpha virt. eigenvalues --    0.86271   0.86581   0.87002   0.87144   0.87378
 Alpha virt. eigenvalues --    0.87463   0.88252   0.88320   0.88959   0.89603
 Alpha virt. eigenvalues --    0.90250   0.90863   0.91104   0.91629   0.91934
 Alpha virt. eigenvalues --    0.92904   0.93806   0.94440   0.94737   0.95180
 Alpha virt. eigenvalues --    0.95783   0.96218   0.96320   0.97013   0.97701
 Alpha virt. eigenvalues --    0.98221   0.98348   0.98589   0.99663   1.01072
 Alpha virt. eigenvalues --    1.01353   1.02702   1.03442   1.04093   1.04618
 Alpha virt. eigenvalues --    1.06014   1.06762   1.07674   1.07815   1.08922
 Alpha virt. eigenvalues --    1.09611   1.10824   1.11587   1.12109   1.12815
 Alpha virt. eigenvalues --    1.13531   1.13681   1.14012   1.14595   1.16105
 Alpha virt. eigenvalues --    1.16649   1.17128   1.18146   1.19113   1.20173
 Alpha virt. eigenvalues --    1.20889   1.21429   1.21840   1.22946   1.24518
 Alpha virt. eigenvalues --    1.24727   1.25983   1.27269   1.28505   1.29047
 Alpha virt. eigenvalues --    1.30081   1.30538   1.31489   1.33087   1.33494
 Alpha virt. eigenvalues --    1.35621   1.36189   1.36484   1.37390   1.38118
 Alpha virt. eigenvalues --    1.38218   1.38661   1.39172   1.40115   1.41324
 Alpha virt. eigenvalues --    1.41407   1.42300   1.43526   1.43684   1.44331
 Alpha virt. eigenvalues --    1.44739   1.44999   1.45642   1.46154   1.46524
 Alpha virt. eigenvalues --    1.47047   1.49162   1.49512   1.50431   1.52269
 Alpha virt. eigenvalues --    1.52866   1.53372   1.54376   1.55378   1.55923
 Alpha virt. eigenvalues --    1.57847   1.58415   1.60064   1.61662   1.62071
 Alpha virt. eigenvalues --    1.62495   1.64519   1.65318   1.65922   1.66674
 Alpha virt. eigenvalues --    1.67125   1.67449   1.68542   1.68698   1.69741
 Alpha virt. eigenvalues --    1.71119   1.71286   1.71967   1.72624   1.72853
 Alpha virt. eigenvalues --    1.74469   1.74678   1.75132   1.75302   1.75489
 Alpha virt. eigenvalues --    1.76343   1.76589   1.77308   1.77578   1.77855
 Alpha virt. eigenvalues --    1.78940   1.79231   1.79540   1.79910   1.80262
 Alpha virt. eigenvalues --    1.81600   1.81888   1.82423   1.83603   1.84059
 Alpha virt. eigenvalues --    1.85005   1.85428   1.85489   1.85958   1.86883
 Alpha virt. eigenvalues --    1.87462   1.87650   1.88011   1.88344   1.88946
 Alpha virt. eigenvalues --    1.89927   1.90225   1.91112   1.91389   1.91530
 Alpha virt. eigenvalues --    1.92135   1.92936   1.93110   1.93933   1.94033
 Alpha virt. eigenvalues --    1.95062   1.95459   1.96370   1.96550   1.97103
 Alpha virt. eigenvalues --    1.97584   1.98199   1.99303   2.00239   2.00906
 Alpha virt. eigenvalues --    2.01088   2.01501   2.01953   2.02051   2.03225
 Alpha virt. eigenvalues --    2.03427   2.04417   2.05180   2.06076   2.06729
 Alpha virt. eigenvalues --    2.07883   2.09371   2.09706   2.10334   2.10508
 Alpha virt. eigenvalues --    2.11153   2.11985   2.13022   2.14028   2.15828
 Alpha virt. eigenvalues --    2.16657   2.17242   2.17453   2.18204   2.18733
 Alpha virt. eigenvalues --    2.18872   2.19438   2.20280   2.21475   2.22032
 Alpha virt. eigenvalues --    2.22987   2.24133   2.25979   2.26275   2.26869
 Alpha virt. eigenvalues --    2.28407   2.29543   2.30265   2.30983   2.31267
 Alpha virt. eigenvalues --    2.32343   2.33295   2.33784   2.35195   2.36031
 Alpha virt. eigenvalues --    2.36791   2.37156   2.37613   2.38410   2.39221
 Alpha virt. eigenvalues --    2.40091   2.42022   2.42324   2.42701   2.43437
 Alpha virt. eigenvalues --    2.44002   2.45411   2.46032   2.47279   2.47824
 Alpha virt. eigenvalues --    2.48445   2.50781   2.51133   2.52969   2.53624
 Alpha virt. eigenvalues --    2.53897   2.54734   2.55176   2.55511   2.57948
 Alpha virt. eigenvalues --    2.58201   2.59360   2.60557   2.61394   2.61954
 Alpha virt. eigenvalues --    2.62403   2.62825   2.64659   2.65121   2.66265
 Alpha virt. eigenvalues --    2.67847   2.68122   2.69500   2.70105   2.70434
 Alpha virt. eigenvalues --    2.70898   2.71846   2.73603   2.75829   2.77684
 Alpha virt. eigenvalues --    2.79486   2.79734   2.80982   2.86375   2.87840
 Alpha virt. eigenvalues --    2.88990   2.90108   2.90984   2.93492   2.94712
 Alpha virt. eigenvalues --    2.95120   2.97268   2.98114   2.99866   3.00829
 Alpha virt. eigenvalues --    3.02567   3.05867   3.08128   3.10069   3.12818
 Alpha virt. eigenvalues --    3.36460   3.61815   3.67575   3.75904   3.76060
 Alpha virt. eigenvalues --    3.78785   3.84860   3.95461   3.97998   3.99909
 Alpha virt. eigenvalues --    4.03469   4.04664   4.07293   4.07450   4.08767
 Alpha virt. eigenvalues --    4.09552   4.11151   4.11409   4.12622   4.16910
 Alpha virt. eigenvalues --    4.20220   4.21903   4.22054   4.23017   4.26893
 Alpha virt. eigenvalues --    4.27802   4.29175   4.31484   4.36847   4.37909
 Alpha virt. eigenvalues --    4.41510   4.43447   4.45416   4.49524   4.54881
 Alpha virt. eigenvalues --    4.57068   4.59470   4.61882   4.64205   4.66324
          Condensed to atoms (all electrons):
 Mulliken charges:
               1
     1  N   -0.712394
     2  H    0.319144
     3  H    0.306097
     4  C   -0.046843
     5  H    0.112185
     6  C    0.625894
     7  C   -0.358861
     8  H    0.144828
     9  H    0.180785
    10  O   -0.538842
    11  C    0.150876
    12  C   -0.177736
    13  H    0.118194
    14  C   -0.190130
    15  H    0.147402
    16  C   -0.127880
    17  H    0.137656
    18  C   -0.128586
    19  H    0.141459
    20  C   -0.128407
    21  H    0.140670
    22  N   -0.602349
    23  H    0.336829
    24  C   -0.071552
    25  H    0.187882
    26  C    0.631037
    27  C   -0.274642
    28  H    0.153480
    29  H    0.134276
    30  O   -0.560189
    31  C   -0.069675
    32  H    0.123815
    33  C   -0.441330
    34  H    0.131636
    35  H    0.154336
    36  H    0.144322
    37  C   -0.455101
    38  H    0.133749
    39  H    0.160184
    40  H    0.154915
    41  N   -0.635509
    42  H    0.389519
    43  C   -0.061981
    44  H    0.211955
    45  C    0.654530
    46  C   -0.398783
    47  H    0.188866
    48  H    0.167366
    49  O   -0.528629
    50  C    0.621863
    51  N   -0.741137
    52  H    0.344163
    53  H    0.342922
    54  O   -0.518600
    55  N   -0.644596
    56  H    0.373293
    57  C   -0.024264
    58  H    0.201423
    59  C    0.596849
    60  C   -0.297747
    61  H    0.161171
    62  H    0.142397
    63  O   -0.464198
    64  C   -0.329085
    65  H    0.229266
    66  H    0.163072
    67  C   -0.161183
    68  H    0.187596
    69  H    0.193669
    70  N   -0.596249
    71  H    0.369761
    72  N   -0.754580
    73  H    0.389672
    74  H    0.398436
    75  N   -0.762528
    76  H    0.388693
    77  H    0.388431
    78  C    0.838975
    79  O   -0.540848
    80  H    0.428894
 Sum of Mulliken charges =   1.00000
 Mulliken charges with hydrogens summed into heavy atoms:
               1
     1  N   -0.087154
     4  C    0.065342
     6  C    0.625894
     7  C   -0.033248
    10  O   -0.538842
    11  C    0.150876
    12  C   -0.059541
    14  C   -0.042729
    16  C    0.009776
    18  C    0.012873
    20  C    0.012264
    22  N   -0.265520
    24  C    0.116330
    26  C    0.631037
    27  C    0.013114
    30  O   -0.560189
    31  C    0.054140
    33  C   -0.011036
    37  C   -0.006253
    41  N   -0.245991
    43  C    0.149974
    45  C    0.654530
    46  C   -0.042551
    49  O   -0.528629
    50  C    0.621863
    51  N   -0.054053
    54  O   -0.518600
    55  N   -0.271303
    57  C    0.177159
    59  C    0.596849
    60  C    0.005822
    63  O   -0.464198
    64  C    0.063252
    67  C    0.220081
    70  N   -0.226488
    72  N    0.033528
    75  N    0.014596
    78  C    0.838975
    79  O   -0.111953
 Electronic spatial extent (au):  <R**2>=          33215.3653
 Charge=              1.0000 electrons
 Dipole moment (field-independent basis, Debye):
    X=             -1.6440    Y=              8.2276    Z=            -31.4002  Tot=             32.5018
 Quadrupole moment (field-independent basis, Debye-Ang):
   XX=           -194.6401   YY=           -205.9230   ZZ=             94.2559
   XY=             -9.6211   XZ=            -28.9046   YZ=            -49.4288
 Traceless Quadrupole moment (field-independent basis, Debye-Ang):
   XX=            -92.5377   YY=           -103.8206   ZZ=            196.3583
   XY=             -9.6211   XZ=            -28.9046   YZ=            -49.4288
 Octapole moment (field-independent basis, Debye-Ang**2):
  XXX=            273.5503  YYY=           -726.6428  ZZZ=          -2198.4979  XYY=            132.3301
  XXY=           -186.2581  XXZ=             42.6964  XZZ=            250.8046  YZZ=            291.2764
  YYZ=            -40.2636  XYZ=           -145.6810
 Hexadecapole moment (field-independent basis, Debye-Ang**3):
 XXXX=         -12370.9120 YYYY=          -3658.8498 ZZZZ=          -2484.3435 XXXY=           1239.2095
 XXXZ=           3482.2830 YYYX=           1269.7430 YYYZ=           -642.1652 ZZZX=           1315.7627
 ZZZY=          -4817.4554 XXYY=          -2627.4511 XXZZ=          -5421.8343 YYZZ=          -3448.4212
 XXYZ=           -318.0296 YYXZ=            806.2026 ZZXY=            689.4521
 N-N= 4.509917077227D+03 E-N=-1.334397803468D+04  KE= 1.849417750745D+03
 Unable to Open any file for archive entry.
 1\1\GINC-LAC-313\SP\RB3LYP\6-31G(d)\C25H41N8O6(1+)\KENGMITH\18-Oct-202
 2\0\\# B3LYP/6-31G* empiricaldispersion=gd3bj guess=read geom=check no
 symm integral(ultrafinegrid)\\Candidate Structure: Conf:123 Charge cal
 c in gas phase\\1,1\N,0,-4.3080805597,0.2896293788,4.0013452195\H,0,-4
 .5105550782,0.7015923768,4.9096442878\H,0,-5.1973755498,0.0926473204,3
 .5481306315\C,0,-3.51943465,1.2251444698,3.2189255349\H,0,-4.016002753
 3,2.1996091364,3.0456667788\C,0,-3.1734546949,0.610557753,1.863279004\
 C,0,-2.1798451276,1.5075006048,3.9488868878\H,0,-1.5593871573,2.144378
 1909,3.3060573818\H,0,-1.6726044949,0.5446755533,4.0650262263\O,0,-2.7
 82297059,-0.5505705199,1.7334519108\C,0,-2.3920757203,2.1687608788,5.2
 881790412\C,0,-2.5320149938,3.5592810874,5.3821267551\H,0,-2.438314368
 4,4.1677852378,4.4851114714\C,0,-2.5040857444,1.4009571413,6.454803943
 4\H,0,-2.3947129957,0.3215862989,6.3921625546\C,0,-2.7778351738,4.1702
 647035,6.6107211597\H,0,-2.8764761353,5.250598308,6.6674423922\C,0,-2.
 7520895487,2.0096718447,7.6859828466\H,0,-2.8322408415,1.4007601322,8.
 5819164372\C,0,-2.8898414972,3.3955824877,7.7669430908\H,0,-3.07798244
 62,3.8704948374,8.7253160084\N,0,-3.2556100073,1.4651974979,0.80557587
 87\H,0,-3.5033582099,2.4313071525,0.9715311649\C,0,-2.8538698974,1.079
 2945655,-0.5475631746\H,0,-3.1191945385,0.022647212,-0.6477428574\C,0,
 -1.32047679,1.1895261201,-0.6765927784\C,0,-3.5787033006,1.9168632115,
 -1.5971535413\H,0,-3.2297643965,2.9544133605,-1.5244713796\H,0,-3.2513
 688572,1.5652255945,-2.5838748053\O,0,-0.7704064211,2.0523706528,-1.37
 06449774\C,0,-5.1139543514,1.8645198692,-1.5177292827\H,0,-5.422443032
 2,2.2791648022,-0.5474752868\C,0,-5.7188636722,2.7470306553,-2.6162400
 985\H,0,-5.4612737082,2.3608536239,-3.6111273794\H,0,-6.8113248687,2.7
 742720179,-2.5434047784\H,0,-5.3498664976,3.7772380756,-2.5516405982\C
 ,0,-5.6542528656,0.4318482113,-1.6045930164\H,0,-5.3179044751,-0.05717
 39678,-2.5284743708\H,0,-5.32881183,-0.183614249,-0.7593873428\H,0,-6.
 7494980301,0.430528246,-1.6094988622\N,0,-0.6493634769,0.2762095445,0.
 0609285453\H,0,-1.2139461868,-0.351524197,0.6360034777\C,0,0.771716818
 7,0.4144916575,0.3673700061\H,0,1.0078851973,1.482164237,0.4383460378\
 C,0,1.6795898781,-0.1448714241,-0.7394250905\C,0,1.111853732,-0.236962
 1796,1.7009750175\H,0,0.4087622889,0.1164021729,2.4647916968\H,0,1.020
 1867026,-1.3250872421,1.6351402723\O,0,2.5038388691,-1.0269540055,-0.5
 42062848\C,0,2.5216775344,0.1806986844,2.1241708261\N,0,3.1980668795,-
 0.7361408481,2.8721743642\H,0,4.1648064389,-0.525795366,3.0828202308\H
 ,0,2.9383869891,-1.7112628609,2.8405097515\O,0,2.9687451602,1.29100483
 49,1.864715589\N,0,1.5312658787,0.474066867,-1.9515855965\H,0,0.930460
 1053,1.3005507492,-1.9537272757\C,0,2.620820235,0.3845539455,-2.893351
 1917\H,0,2.9012025951,-0.6689330941,-2.9911068784\C,0,3.8955177024,1.0
 935557253,-2.4071676579\C,0,2.1917993222,0.9346781729,-4.265270272\H,0
 ,2.0821636926,2.0263287654,-4.204553372\H,0,1.190810258,0.5335846377,-
 4.4682723615\O,0,4.9609670001,0.9876316589,-2.9562177948\C,0,3.1718608
 789,0.5697373103,-5.3860353666\H,0,4.1835120436,0.8685521749,-5.099164
 1088\H,0,3.2080497882,-0.5204560867,-5.5189299722\C,0,2.8470325221,1.2
 346385259,-6.7197034975\H,0,2.8047625392,2.3229790877,-6.5978505354\H,
 0,3.6169894834,0.9911260707,-7.4621209831\N,0,1.5313236448,0.785361119
 9,-7.2178895967\H,0,1.1752993539,-0.0854659642,-6.8437885096\N,0,1.350
 0028781,2.3862689855,-8.8823763389\H,0,0.7713206786,2.9944671416,-9.44
 38069893\H,0,2.3386932717,2.5868451844,-8.8448918599\N,0,-0.4469947714
 ,1.0071276314,-8.4094624981\H,0,-0.9175740411,1.2661380348,-9.26477619
 16\H,0,-0.9409445421,0.3950383348,-7.7759427654\C,0,0.8191546737,1.386
 2166873,-8.1661277438\O,0,3.6793465712,1.8587716657,-1.3317681032\H,0,
 4.5373690318,2.2158442662,-1.0341833329\\Version=ES64L-G16RevC.01\HF=-
 1866.7571126\RMSD=1.481e-09\Dipole=0.2164197,1.0458588,-11.6694423\Qua
 drupole=-68.7994935,-77.1880675,145.987561,-7.1530489,-21.4898529,-36.
 7491038\PG=C01 [X(C25H41N8O6)]\\@
 The archive entry for this job was punched.


 ONE OF THE BENEFITS OF A COLLEGE EDUCATION
 IS TO SHOW THE BOY ITS LITTLE AVAIL 
                                    EMERSON IN 'CULTURE'
 Job cpu time:       0 days  0 hours  2 minutes 41.8 seconds.
 Elapsed time:       0 days  0 hours  0 minutes 46.3 seconds.
 File lengths (MBytes):  RWF=    464 Int=      0 D2E=      0 Chk=     64 Scr=     32
 Normal termination of Gaussian 16 at Tue Oct 18 19:30:26 2022.
