 Entering Gaussian System, Link 0=/opt/software/Gaussian/g16-AVX2-C.01/g16/g16
 Input=charge-conf-197.com
 Output=charge-conf-197.log
 Initial command:
 /opt/software/Gaussian/g16-AVX2-C.01/g16/l1.exe "/mnt/gs18/scratch/users/kengmith/Gau-3269.inp" -scrdir="/mnt/gs18/scratch/users/kengmith/"
 Entering Link 1 = /opt/software/Gaussian/g16-AVX2-C.01/g16/l1.exe PID=      3286.
  
 Copyright (c) 1988-2019, Gaussian, Inc.  All Rights Reserved.
  
 This is part of the Gaussian(R) 16 program.  It is based on
 the Gaussian(R) 09 system (copyright 2009, Gaussian, Inc.),
 the Gaussian(R) 03 system (copyright 2003, Gaussian, Inc.),
 the Gaussian(R) 98 system (copyright 1998, Gaussian, Inc.),
 the Gaussian(R) 94 system (copyright 1995, Gaussian, Inc.),
 the Gaussian 92(TM) system (copyright 1992, Gaussian, Inc.),
 the Gaussian 90(TM) system (copyright 1990, Gaussian, Inc.),
 the Gaussian 88(TM) system (copyright 1988, Gaussian, Inc.),
 the Gaussian 86(TM) system (copyright 1986, Carnegie Mellon
 University), and the Gaussian 82(TM) system (copyright 1983,
 Carnegie Mellon University). Gaussian is a federally registered
 trademark of Gaussian, Inc.
  
 This software contains proprietary and confidential information,
 including trade secrets, belonging to Gaussian, Inc.
  
 This software is provided under written license and may be
 used, copied, transmitted, or stored only in accord with that
 written license.
  
 The following legend is applicable only to US Government
 contracts under FAR:
  
                    RESTRICTED RIGHTS LEGEND
  
 Use, reproduction and disclosure by the US Government is
 subject to restrictions as set forth in subparagraphs (a)
 and (c) of the Commercial Computer Software - Restricted
 Rights clause in FAR 52.227-19.
  
 Gaussian, Inc.
 340 Quinnipiac St., Bldg. 40, Wallingford CT 06492
  
  
 ---------------------------------------------------------------
 Warning -- This program may not be used in any manner that
 competes with the business of Gaussian, Inc. or will provide
 assistance to any competitor of Gaussian, Inc.  The licensee
 of this program is prohibited from giving any competitor of
 Gaussian, Inc. access to this program.  By using this program,
 the user acknowledges that Gaussian, Inc. is engaged in the
 business of creating and licensing software in the field of
 computational chemistry and represents and warrants to the
 licensee that it is not a competitor of Gaussian, Inc. and that
 it will not use this program in any manner prohibited above.
 ---------------------------------------------------------------
  

 Cite this work as:
 Gaussian 16, Revision C.01,
 M. J. Frisch, G. W. Trucks, H. B. Schlegel, G. E. Scuseria, 
 M. A. Robb, J. R. Cheeseman, G. Scalmani, V. Barone, 
 G. A. Petersson, H. Nakatsuji, X. Li, M. Caricato, A. V. Marenich, 
 J. Bloino, B. G. Janesko, R. Gomperts, B. Mennucci, H. P. Hratchian, 
 J. V. Ortiz, A. F. Izmaylov, J. L. Sonnenberg, D. Williams-Young, 
 F. Ding, F. Lipparini, F. Egidi, J. Goings, B. Peng, A. Petrone, 
 T. Henderson, D. Ranasinghe, V. G. Zakrzewski, J. Gao, N. Rega, 
 G. Zheng, W. Liang, M. Hada, M. Ehara, K. Toyota, R. Fukuda, 
 J. Hasegawa, M. Ishida, T. Nakajima, Y. Honda, O. Kitao, H. Nakai, 
 T. Vreven, K. Throssell, J. A. Montgomery, Jr., J. E. Peralta, 
 F. Ogliaro, M. J. Bearpark, J. J. Heyd, E. N. Brothers, K. N. Kudin, 
 V. N. Staroverov, T. A. Keith, R. Kobayashi, J. Normand, 
 K. Raghavachari, A. P. Rendell, J. C. Burant, S. S. Iyengar, 
 J. Tomasi, M. Cossi, J. M. Millam, M. Klene, C. Adamo, R. Cammi, 
 J. W. Ochterski, R. L. Martin, K. Morokuma, O. Farkas, 
 J. B. Foresman, and D. J. Fox, Gaussian, Inc., Wallingford CT, 2019.
 
 ******************************************
 Gaussian 16:  ES64L-G16RevC.01  3-Jul-2019
                14-May-2022 
 ******************************************
 %mem=8gb
 %nproc=4
 Will use up to    4 processors via shared memory.
 %chk=conf-197.chk
 ----------------------------------------------------------------------
 # B3LYP/6-31G* empiricaldispersion=gd3 guess=read geom=check nosymm in
 tegral(ultrafinegrid)
 ----------------------------------------------------------------------
 1/29=2,38=1,172=1/1;
 2/12=2,15=1,40=1/2;
 3/5=1,6=6,7=1,11=2,14=-4,25=1,30=1,74=-5,75=-5,116=-2,124=31/1,2,3;
 4/5=1/1;
 5/5=2,38=6/2;
 6/7=2,8=2,9=2,10=2,28=1/1;
 99/5=1,9=1/99;
 ------------------------------------------------------
 Candidate Structure: Conf:197 Charge calc in gas phase
 ------------------------------------------------------
 Structure from the checkpoint file:  "conf-197.chk"
 Charge =  1 Multiplicity = 1
 Redundant internal coordinates found in file.  (old form).
 N,0,-1.6307150374,-0.7197758293,4.1815215419
 H,0,-2.1728235027,-1.56605827,3.9669010969
 H,0,-0.8165473945,-0.6824153636,3.4495543161
 H,0,-1.268141253,-0.7490807066,5.1351490201
 C,0,-2.5303189026,0.4650419553,3.9424359518
 H,0,-3.2418176225,0.5049062258,4.7738969472
 C,0,-3.2435711256,0.0824178723,2.6209448828
 C,0,-1.7274157496,1.7769622993,3.8069714622
 H,0,-1.3498930508,1.8224166195,2.7836411807
 H,0,-2.4326485249,2.6060541883,3.9375289346
 O,0,-3.3012446412,-1.1066575807,2.285595029
 C,0,-0.5103235438,1.9936855731,4.7344715575
 H,0,-0.116678392,1.0443013296,5.1237054904
 H,0,-0.7553672522,2.6190842155,5.5940387575
 C,0,0.6554429948,2.6568953557,3.9283794225
 O,0,1.1284337603,3.7104104581,4.316943281
 O,0,0.9919696186,1.9864522551,2.8616801855
 N,0,-3.6771676996,1.0871714861,1.8305470513
 H,0,-3.4765361985,2.0373648203,2.118998639
 C,0,-3.8298872036,0.8865768356,0.3747565031
 H,0,-4.1782824929,-0.1396455187,0.2410102758
 C,0,-2.4075549037,1.0638411394,-0.2392172374
 C,0,-4.8547768151,1.8893482861,-0.186802884
 H,0,-4.3656149778,2.8612246017,-0.3065201617
 H,0,-5.6287344008,2.006388553,0.5800658376
 O,0,-2.1143115209,2.0347262836,-0.9313308424
 C,0,-5.5181721896,1.4893962654,-1.4757368092
 C,0,-6.6587804355,0.7298912933,-1.5860891326
 H,0,-7.2572541562,0.2706722489,-0.8102302228
 C,0,-5.1800534033,1.9095727682,-2.8151968151
 C,0,-6.1679689579,1.367072817,-3.6880321656
 C,0,-4.1524655937,2.6984617878,-3.359940008
 H,0,-3.3873334616,3.1134002598,-2.7132619799
 N,0,-7.0361710558,0.6266071111,-2.9133034461
 H,0,-7.9050089985,0.2257665807,-3.2350054699
 C,0,-5.1082764221,2.3520579073,-5.5859138264
 H,0,-5.0705738005,2.5519425491,-6.6527599926
 C,0,-6.1423804212,1.5705330156,-5.0733485727
 H,0,-6.9094986455,1.1557674159,-5.721497234
 C,0,-4.129876625,2.9159922623,-4.7357007045
 H,0,-3.357345967,3.5489874251,-5.1647367719
 N,0,-1.4914159739,0.1346826876,0.1445041846
 H,0,-1.8048793132,-0.6243137403,0.737415174
 C,0,-0.0622808235,0.445926352,0.1789714567
 H,0,0.0723093703,1.4498946718,0.5983820322
 C,0,0.5177281916,0.3935614496,-1.2255332674
 C,0,0.6611442649,-0.5412855604,1.1405984265
 H,0,0.3615675901,-1.5627168387,0.865807732
 O,0,0.3063279251,-0.5781397019,-1.9737739476
 C,0,2.1823753415,-0.4086463272,1.060014944
 H,0,2.5643824859,-0.6782249229,0.0701273916
 H,0,2.6297724701,-1.0803074021,1.7974833569
 H,0,2.4857962688,0.6142544698,1.3053929591
 O,0,0.2175841022,-0.2768262805,2.4596468744
 H,0,0.5601525429,0.7464050557,2.7101447492
 N,0,1.2878757217,1.4287993306,-1.5906983005
 H,0,1.5212949175,2.1468730929,-0.9121377452
 C,0,1.917626976,1.5116162448,-2.8972925598
 H,0,2.0250269414,0.4949518778,-3.2837774752
 C,0,3.3050366547,2.1175064813,-2.7148434183
 C,0,1.0998159738,2.3783250268,-3.8918985186
 H,0,1.6061804631,2.341406814,-4.8633972733
 H,0,1.1446444973,3.4198446909,-3.5510829173
 O,0,3.6801555669,2.6687155958,-1.7060917127
 C,0,-0.3803681226,1.9910527599,-4.0242661477
 H,0,-0.8513866422,2.020309694,-3.0357157144
 H,0,-0.8768821067,2.7627087428,-4.6268289604
 C,0,-0.6569447972,0.6195077134,-4.6555565643
 H,0,-0.3599311514,0.6027075671,-5.7104752488
 H,0,-0.1117650154,-0.1697836122,-4.1412573683
 N,0,-2.0950248776,0.316323198,-4.5961689189
 H,0,-2.7087172536,1.0133600343,-5.0098058442
 N,0,-2.1054282301,-1.3590847193,-2.9514181978
 H,0,-2.5615165299,-2.2003107005,-2.6283465678
 H,0,-1.1936225082,-1.1109293127,-2.5308980816
 N,0,-4.0325318458,-0.853140985,-4.1199706655
 H,0,-4.5015718986,-0.2511666821,-4.7886957552
 H,0,-4.6129820541,-1.0841037342,-3.3233173791
 C,0,-2.7180765711,-0.614171531,-3.8714637048
 O,0,4.0355468995,1.9949797752,-3.8378902475
 H,0,4.8951417754,2.4304384229,-3.6776504265
 Recover connectivity data from disk.
                           ----------------------------
                           !    Current Parameters    !
                           ! (Angstroms and Degrees)  !
 --------------------------                            --------------------------
 ! Name  Definition              Value                                          !
 --------------------------------------------------------------------------------
 ! R1    R(1,2)                  1.0277                                         !
 ! R2    R(1,3)                  1.0955                                         !
 ! R3    R(1,4)                  1.0206                                         !
 ! R4    R(1,5)                  1.5067                                         !
 ! R5    R(5,6)                  1.0951                                         !
 ! R6    R(5,7)                  1.5497                                         !
 ! R7    R(5,8)                  1.5441                                         !
 ! R8    R(7,11)                 1.2368                                         !
 ! R9    R(7,18)                 1.3499                                         !
 ! R10   R(8,9)                  1.0917                                         !
 ! R11   R(8,10)                 1.0963                                         !
 ! R12   R(8,12)                 1.5455                                         !
 ! R13   R(12,13)                1.099                                          !
 ! R14   R(12,14)                1.0909                                         !
 ! R15   R(12,15)                1.5648                                         !
 ! R16   R(15,16)                1.2184                                         !
 ! R17   R(15,17)                1.3041                                         !
 ! R18   R(18,19)                1.0131                                         !
 ! R19   R(18,20)                1.4775                                         !
 ! R20   R(20,21)                1.092                                          !
 ! R21   R(20,22)                1.5593                                         !
 ! R22   R(20,23)                1.5399                                         !
 ! R23   R(22,26)                1.2279                                         !
 ! R24   R(22,42)                1.3601                                         !
 ! R25   R(23,24)                1.0946                                         !
 ! R26   R(23,25)                1.0958                                         !
 ! R27   R(23,27)                1.5038                                         !
 ! R28   R(27,28)                1.3748                                         !
 ! R29   R(27,30)                1.444                                          !
 ! R30   R(28,29)                1.0821                                         !
 ! R31   R(28,34)                1.3837                                         !
 ! R32   R(30,31)                1.4255                                         !
 ! R33   R(30,32)                1.4054                                         !
 ! R34   R(31,34)                1.3792                                         !
 ! R35   R(31,38)                1.4004                                         !
 ! R36   R(32,33)                1.0843                                         !
 ! R37   R(32,40)                1.393                                          !
 ! R38   R(34,35)                1.0095                                         !
 ! R39   R(36,37)                1.0861                                         !
 ! R40   R(36,38)                1.3939                                         !
 ! R41   R(36,40)                1.4136                                         !
 ! R42   R(38,39)                1.0866                                         !
 ! R43   R(40,41)                1.087                                          !
 ! R44   R(42,43)                1.0129                                         !
 ! R45   R(42,44)                1.463                                          !
 ! R46   R(44,45)                1.0963                                         !
 ! R47   R(44,46)                1.5205                                         !
 ! R48   R(44,47)                1.5565                                         !
 ! R49   R(46,49)                1.2445                                         !
 ! R50   R(46,56)                1.341                                          !
 ! R51   R(47,48)                1.0994                                         !
 ! R52   R(47,50)                1.5291                                         !
 ! R53   R(47,54)                1.4165                                         !
 ! R54   R(50,51)                1.0948                                         !
 ! R55   R(50,52)                1.0932                                         !
 ! R56   R(50,53)                1.0948                                         !
 ! R57   R(54,55)                1.1077                                         !
 ! R58   R(56,57)                1.0152                                         !
 ! R59   R(56,58)                1.4528                                         !
 ! R60   R(58,59)                1.0929                                         !
 ! R61   R(58,60)                1.5249                                         !
 ! R62   R(58,61)                1.5522                                         !
 ! R63   R(60,64)                1.2092                                         !
 ! R64   R(60,80)                1.3453                                         !
 ! R65   R(61,62)                1.0962                                         !
 ! R66   R(61,63)                1.0968                                         !
 ! R67   R(61,65)                1.5357                                         !
 ! R68   R(65,66)                1.0954                                         !
 ! R69   R(65,67)                1.0978                                         !
 ! R70   R(65,68)                1.535                                          !
 ! R71   R(68,69)                1.0961                                         !
 ! R72   R(68,70)                1.0884                                         !
 ! R73   R(68,71)                1.4709                                         !
 ! R74   R(71,72)                1.0166                                         !
 ! R75   R(71,79)                1.3339                                         !
 ! R76   R(73,74)                1.01                                           !
 ! R77   R(73,75)                1.0343                                         !
 ! R78   R(73,79)                1.3329                                         !
 ! R79   R(76,77)                1.0147                                         !
 ! R80   R(76,78)                1.0124                                         !
 ! R81   R(76,79)                1.3589                                         !
 ! R82   R(80,81)                0.9768                                         !
 ! A1    A(2,1,3)              106.2956                                         !
 ! A2    A(2,1,4)              111.0309                                         !
 ! A3    A(2,1,5)              107.4251                                         !
 ! A4    A(3,1,4)              111.1778                                         !
 ! A5    A(3,1,5)              108.1134                                         !
 ! A6    A(4,1,5)              112.5155                                         !
 ! A7    A(1,5,6)              107.2219                                         !
 ! A8    A(1,5,7)              102.4719                                         !
 ! A9    A(1,5,8)              111.8131                                         !
 ! A10   A(6,5,7)              110.9423                                         !
 ! A11   A(6,5,8)              111.9342                                         !
 ! A12   A(7,5,8)              111.9813                                         !
 ! A13   A(5,7,11)             119.3445                                         !
 ! A14   A(5,7,18)             117.6046                                         !
 ! A15   A(11,7,18)            122.8097                                         !
 ! A16   A(5,8,9)              107.3037                                         !
 ! A17   A(5,8,10)             107.3148                                         !
 ! A18   A(5,8,12)             118.4242                                         !
 ! A19   A(9,8,10)             107.6145                                         !
 ! A20   A(9,8,12)             106.5219                                         !
 ! A21   A(10,8,12)            109.2133                                         !
 ! A22   A(8,12,13)            111.9309                                         !
 ! A23   A(8,12,14)            112.1092                                         !
 ! A24   A(8,12,15)            109.6923                                         !
 ! A25   A(13,12,14)           107.2558                                         !
 ! A26   A(13,12,15)           106.3636                                         !
 ! A27   A(14,12,15)           109.2853                                         !
 ! A28   A(12,15,16)           119.4313                                         !
 ! A29   A(12,15,17)           113.3112                                         !
 ! A30   A(16,15,17)           127.2437                                         !
 ! A31   A(7,18,19)            117.8906                                         !
 ! A32   A(7,18,20)            120.6024                                         !
 ! A33   A(19,18,20)           115.3639                                         !
 ! A34   A(18,20,21)           106.3354                                         !
 ! A35   A(18,20,22)           106.156                                          !
 ! A36   A(18,20,23)           109.859                                          !
 ! A37   A(21,20,22)           110.4651                                         !
 ! A38   A(21,20,23)           110.7917                                         !
 ! A39   A(22,20,23)           112.9218                                         !
 ! A40   A(20,22,26)           121.9842                                         !
 ! A41   A(20,22,42)           115.1927                                         !
 ! A42   A(26,22,42)           122.5706                                         !
 ! A43   A(20,23,24)           108.7015                                         !
 ! A44   A(20,23,25)           106.5243                                         !
 ! A45   A(20,23,27)           115.657                                          !
 ! A46   A(24,23,25)           107.2978                                         !
 ! A47   A(24,23,27)           109.8489                                         !
 ! A48   A(25,23,27)           108.461                                          !
 ! A49   A(23,27,28)           125.5729                                         !
 ! A50   A(23,27,30)           127.9082                                         !
 ! A51   A(28,27,30)           106.2945                                         !
 ! A52   A(27,28,29)           129.4749                                         !
 ! A53   A(27,28,34)           110.1523                                         !
 ! A54   A(29,28,34)           120.3442                                         !
 ! A55   A(27,30,31)           107.1552                                         !
 ! A56   A(27,30,32)           133.9578                                         !
 ! A57   A(31,30,32)           118.8829                                         !
 ! A58   A(30,31,34)           107.255                                          !
 ! A59   A(30,31,38)           122.5297                                         !
 ! A60   A(34,31,38)           130.1776                                         !
 ! A61   A(30,32,33)           119.9724                                         !
 ! A62   A(30,32,40)           118.8374                                         !
 ! A63   A(33,32,40)           121.1839                                         !
 ! A64   A(28,34,31)           109.0883                                         !
 ! A65   A(28,34,35)           124.7544                                         !
 ! A66   A(31,34,35)           125.1666                                         !
 ! A67   A(37,36,38)           119.3516                                         !
 ! A68   A(37,36,40)           119.5626                                         !
 ! A69   A(38,36,40)           121.0651                                         !
 ! A70   A(31,38,36)           117.3084                                         !
 ! A71   A(31,38,39)           121.4483                                         !
 ! A72   A(36,38,39)           121.2288                                         !
 ! A73   A(32,40,36)           121.3651                                         !
 ! A74   A(32,40,41)           119.4895                                         !
 ! A75   A(36,40,41)           119.1328                                         !
 ! A76   A(22,42,43)           117.9446                                         !
 ! A77   A(22,42,44)           121.2842                                         !
 ! A78   A(43,42,44)           116.6115                                         !
 ! A79   A(42,44,45)           108.8894                                         !
 ! A80   A(42,44,46)           110.0928                                         !
 ! A81   A(42,44,47)           109.4895                                         !
 ! A82   A(45,44,46)           109.7604                                         !
 ! A83   A(45,44,47)           106.7028                                         !
 ! A84   A(46,44,47)           111.8118                                         !
 ! A85   A(44,46,49)           121.1635                                         !
 ! A86   A(44,46,56)           116.3624                                         !
 ! A87   A(49,46,56)           122.4537                                         !
 ! A88   A(44,47,48)           107.9519                                         !
 ! A89   A(44,47,50)           112.0123                                         !
 ! A90   A(44,47,54)           108.1406                                         !
 ! A91   A(48,47,50)           109.7865                                         !
 ! A92   A(48,47,54)           108.7166                                         !
 ! A93   A(50,47,54)           110.1446                                         !
 ! A94   A(47,50,51)           111.9275                                         !
 ! A95   A(47,50,52)           108.5594                                         !
 ! A96   A(47,50,53)           110.1786                                         !
 ! A97   A(51,50,52)           108.4133                                         !
 ! A98   A(51,50,53)           109.6349                                         !
 ! A99   A(52,50,53)           108.0241                                         !
 ! A100  A(47,54,55)           106.6297                                         !
 ! A101  A(46,56,57)           119.7431                                         !
 ! A102  A(46,56,58)           122.5389                                         !
 ! A103  A(57,56,58)           117.4622                                         !
 ! A104  A(56,58,59)           107.9148                                         !
 ! A105  A(56,58,60)           108.0252                                         !
 ! A106  A(56,58,61)           112.3174                                         !
 ! A107  A(59,58,60)           108.8146                                         !
 ! A108  A(59,58,61)           110.1572                                         !
 ! A109  A(60,58,61)           109.5228                                         !
 ! A110  A(58,60,64)           124.2771                                         !
 ! A111  A(58,60,80)           110.976                                          !
 ! A112  A(64,60,80)           124.7135                                         !
 ! A113  A(58,61,62)           107.801                                          !
 ! A114  A(58,61,63)           108.0349                                         !
 ! A115  A(58,61,65)           114.9765                                         !
 ! A116  A(62,61,63)           106.7683                                         !
 ! A117  A(62,61,65)           111.1219                                         !
 ! A118  A(63,61,65)           107.7972                                         !
 ! A119  A(61,65,66)           109.2639                                         !
 ! A120  A(61,65,67)           107.8177                                         !
 ! A121  A(61,65,68)           115.7497                                         !
 ! A122  A(66,65,67)           106.3853                                         !
 ! A123  A(66,65,68)           108.5139                                         !
 ! A124  A(67,65,68)           108.7145                                         !
 ! A125  A(65,68,69)           111.1433                                         !
 ! A126  A(65,68,70)           111.3072                                         !
 ! A127  A(65,68,71)           110.1046                                         !
 ! A128  A(69,68,70)           107.9344                                         !
 ! A129  A(69,68,71)           107.4959                                         !
 ! A130  A(70,68,71)           108.733                                          !
 ! A131  A(68,71,72)           115.6217                                         !
 ! A132  A(68,71,79)           128.4921                                         !
 ! A133  A(72,71,79)           114.6689                                         !
 ! A134  A(74,73,75)           117.8966                                         !
 ! A135  A(74,73,79)           118.6014                                         !
 ! A136  A(75,73,79)           123.4859                                         !
 ! A137  A(77,76,78)           112.8877                                         !
 ! A138  A(77,76,79)           117.602                                          !
 ! A139  A(78,76,79)           116.7954                                         !
 ! A140  A(71,79,73)           123.3789                                         !
 ! A141  A(71,79,76)           118.3681                                         !
 ! A142  A(73,79,76)           118.199                                          !
 ! A143  A(60,80,81)           107.4751                                         !
 ! D1    D(2,1,5,6)             74.5449                                         !
 ! D2    D(2,1,5,7)            -42.3148                                         !
 ! D3    D(2,1,5,8)           -162.4101                                         !
 ! D4    D(3,1,5,6)           -171.1189                                         !
 ! D5    D(3,1,5,7)             72.0214                                         !
 ! D6    D(3,1,5,8)            -48.0739                                         !
 ! D7    D(4,1,5,6)            -47.9533                                         !
 ! D8    D(4,1,5,7)           -164.813                                          !
 ! D9    D(4,1,5,8)             75.0917                                         !
 ! D10   D(1,5,7,11)            21.6692                                         !
 ! D11   D(1,5,7,18)          -152.8482                                         !
 ! D12   D(6,5,7,11)           -92.4933                                         !
 ! D13   D(6,5,7,18)            92.9894                                         !
 ! D14   D(8,5,7,11)           141.6475                                         !
 ! D15   D(8,5,7,18)           -32.8698                                         !
 ! D16   D(1,5,8,9)             81.2062                                         !
 ! D17   D(1,5,8,10)          -163.382                                          !
 ! D18   D(1,5,8,12)           -39.2785                                         !
 ! D19   D(6,5,8,9)           -158.4647                                         !
 ! D20   D(6,5,8,10)           -43.053                                          !
 ! D21   D(6,5,8,12)            81.0505                                         !
 ! D22   D(7,5,8,9)            -33.1498                                         !
 ! D23   D(7,5,8,10)            82.2619                                         !
 ! D24   D(7,5,8,12)          -153.6346                                         !
 ! D25   D(5,7,18,19)            2.8067                                         !
 ! D26   D(5,7,18,20)          153.9848                                         !
 ! D27   D(11,7,18,19)        -171.5064                                         !
 ! D28   D(11,7,18,20)         -20.3282                                         !
 ! D29   D(5,8,12,13)           21.9661                                         !
 ! D30   D(5,8,12,14)          -98.6126                                         !
 ! D31   D(5,8,12,15)          139.7848                                         !
 ! D32   D(9,8,12,13)          -98.9192                                         !
 ! D33   D(9,8,12,14)          140.502                                          !
 ! D34   D(9,8,12,15)           18.8995                                         !
 ! D35   D(10,8,12,13)         145.1277                                         !
 ! D36   D(10,8,12,14)          24.5489                                         !
 ! D37   D(10,8,12,15)         -97.0536                                         !
 ! D38   D(8,12,15,16)         123.514                                          !
 ! D39   D(8,12,15,17)         -55.229                                          !
 ! D40   D(13,12,15,16)       -115.2528                                         !
 ! D41   D(13,12,15,17)         66.0042                                         !
 ! D42   D(14,12,15,16)          0.2327                                         !
 ! D43   D(14,12,15,17)       -178.5103                                         !
 ! D44   D(7,18,20,21)          35.9701                                         !
 ! D45   D(7,18,20,22)         -81.6905                                         !
 ! D46   D(7,18,20,23)         155.914                                          !
 ! D47   D(19,18,20,21)       -172.1645                                         !
 ! D48   D(19,18,20,22)         70.175                                          !
 ! D49   D(19,18,20,23)        -52.2206                                         !
 ! D50   D(18,20,22,26)       -109.8009                                         !
 ! D51   D(18,20,22,42)         64.5637                                         !
 ! D52   D(21,20,22,26)        135.3228                                         !
 ! D53   D(21,20,22,42)        -50.3127                                         !
 ! D54   D(23,20,22,26)         10.63                                           !
 ! D55   D(23,20,22,42)       -175.0055                                         !
 ! D56   D(18,20,23,24)         79.1369                                         !
 ! D57   D(18,20,23,25)        -36.1951                                         !
 ! D58   D(18,20,23,27)       -156.7881                                         !
 ! D59   D(21,20,23,24)       -163.6684                                         !
 ! D60   D(21,20,23,25)         80.9996                                         !
 ! D61   D(21,20,23,27)        -39.5933                                         !
 ! D62   D(22,20,23,24)        -39.1538                                         !
 ! D63   D(22,20,23,25)       -154.4858                                         !
 ! D64   D(22,20,23,27)         84.9213                                         !
 ! D65   D(20,22,42,43)          3.9675                                         !
 ! D66   D(20,22,42,44)       -152.3324                                         !
 ! D67   D(26,22,42,43)        178.2954                                         !
 ! D68   D(26,22,42,44)         21.9955                                         !
 ! D69   D(20,23,27,28)         87.6411                                         !
 ! D70   D(20,23,27,30)        -98.5633                                         !
 ! D71   D(24,23,27,28)       -148.8837                                         !
 ! D72   D(24,23,27,30)         24.9119                                         !
 ! D73   D(25,23,27,28)        -31.8973                                         !
 ! D74   D(25,23,27,30)        141.8983                                         !
 ! D75   D(23,27,28,29)         -1.8387                                         !
 ! D76   D(23,27,28,34)        176.1873                                         !
 ! D77   D(30,27,28,29)       -176.7418                                         !
 ! D78   D(30,27,28,34)          1.2841                                         !
 ! D79   D(23,27,30,31)       -174.5774                                         !
 ! D80   D(23,27,30,32)          4.646                                          !
 ! D81   D(28,27,30,31)          0.1678                                         !
 ! D82   D(28,27,30,32)        179.3912                                         !
 ! D83   D(27,28,34,31)         -2.3154                                         !
 ! D84   D(27,28,34,35)       -171.3998                                         !
 ! D85   D(29,28,34,31)        175.919                                          !
 ! D86   D(29,28,34,35)          6.8346                                         !
 ! D87   D(27,30,31,34)         -1.5393                                         !
 ! D88   D(27,30,31,38)       -179.5155                                         !
 ! D89   D(32,30,31,34)        179.0991                                         !
 ! D90   D(32,30,31,38)          1.1229                                         !
 ! D91   D(27,30,32,33)          1.3343                                         !
 ! D92   D(27,30,32,40)       -179.5627                                         !
 ! D93   D(31,30,32,33)       -179.5131                                         !
 ! D94   D(31,30,32,40)         -0.4102                                         !
 ! D95   D(30,31,34,28)          2.3473                                         !
 ! D96   D(30,31,34,35)        171.376                                          !
 ! D97   D(38,31,34,28)       -179.886                                          !
 ! D98   D(38,31,34,35)        -10.8573                                         !
 ! D99   D(30,31,38,36)         -0.8332                                         !
 ! D100  D(30,31,38,39)       -179.4652                                         !
 ! D101  D(34,31,38,36)       -178.3033                                         !
 ! D102  D(34,31,38,39)          3.0646                                         !
 ! D103  D(30,32,40,36)         -0.5332                                         !
 ! D104  D(30,32,40,41)        178.1661                                         !
 ! D105  D(33,32,40,36)        178.5585                                         !
 ! D106  D(33,32,40,41)         -2.7422                                         !
 ! D107  D(37,36,38,31)       -178.4745                                         !
 ! D108  D(37,36,38,39)          0.1607                                         !
 ! D109  D(40,36,38,31)         -0.1396                                         !
 ! D110  D(40,36,38,39)        178.4956                                         !
 ! D111  D(37,36,40,32)        179.1631                                         !
 ! D112  D(37,36,40,41)          0.4593                                         !
 ! D113  D(38,36,40,32)          0.8316                                         !
 ! D114  D(38,36,40,41)       -177.8722                                         !
 ! D115  D(22,42,44,45)         41.767                                          !
 ! D116  D(22,42,44,46)        -78.608                                          !
 ! D117  D(22,42,44,47)        158.0834                                         !
 ! D118  D(43,42,44,45)       -114.8326                                         !
 ! D119  D(43,42,44,46)        124.7925                                         !
 ! D120  D(43,42,44,47)          1.4839                                         !
 ! D121  D(42,44,46,49)        -49.3053                                         !
 ! D122  D(42,44,46,56)        132.2967                                         !
 ! D123  D(45,44,46,49)       -169.1536                                         !
 ! D124  D(45,44,46,56)         12.4484                                         !
 ! D125  D(47,44,46,49)         72.6359                                         !
 ! D126  D(47,44,46,56)       -105.7621                                         !
 ! D127  D(42,44,47,48)         50.3237                                         !
 ! D128  D(42,44,47,50)        171.3078                                         !
 ! D129  D(42,44,47,54)        -67.1346                                         !
 ! D130  D(45,44,47,48)        168.0174                                         !
 ! D131  D(45,44,47,50)        -70.9984                                         !
 ! D132  D(45,44,47,54)         50.5591                                         !
 ! D133  D(46,44,47,48)        -71.9634                                         !
 ! D134  D(46,44,47,50)         49.0207                                         !
 ! D135  D(46,44,47,54)        170.5783                                         !
 ! D136  D(44,46,56,57)          5.4889                                         !
 ! D137  D(44,46,56,58)        179.5282                                         !
 ! D138  D(49,46,56,57)       -172.8865                                         !
 ! D139  D(49,46,56,58)          1.1528                                         !
 ! D140  D(44,47,50,51)        -63.7608                                         !
 ! D141  D(44,47,50,52)        176.613                                          !
 ! D142  D(44,47,50,53)         58.5057                                         !
 ! D143  D(48,47,50,51)         56.1567                                         !
 ! D144  D(48,47,50,52)        -63.4694                                         !
 ! D145  D(48,47,50,53)        178.4232                                         !
 ! D146  D(54,47,50,51)        175.8404                                         !
 ! D147  D(54,47,50,52)         56.2143                                         !
 ! D148  D(54,47,50,53)        -61.893                                          !
 ! D149  D(44,47,54,55)        -64.533                                          !
 ! D150  D(48,47,54,55)        178.5016                                         !
 ! D151  D(50,47,54,55)         58.1708                                         !
 ! D152  D(46,56,58,59)        -24.3407                                         !
 ! D153  D(46,56,58,60)       -141.833                                          !
 ! D154  D(46,56,58,61)         97.2724                                         !
 ! D155  D(57,56,58,59)        149.8271                                         !
 ! D156  D(57,56,58,60)         32.3347                                         !
 ! D157  D(57,56,58,61)        -88.5598                                         !
 ! D158  D(56,58,60,64)        -13.4874                                         !
 ! D159  D(56,58,60,80)        168.5335                                         !
 ! D160  D(59,58,60,64)       -130.3985                                         !
 ! D161  D(59,58,60,80)         51.6223                                         !
 ! D162  D(61,58,60,64)        109.1332                                         !
 ! D163  D(61,58,60,80)        -68.8459                                         !
 ! D164  D(56,58,61,62)       -176.6584                                         !
 ! D165  D(56,58,61,63)         68.3042                                         !
 ! D166  D(56,58,61,65)        -52.1113                                         !
 ! D167  D(59,58,61,62)        -56.3347                                         !
 ! D168  D(59,58,61,63)       -171.3721                                         !
 ! D169  D(59,58,61,65)         68.2124                                         !
 ! D170  D(60,58,61,62)         63.3126                                         !
 ! D171  D(60,58,61,63)        -51.7248                                         !
 ! D172  D(60,58,61,65)       -172.1403                                         !
 ! D173  D(58,60,80,81)        177.666                                          !
 ! D174  D(64,60,80,81)         -0.3025                                         !
 ! D175  D(58,61,65,66)         56.1942                                         !
 ! D176  D(58,61,65,67)        171.4215                                         !
 ! D177  D(58,61,65,68)        -66.6272                                         !
 ! D178  D(62,61,65,66)        178.9791                                         !
 ! D179  D(62,61,65,67)        -65.7936                                         !
 ! D180  D(62,61,65,68)         56.1577                                         !
 ! D181  D(63,61,65,66)        -64.3519                                         !
 ! D182  D(63,61,65,67)         50.8753                                         !
 ! D183  D(63,61,65,68)        172.8267                                         !
 ! D184  D(61,65,68,69)        -66.7906                                         !
 ! D185  D(61,65,68,70)         53.5549                                         !
 ! D186  D(61,65,68,71)        174.2091                                         !
 ! D187  D(66,65,68,69)        169.9931                                         !
 ! D188  D(66,65,68,70)        -69.6613                                         !
 ! D189  D(66,65,68,71)         50.9929                                         !
 ! D190  D(67,65,68,69)         54.6816                                         !
 ! D191  D(67,65,68,70)        175.0272                                         !
 ! D192  D(67,65,68,71)        -64.3186                                         !
 ! D193  D(65,68,71,72)         55.041                                          !
 ! D194  D(65,68,71,79)       -111.5595                                         !
 ! D195  D(69,68,71,72)        -66.1652                                         !
 ! D196  D(69,68,71,79)        127.2343                                         !
 ! D197  D(70,68,71,72)        177.2307                                         !
 ! D198  D(70,68,71,79)         10.6302                                         !
 ! D199  D(68,71,79,73)          6.9833                                         !
 ! D200  D(68,71,79,76)       -170.2923                                         !
 ! D201  D(72,71,79,73)       -159.7234                                         !
 ! D202  D(72,71,79,76)         23.0011                                         !
 ! D203  D(74,73,79,71)       -163.3434                                         !
 ! D204  D(74,73,79,76)         13.9364                                         !
 ! D205  D(75,73,79,71)         18.15                                           !
 ! D206  D(75,73,79,76)       -164.5701                                         !
 ! D207  D(77,76,79,71)         -5.521                                          !
 ! D208  D(77,76,79,73)        177.0603                                         !
 ! D209  D(78,76,79,71)       -144.6093                                         !
 ! D210  D(78,76,79,73)         37.9721                                         !
 --------------------------------------------------------------------------------
 Symmetry turned off by external request.
 Stoichiometry    C26H39N8O8(1+)
 Framework group  C1[X(C26H39N8O8)]
 Deg. of freedom   237
 Full point group                 C1      NOp   1
                          Input orientation:                          
 ---------------------------------------------------------------------
 Center     Atomic      Atomic             Coordinates (Angstroms)
 Number     Number       Type             X           Y           Z
 ---------------------------------------------------------------------
      1          7           0       -1.630715   -0.719776    4.181522
      2          1           0       -2.172824   -1.566058    3.966901
      3          1           0       -0.816547   -0.682415    3.449554
      4          1           0       -1.268141   -0.749081    5.135149
      5          6           0       -2.530319    0.465042    3.942436
      6          1           0       -3.241818    0.504906    4.773897
      7          6           0       -3.243571    0.082418    2.620945
      8          6           0       -1.727416    1.776962    3.806971
      9          1           0       -1.349893    1.822417    2.783641
     10          1           0       -2.432649    2.606054    3.937529
     11          8           0       -3.301245   -1.106658    2.285595
     12          6           0       -0.510324    1.993686    4.734472
     13          1           0       -0.116678    1.044301    5.123705
     14          1           0       -0.755367    2.619084    5.594039
     15          6           0        0.655443    2.656895    3.928379
     16          8           0        1.128434    3.710410    4.316943
     17          8           0        0.991970    1.986452    2.861680
     18          7           0       -3.677168    1.087171    1.830547
     19          1           0       -3.476536    2.037365    2.118999
     20          6           0       -3.829887    0.886577    0.374757
     21          1           0       -4.178282   -0.139646    0.241010
     22          6           0       -2.407555    1.063841   -0.239217
     23          6           0       -4.854777    1.889348   -0.186803
     24          1           0       -4.365615    2.861225   -0.306520
     25          1           0       -5.628734    2.006389    0.580066
     26          8           0       -2.114312    2.034726   -0.931331
     27          6           0       -5.518172    1.489396   -1.475737
     28          6           0       -6.658780    0.729891   -1.586089
     29          1           0       -7.257254    0.270672   -0.810230
     30          6           0       -5.180053    1.909573   -2.815197
     31          6           0       -6.167969    1.367073   -3.688032
     32          6           0       -4.152466    2.698462   -3.359940
     33          1           0       -3.387333    3.113400   -2.713262
     34          7           0       -7.036171    0.626607   -2.913303
     35          1           0       -7.905009    0.225767   -3.235005
     36          6           0       -5.108276    2.352058   -5.585914
     37          1           0       -5.070574    2.551943   -6.652760
     38          6           0       -6.142380    1.570533   -5.073349
     39          1           0       -6.909499    1.155767   -5.721497
     40          6           0       -4.129877    2.915992   -4.735701
     41          1           0       -3.357346    3.548987   -5.164737
     42          7           0       -1.491416    0.134683    0.144504
     43          1           0       -1.804879   -0.624314    0.737415
     44          6           0       -0.062281    0.445926    0.178971
     45          1           0        0.072309    1.449895    0.598382
     46          6           0        0.517728    0.393561   -1.225533
     47          6           0        0.661144   -0.541286    1.140598
     48          1           0        0.361568   -1.562717    0.865808
     49          8           0        0.306328   -0.578140   -1.973774
     50          6           0        2.182375   -0.408646    1.060015
     51          1           0        2.564382   -0.678225    0.070127
     52          1           0        2.629772   -1.080307    1.797483
     53          1           0        2.485796    0.614254    1.305393
     54          8           0        0.217584   -0.276826    2.459647
     55          1           0        0.560153    0.746405    2.710145
     56          7           0        1.287876    1.428799   -1.590698
     57          1           0        1.521295    2.146873   -0.912138
     58          6           0        1.917627    1.511616   -2.897293
     59          1           0        2.025027    0.494952   -3.283777
     60          6           0        3.305037    2.117506   -2.714843
     61          6           0        1.099816    2.378325   -3.891899
     62          1           0        1.606180    2.341407   -4.863397
     63          1           0        1.144644    3.419845   -3.551083
     64          8           0        3.680156    2.668716   -1.706092
     65          6           0       -0.380368    1.991053   -4.024266
     66          1           0       -0.851387    2.020310   -3.035716
     67          1           0       -0.876882    2.762709   -4.626829
     68          6           0       -0.656945    0.619508   -4.655557
     69          1           0       -0.359931    0.602708   -5.710475
     70          1           0       -0.111765   -0.169784   -4.141257
     71          7           0       -2.095025    0.316323   -4.596169
     72          1           0       -2.708717    1.013360   -5.009806
     73          7           0       -2.105428   -1.359085   -2.951418
     74          1           0       -2.561517   -2.200311   -2.628347
     75          1           0       -1.193623   -1.110929   -2.530898
     76          7           0       -4.032532   -0.853141   -4.119971
     77          1           0       -4.501572   -0.251167   -4.788696
     78          1           0       -4.612982   -1.084104   -3.323317
     79          6           0       -2.718077   -0.614172   -3.871464
     80          8           0        4.035547    1.994980   -3.837890
     81          1           0        4.895142    2.430438   -3.677650
 ---------------------------------------------------------------------
 Rotational constants (GHZ):           0.0975304           0.0694388           0.0477302
 Standard basis: 6-31G(d) (6D, 7F)
   708 basis functions,  1332 primitive gaussians,   708 cartesian basis functions
   157 alpha electrons      157 beta electrons
       nuclear repulsion energy      5640.5437544774 Hartrees.
 NAtoms=   81 NActive=   81 NUniq=   81 SFac= 1.00D+00 NAtFMM=   60 NAOKFM=T Big=T
 Integral buffers will be    131072 words long.
 Raffenetti 2 integral format.
 Two-electron integral symmetry is turned off.
 Nuclear repulsion after empirical dispersion term =     5640.4162689832 Hartrees.
 One-electron integrals computed using PRISM.
 NBasis=   708 RedAO= T EigKep=  3.71D-04  NBF=   708
 NBsUse=   708 1.00D-06 EigRej= -1.00D+00 NBFU=   708
 Initial guess from the checkpoint file:  "conf-197.chk"
 B after Tr=     0.000000    0.000000    0.000000
         Rot=    1.000000    0.000000    0.000000    0.000000 Ang=   0.00 deg.
 Requested convergence on RMS density matrix=1.00D-08 within 128 cycles.
 Requested convergence on MAX density matrix=1.00D-06.
 Requested convergence on             energy=1.00D-06.
 No special actions if energy rises.
 SCF Done:  E(RB3LYP) =  -2054.06372024     A.U. after    1 cycles
            NFock=  1  Conv=0.29D-08     -V/T= 2.0093

 **********************************************************************

            Population analysis using the SCF Density.

 **********************************************************************

 Alpha  occ. eigenvalues --  -19.28985 -19.25768 -19.23596 -19.23426 -19.23006
 Alpha  occ. eigenvalues --  -19.21529 -19.15688 -19.13609 -14.54048 -14.49693
 Alpha  occ. eigenvalues --  -14.49517 -14.49007 -14.48888 -14.48261 -14.46983
 Alpha  occ. eigenvalues --  -14.46806 -10.45586 -10.42785 -10.41521 -10.40228
 Alpha  occ. eigenvalues --  -10.39801 -10.37832 -10.35515 -10.33951 -10.33540
 Alpha  occ. eigenvalues --  -10.33450 -10.32964 -10.32923 -10.32863 -10.32774
 Alpha  occ. eigenvalues --  -10.30278 -10.30112 -10.29854 -10.29565 -10.29423
 Alpha  occ. eigenvalues --  -10.29345 -10.29295 -10.29065 -10.28947 -10.28868
 Alpha  occ. eigenvalues --  -10.26432 -10.24883  -1.19968  -1.17946  -1.15401
 Alpha  occ. eigenvalues --   -1.14555  -1.13979  -1.11202  -1.10361  -1.08879
 Alpha  occ. eigenvalues --   -1.08660  -1.07292  -1.06038  -1.03825  -1.03463
 Alpha  occ. eigenvalues --   -1.02877  -1.01767  -0.99489  -0.94740  -0.92228
 Alpha  occ. eigenvalues --   -0.90865  -0.90166  -0.87736  -0.86567  -0.85094
 Alpha  occ. eigenvalues --   -0.84343  -0.82919  -0.81691  -0.80390  -0.79439
 Alpha  occ. eigenvalues --   -0.76529  -0.75602  -0.73257  -0.72982  -0.72748
 Alpha  occ. eigenvalues --   -0.71546  -0.71374  -0.70850  -0.70291  -0.70015
 Alpha  occ. eigenvalues --   -0.69517  -0.68872  -0.68751  -0.67770  -0.66919
 Alpha  occ. eigenvalues --   -0.66394  -0.64809  -0.64253  -0.63075  -0.62570
 Alpha  occ. eigenvalues --   -0.62388  -0.61772  -0.60077  -0.59997  -0.59589
 Alpha  occ. eigenvalues --   -0.59016  -0.58739  -0.58711  -0.58364  -0.57762
 Alpha  occ. eigenvalues --   -0.57547  -0.56987  -0.56229  -0.56076  -0.55727
 Alpha  occ. eigenvalues --   -0.54967  -0.54687  -0.53874  -0.53700  -0.53251
 Alpha  occ. eigenvalues --   -0.53152  -0.52819  -0.52588  -0.52080  -0.51996
 Alpha  occ. eigenvalues --   -0.51768  -0.51090  -0.50666  -0.50067  -0.50003
 Alpha  occ. eigenvalues --   -0.49493  -0.49154  -0.48987  -0.48373  -0.48253
 Alpha  occ. eigenvalues --   -0.47859  -0.47419  -0.46858  -0.46337  -0.45777
 Alpha  occ. eigenvalues --   -0.45569  -0.45130  -0.44769  -0.44559  -0.44509
 Alpha  occ. eigenvalues --   -0.43933  -0.43875  -0.43638  -0.41422  -0.41037
 Alpha  occ. eigenvalues --   -0.40590  -0.40442  -0.40045  -0.39441  -0.38996
 Alpha  occ. eigenvalues --   -0.38362  -0.38287  -0.37129  -0.36656  -0.36260
 Alpha  occ. eigenvalues --   -0.35943  -0.35350  -0.33397  -0.31293  -0.30862
 Alpha  occ. eigenvalues --   -0.30398  -0.27398
 Alpha virt. eigenvalues --   -0.13422  -0.12276  -0.10773  -0.09364  -0.08856
 Alpha virt. eigenvalues --   -0.08551  -0.08213  -0.05857  -0.05149  -0.05029
 Alpha virt. eigenvalues --   -0.02837  -0.02162  -0.01976  -0.01574  -0.00798
 Alpha virt. eigenvalues --   -0.00448  -0.00160   0.00006   0.00457   0.00982
 Alpha virt. eigenvalues --    0.01273   0.01619   0.02022   0.02318   0.02506
 Alpha virt. eigenvalues --    0.02949   0.03297   0.03676   0.04427   0.04653
 Alpha virt. eigenvalues --    0.04900   0.05092   0.05318   0.05936   0.06076
 Alpha virt. eigenvalues --    0.06402   0.06858   0.07097   0.07156   0.07772
 Alpha virt. eigenvalues --    0.08004   0.08366   0.09074   0.09287   0.09451
 Alpha virt. eigenvalues --    0.09811   0.10379   0.11144   0.11549   0.11733
 Alpha virt. eigenvalues --    0.12030   0.12581   0.12829   0.13060   0.13273
 Alpha virt. eigenvalues --    0.13469   0.14243   0.14498   0.15256   0.15515
 Alpha virt. eigenvalues --    0.15619   0.15851   0.16263   0.16341   0.17162
 Alpha virt. eigenvalues --    0.17230   0.17715   0.18491   0.18573   0.19847
 Alpha virt. eigenvalues --    0.20194   0.21150   0.21731   0.22116   0.23039
 Alpha virt. eigenvalues --    0.23790   0.24161   0.24445   0.24890   0.27106
 Alpha virt. eigenvalues --    0.27904   0.28222   0.29075   0.29901   0.30575
 Alpha virt. eigenvalues --    0.30732   0.31644   0.33568   0.33972   0.34577
 Alpha virt. eigenvalues --    0.37016   0.37708   0.38142   0.38688   0.39783
 Alpha virt. eigenvalues --    0.40219   0.40564   0.41106   0.41458   0.41849
 Alpha virt. eigenvalues --    0.42490   0.42650   0.42822   0.43449   0.43890
 Alpha virt. eigenvalues --    0.43939   0.45115   0.45217   0.45379   0.46088
 Alpha virt. eigenvalues --    0.46361   0.46658   0.46847   0.47721   0.48118
 Alpha virt. eigenvalues --    0.48574   0.48890   0.49151   0.49553   0.49924
 Alpha virt. eigenvalues --    0.50370   0.50498   0.50845   0.51347   0.51480
 Alpha virt. eigenvalues --    0.51708   0.51860   0.52727   0.52813   0.53214
 Alpha virt. eigenvalues --    0.53496   0.53772   0.54319   0.54999   0.55199
 Alpha virt. eigenvalues --    0.55699   0.56114   0.56521   0.56851   0.57204
 Alpha virt. eigenvalues --    0.57340   0.57938   0.58348   0.58847   0.59153
 Alpha virt. eigenvalues --    0.59379   0.59817   0.60445   0.61019   0.61644
 Alpha virt. eigenvalues --    0.62264   0.63165   0.63813   0.64063   0.64593
 Alpha virt. eigenvalues --    0.65492   0.66018   0.66433   0.66692   0.67722
 Alpha virt. eigenvalues --    0.67975   0.68649   0.69265   0.69682   0.70140
 Alpha virt. eigenvalues --    0.70777   0.70998   0.71176   0.71557   0.71962
 Alpha virt. eigenvalues --    0.72385   0.72746   0.73060   0.73190   0.73298
 Alpha virt. eigenvalues --    0.73861   0.74056   0.74165   0.74978   0.75250
 Alpha virt. eigenvalues --    0.75510   0.76012   0.76267   0.76696   0.76780
 Alpha virt. eigenvalues --    0.77551   0.77888   0.78246   0.78451   0.78845
 Alpha virt. eigenvalues --    0.79643   0.80006   0.80406   0.80668   0.80724
 Alpha virt. eigenvalues --    0.80842   0.82177   0.82258   0.82431   0.83080
 Alpha virt. eigenvalues --    0.83410   0.83898   0.84023   0.84288   0.84968
 Alpha virt. eigenvalues --    0.85640   0.85718   0.85962   0.86335   0.86729
 Alpha virt. eigenvalues --    0.87432   0.87546   0.88506   0.88735   0.89289
 Alpha virt. eigenvalues --    0.90244   0.90473   0.91147   0.91390   0.92129
 Alpha virt. eigenvalues --    0.92214   0.93199   0.93408   0.94019   0.94699
 Alpha virt. eigenvalues --    0.95918   0.96047   0.96938   0.97064   0.98055
 Alpha virt. eigenvalues --    0.98884   0.99286   0.99603   1.00904   1.01223
 Alpha virt. eigenvalues --    1.01583   1.02043   1.02736   1.02885   1.03899
 Alpha virt. eigenvalues --    1.04655   1.05955   1.06906   1.07220   1.07591
 Alpha virt. eigenvalues --    1.08654   1.09146   1.10183   1.10365   1.11856
 Alpha virt. eigenvalues --    1.12079   1.12423   1.13103   1.13538   1.13785
 Alpha virt. eigenvalues --    1.14537   1.15160   1.15848   1.16590   1.17130
 Alpha virt. eigenvalues --    1.18631   1.19396   1.19740   1.20891   1.21359
 Alpha virt. eigenvalues --    1.22669   1.23504   1.23912   1.24788   1.25177
 Alpha virt. eigenvalues --    1.25584   1.25622   1.26839   1.27352   1.28448
 Alpha virt. eigenvalues --    1.29112   1.29738   1.30317   1.30557   1.32180
 Alpha virt. eigenvalues --    1.32403   1.32767   1.33377   1.33978   1.34843
 Alpha virt. eigenvalues --    1.35724   1.36553   1.37305   1.38173   1.38845
 Alpha virt. eigenvalues --    1.39187   1.39824   1.40091   1.41288   1.41984
 Alpha virt. eigenvalues --    1.42289   1.42927   1.43310   1.44478   1.45737
 Alpha virt. eigenvalues --    1.47108   1.47676   1.48985   1.49767   1.51228
 Alpha virt. eigenvalues --    1.51571   1.52047   1.52380   1.53036   1.53218
 Alpha virt. eigenvalues --    1.54854   1.55480   1.55825   1.56577   1.58068
 Alpha virt. eigenvalues --    1.59097   1.59543   1.59798   1.60251   1.60875
 Alpha virt. eigenvalues --    1.62039   1.62211   1.62784   1.63814   1.64220
 Alpha virt. eigenvalues --    1.65118   1.65250   1.65638   1.66318   1.67052
 Alpha virt. eigenvalues --    1.68317   1.68703   1.69213   1.70074   1.70100
 Alpha virt. eigenvalues --    1.70438   1.71164   1.71571   1.71815   1.72340
 Alpha virt. eigenvalues --    1.72747   1.73093   1.73940   1.74436   1.75057
 Alpha virt. eigenvalues --    1.75546   1.76268   1.76487   1.76702   1.77561
 Alpha virt. eigenvalues --    1.78507   1.78931   1.79138   1.80068   1.80349
 Alpha virt. eigenvalues --    1.80657   1.80741   1.81764   1.82021   1.82552
 Alpha virt. eigenvalues --    1.82932   1.83227   1.83547   1.84020   1.84667
 Alpha virt. eigenvalues --    1.85333   1.85591   1.86426   1.86988   1.87428
 Alpha virt. eigenvalues --    1.87996   1.88577   1.89049   1.89684   1.90403
 Alpha virt. eigenvalues --    1.90862   1.91727   1.92297   1.92486   1.92874
 Alpha virt. eigenvalues --    1.94121   1.94722   1.95035   1.95659   1.95998
 Alpha virt. eigenvalues --    1.96301   1.97592   1.98177   1.98677   1.99430
 Alpha virt. eigenvalues --    2.00583   2.01358   2.01740   2.02103   2.03231
 Alpha virt. eigenvalues --    2.03637   2.04045   2.04655   2.05953   2.06427
 Alpha virt. eigenvalues --    2.07040   2.07834   2.08535   2.09629   2.10424
 Alpha virt. eigenvalues --    2.10634   2.11702   2.11996   2.13159   2.13795
 Alpha virt. eigenvalues --    2.14367   2.15567   2.15731   2.16269   2.17126
 Alpha virt. eigenvalues --    2.17892   2.18251   2.20858   2.21677   2.22256
 Alpha virt. eigenvalues --    2.23120   2.23376   2.24322   2.25132   2.25523
 Alpha virt. eigenvalues --    2.25820   2.26398   2.27433   2.28049   2.28901
 Alpha virt. eigenvalues --    2.29640   2.30066   2.31168   2.31276   2.33392
 Alpha virt. eigenvalues --    2.33954   2.34366   2.35112   2.35882   2.36212
 Alpha virt. eigenvalues --    2.36651   2.38065   2.38967   2.40135   2.40348
 Alpha virt. eigenvalues --    2.41259   2.41852   2.42659   2.43443   2.44266
 Alpha virt. eigenvalues --    2.45678   2.46392   2.47234   2.47580   2.48261
 Alpha virt. eigenvalues --    2.50075   2.51301   2.51333   2.52153   2.52265
 Alpha virt. eigenvalues --    2.53374   2.53728   2.54023   2.55204   2.55816
 Alpha virt. eigenvalues --    2.56490   2.58435   2.58683   2.59199   2.59670
 Alpha virt. eigenvalues --    2.60005   2.63154   2.63754   2.64394   2.65687
 Alpha virt. eigenvalues --    2.66871   2.67944   2.68957   2.69510   2.71202
 Alpha virt. eigenvalues --    2.71774   2.72516   2.73711   2.75598   2.76245
 Alpha virt. eigenvalues --    2.76959   2.78393   2.81452   2.82620   2.83986
 Alpha virt. eigenvalues --    2.86594   2.87775   2.87952   2.89621   2.90372
 Alpha virt. eigenvalues --    2.91252   2.92333   2.94520   2.95675   2.99502
 Alpha virt. eigenvalues --    2.99982   3.00318   3.02520   3.03207   3.05960
 Alpha virt. eigenvalues --    3.09706   3.10462   3.14206   3.32859   3.73474
 Alpha virt. eigenvalues --    3.74430   3.76956   3.81124   3.87535   3.90094
 Alpha virt. eigenvalues --    3.91412   3.92815   3.95260   3.97799   4.01923
 Alpha virt. eigenvalues --    4.04196   4.05569   4.06120   4.06558   4.08237
 Alpha virt. eigenvalues --    4.10013   4.11837   4.14383   4.16122   4.18901
 Alpha virt. eigenvalues --    4.20026   4.21107   4.21883   4.24215   4.26839
 Alpha virt. eigenvalues --    4.28739   4.30842   4.32110   4.33596   4.34801
 Alpha virt. eigenvalues --    4.38758   4.40332   4.44105   4.46572   4.47714
 Alpha virt. eigenvalues --    4.49082   4.53938   4.56297   4.57147   4.70078
 Alpha virt. eigenvalues --    4.70675
          Condensed to atoms (all electrons):
 Mulliken charges:
               1
     1  N   -0.768415
     2  H    0.402587
     3  H    0.455412
     4  H    0.396279
     5  C   -0.100637
     6  H    0.215049
     7  C    0.628719
     8  C   -0.327344
     9  H    0.183529
    10  H    0.172816
    11  O   -0.540413
    12  C   -0.381990
    13  H    0.123429
    14  H    0.180789
    15  C    0.592332
    16  O   -0.485926
    17  O   -0.648642
    18  N   -0.587444
    19  H    0.360393
    20  C   -0.074651
    21  H    0.188920
    22  C    0.608593
    23  C   -0.366403
    24  H    0.188820
    25  H    0.172340
    26  O   -0.507938
    27  C    0.055964
    28  C   -0.010059
    29  H    0.174478
    30  C    0.067416
    31  C    0.296747
    32  C   -0.200156
    33  H    0.185644
    34  N   -0.680669
    35  H    0.348526
    36  C   -0.158748
    37  H    0.159140
    38  C   -0.208452
    39  H    0.155706
    40  C   -0.203969
    41  H    0.152285
    42  N   -0.622909
    43  H    0.356440
    44  C   -0.072610
    45  H    0.197870
    46  C    0.666372
    47  C    0.129212
    48  H    0.137742
    49  O   -0.594000
    50  C   -0.489394
    51  H    0.152623
    52  H    0.172588
    53  H    0.202543
    54  O   -0.744303
    55  H    0.481266
    56  N   -0.578317
    57  H    0.377910
    58  C   -0.060359
    59  H    0.206023
    60  C    0.590455
    61  C   -0.277096
    62  H    0.176295
    63  H    0.169491
    64  O   -0.443307
    65  C   -0.307808
    66  H    0.200869
    67  H    0.151150
    68  C   -0.173018
    69  H    0.179376
    70  H    0.206168
    71  N   -0.595192
    72  H    0.361152
    73  N   -0.792449
    74  H    0.360872
    75  H    0.448659
    76  N   -0.753208
    77  H    0.369935
    78  H    0.360114
    79  C    0.763886
    80  O   -0.560935
    81  H    0.431837
 Sum of Mulliken charges =   1.00000
 Mulliken charges with hydrogens summed into heavy atoms:
               1
     1  N    0.485863
     5  C    0.114412
     7  C    0.628719
     8  C    0.029001
    11  O   -0.540413
    12  C   -0.077772
    15  C    0.592332
    16  O   -0.485926
    17  O   -0.648642
    18  N   -0.227050
    20  C    0.114270
    22  C    0.608593
    23  C   -0.005243
    26  O   -0.507938
    27  C    0.055964
    28  C    0.164418
    30  C    0.067416
    31  C    0.296747
    32  C   -0.014512
    34  N   -0.332143
    36  C    0.000392
    38  C   -0.052747
    40  C   -0.051684
    42  N   -0.266469
    44  C    0.125260
    46  C    0.666372
    47  C    0.266955
    49  O   -0.594000
    50  C    0.038359
    54  O   -0.263037
    56  N   -0.200407
    58  C    0.145665
    60  C    0.590455
    61  C    0.068690
    64  O   -0.443307
    65  C    0.044210
    68  C    0.212526
    71  N   -0.234040
    73  N    0.017082
    76  N   -0.023160
    79  C    0.763886
    80  O   -0.129097
 Electronic spatial extent (au):  <R**2>=          27395.4202
 Charge=              1.0000 electrons
 Dipole moment (field-independent basis, Debye):
    X=            -19.2891    Y=             -3.8132    Z=             -9.4333  Tot=             21.8082
 Quadrupole moment (field-independent basis, Debye-Ang):
   XX=           -134.4692   YY=           -253.6649   ZZ=           -145.0947
   XY=             -5.7811   XZ=              1.7609   YZ=            -38.8964
 Traceless Quadrupole moment (field-independent basis, Debye-Ang):
   XX=             43.2737   YY=            -75.9220   ZZ=             32.6483
   XY=             -5.7811   XZ=              1.7609   YZ=            -38.8964
 Octapole moment (field-independent basis, Debye-Ang**2):
  XXX=            655.8669  YYY=           -850.3416  ZZZ=            461.0573  XYY=            373.7413
  XXY=           -243.0368  XXZ=           -102.4577  XZZ=             82.0040  YZZ=           -275.0580
  YYZ=             90.6518  XYZ=            -93.6550
 Hexadecapole moment (field-independent basis, Debye-Ang**3):
 XXXX=         -11338.0786 YYYY=          -4469.6730 ZZZZ=         -12543.1453 XXXY=           1326.1999
 XXXZ=           -907.6861 YYYX=            976.9092 YYYZ=            475.0507 ZZZX=          -2031.9275
 ZZZY=           -147.4791 XXYY=          -3486.7620 XXZZ=          -3611.1696 YYZZ=          -3363.9559
 XXYZ=            205.1242 YYXZ=          -1105.8717 ZZXY=            152.8589
 N-N= 5.640416268983D+03 E-N=-1.603769401793D+04  KE= 2.035168590718D+03
 Unable to Open any file for archive entry.
 1\1\GINC-VIM-000\SP\RB3LYP\6-31G(d)\C26H39N8O8(1+)\KENGMITH\14-May-202
 2\0\\# B3LYP/6-31G* empiricaldispersion=gd3 guess=read geom=check nosy
 mm integral(ultrafinegrid)\\Candidate Structure: Conf:197 Charge calc 
 in gas phase\\1,1\N,0,-1.6307150374,-0.7197758293,4.1815215419\H,0,-2.
 1728235027,-1.56605827,3.9669010969\H,0,-0.8165473945,-0.6824153636,3.
 4495543161\H,0,-1.268141253,-0.7490807066,5.1351490201\C,0,-2.53031890
 26,0.4650419553,3.9424359518\H,0,-3.2418176225,0.5049062258,4.77389694
 72\C,0,-3.2435711256,0.0824178723,2.6209448828\C,0,-1.7274157496,1.776
 9622993,3.8069714622\H,0,-1.3498930508,1.8224166195,2.7836411807\H,0,-
 2.4326485249,2.6060541883,3.9375289346\O,0,-3.3012446412,-1.1066575807
 ,2.285595029\C,0,-0.5103235438,1.9936855731,4.7344715575\H,0,-0.116678
 392,1.0443013296,5.1237054904\H,0,-0.7553672522,2.6190842155,5.5940387
 575\C,0,0.6554429948,2.6568953557,3.9283794225\O,0,1.1284337603,3.7104
 104581,4.316943281\O,0,0.9919696186,1.9864522551,2.8616801855\N,0,-3.6
 771676996,1.0871714861,1.8305470513\H,0,-3.4765361985,2.0373648203,2.1
 18998639\C,0,-3.8298872036,0.8865768356,0.3747565031\H,0,-4.1782824929
 ,-0.1396455187,0.2410102758\C,0,-2.4075549037,1.0638411394,-0.23921723
 74\C,0,-4.8547768151,1.8893482861,-0.186802884\H,0,-4.3656149778,2.861
 2246017,-0.3065201617\H,0,-5.6287344008,2.006388553,0.5800658376\O,0,-
 2.1143115209,2.0347262836,-0.9313308424\C,0,-5.5181721896,1.4893962654
 ,-1.4757368092\C,0,-6.6587804355,0.7298912933,-1.5860891326\H,0,-7.257
 2541562,0.2706722489,-0.8102302228\C,0,-5.1800534033,1.9095727682,-2.8
 151968151\C,0,-6.1679689579,1.367072817,-3.6880321656\C,0,-4.152465593
 7,2.6984617878,-3.359940008\H,0,-3.3873334616,3.1134002598,-2.71326197
 99\N,0,-7.0361710558,0.6266071111,-2.9133034461\H,0,-7.9050089985,0.22
 57665807,-3.2350054699\C,0,-5.1082764221,2.3520579073,-5.5859138264\H,
 0,-5.0705738005,2.5519425491,-6.6527599926\C,0,-6.1423804212,1.5705330
 156,-5.0733485727\H,0,-6.9094986455,1.1557674159,-5.721497234\C,0,-4.1
 29876625,2.9159922623,-4.7357007045\H,0,-3.357345967,3.5489874251,-5.1
 647367719\N,0,-1.4914159739,0.1346826876,0.1445041846\H,0,-1.804879313
 2,-0.6243137403,0.737415174\C,0,-0.0622808235,0.445926352,0.1789714567
 \H,0,0.0723093703,1.4498946718,0.5983820322\C,0,0.5177281916,0.3935614
 496,-1.2255332674\C,0,0.6611442649,-0.5412855604,1.1405984265\H,0,0.36
 15675901,-1.5627168387,0.865807732\O,0,0.3063279251,-0.5781397019,-1.9
 737739476\C,0,2.1823753415,-0.4086463272,1.060014944\H,0,2.5643824859,
 -0.6782249229,0.0701273916\H,0,2.6297724701,-1.0803074021,1.7974833569
 \H,0,2.4857962688,0.6142544698,1.3053929591\O,0,0.2175841022,-0.276826
 2805,2.4596468744\H,0,0.5601525429,0.7464050557,2.7101447492\N,0,1.287
 8757217,1.4287993306,-1.5906983005\H,0,1.5212949175,2.1468730929,-0.91
 21377452\C,0,1.917626976,1.5116162448,-2.8972925598\H,0,2.0250269414,0
 .4949518778,-3.2837774752\C,0,3.3050366547,2.1175064813,-2.7148434183\
 C,0,1.0998159738,2.3783250268,-3.8918985186\H,0,1.6061804631,2.3414068
 14,-4.8633972733\H,0,1.1446444973,3.4198446909,-3.5510829173\O,0,3.680
 1555669,2.6687155958,-1.7060917127\C,0,-0.3803681226,1.9910527599,-4.0
 242661477\H,0,-0.8513866422,2.020309694,-3.0357157144\H,0,-0.876882106
 7,2.7627087428,-4.6268289604\C,0,-0.6569447972,0.6195077134,-4.6555565
 643\H,0,-0.3599311514,0.6027075671,-5.7104752488\H,0,-0.1117650154,-0.
 1697836122,-4.1412573683\N,0,-2.0950248776,0.316323198,-4.5961689189\H
 ,0,-2.7087172536,1.0133600343,-5.0098058442\N,0,-2.1054282301,-1.35908
 47193,-2.9514181978\H,0,-2.5615165299,-2.2003107005,-2.6283465678\H,0,
 -1.1936225082,-1.1109293127,-2.5308980816\N,0,-4.0325318458,-0.8531409
 85,-4.1199706655\H,0,-4.5015718986,-0.2511666821,-4.7886957552\H,0,-4.
 6129820541,-1.0841037342,-3.3233173791\C,0,-2.7180765711,-0.614171531,
 -3.8714637048\O,0,4.0355468995,1.9949797752,-3.8378902475\H,0,4.895141
 7754,2.4304384229,-3.6776504265\\Version=ES64L-G16RevC.01\HF=-2054.063
 7202\RMSD=2.882e-09\Dipole=-4.570398,-3.4502949,-2.1837251\Quadrupole=
 32.1729416,-56.4461154,24.2731738,-4.2981337,1.3092194,-28.918521\PG=C
 01 [X(C26H39N8O8)]\\@
 The archive entry for this job was punched.


    THE DOUGHNUT CREED
 AS YOU RAMBLE ON THROUGH LIFE, BROTHER
 WHATEVER BE YOUR GOAL
 KEEP YOUR EYE UPON THE DOUGHNUT
 AND NOT UPON THE HOLE.
 Job cpu time:       0 days  0 hours  3 minutes 51.0 seconds.
 Elapsed time:       0 days  0 hours  0 minutes 58.6 seconds.
 File lengths (MBytes):  RWF=    376 Int=      0 D2E=      0 Chk=     56 Scr=     16
 Normal termination of Gaussian 16 at Sat May 14 13:22:09 2022.
